/*--------------------------------*- C++ -*----------------------------------*\
| =========                 |                                                 |
| \\      /  F ield         | foam-extend: Open Source CFD                    |
|  \\    /   O peration     | Version:     4.0                                |
|   \\  /    A nd           | Web:         http://www.foam-extend.org         |
|    \\/     M anipulation  |                                                 |
\*---------------------------------------------------------------------------*/
FoamFile
{
    version     2.0;
    format      ascii;
    class       volVectorField;
    location    "5e-10";
    object      E;
}
// * * * * * * * * * * * * * * * * * * * * * * * * * * * * * * * * * * * * * //

dimensions      [0 0 0 1 0 0 0];

internalField   nonuniform List<vector> 
252
(
(-0 7552.81427525854 -0)
(-0 7552.84001387169 -0)
(-0 7552.83208489719 -0)
(-0 7552.82548978616 -0)
(-0 7552.82071368336 -0)
(-0 7552.81674176223 -0)
(-0 7552.8127714144 -0)
(-0 7552.80432380097 -0)
(-0 7552.80250064692 -0)
(-0 7552.80882172128 -0)
(-0 7552.80822578561 -0)
(-0 7552.80809573795 -0)
(-0 7552.80575325013 -0)
(-0 7552.79661195641 -0)
(-0 7552.79251692269 -0)
(-0 7552.79043895732 -0)
(-0 7552.79005864446 -0)
(-0 7552.78771774486 -0)
(-0 7552.78031755052 -0)
(-0 7552.77568026518 -0)
(-0 7552.77781011792 -0)
(-0 7552.77327360631 -0)
(-0 7552.7730351583 -0)
(-0 7552.77685434216 -0)
(-0 7552.77055122587 -0)
(-0 7552.76403506266 -0)
(-0 7552.75900989244 -0)
(-0 7552.75847456929 -0)
(-0 7552.76079014723 -0)
(-0 7552.7587107426 -0)
(-0 7552.75614743064 -0)
(-0 7552.75803183906 -0)
(-0 7552.75865644476 -0)
(-0 7552.7568156933 -0)
(-0 7552.75697775455 -0)
(-0 7552.75540839769 -0)
(-0 7552.75068974752 -0)
(-0 7552.75027713083 -0)
(-0 7552.75201166901 -0)
(-0 7552.74997540597 -0)
(-0 7552.74642112002 -0)
(-0 7552.74636883065 -0)
(-0 7552.74389965924 -0)
(-0 7552.73296809279 -0)
(-0 7552.72939838247 -0)
(-0 7552.7297327942 -0)
(-0 7552.727513012 -0)
(-0 7552.72993483307 -0)
(-0 7552.73512621531 -0)
(-0 7552.73289877414 -0)
(-0 7552.72946792851 -0)
(-0 7552.73143793191 -0)
(-0 7552.72930164945 -0)
(-0 7552.72291171811 -0)
(-0 7552.72114480987 -0)
(-0 7552.725183659 -0)
(-0 7552.72989252278 -0)
(-0 7552.73221657846 -0)
(-0 7552.72865598454 -0)
(-0 7552.72809697673 -0)
(-0 7552.72998339105 -0)
(-0 7552.73206958688 -0)
(-0 7552.73523743631 -0)
(-0 7552.73924845748 -0)
(-0 7552.73935792238 -0)
(-0 7552.73626029558 -0)
(-0 7552.73943816637 -0)
(-0 7552.73939330669 -0)
(-0 7552.73333279422 -0)
(-0 7552.7337494038 -0)
(-0 7552.73894660103 -0)
(-0 7552.74204484657 -0)
(-0 7552.74447627365 -0)
(-0 7552.7424441043 -0)
(-0 7552.74138189436 -0)
(-0 7552.74020571971 -0)
(-0 7552.73615729008 -0)
(-0 7552.73556562109 -0)
(-0 7552.73642384658 -0)
(-0 7552.73493911537 -0)
(-0 7552.7317778716 -0)
(-0 7552.73269093193 -0)
(-0 7552.73447070763 -0)
(-0 7552.73498592639 -0)
(-0 7552.73585147394 -0)
(-0 7552.73626317745 -0)
(-0 7552.73720061806 -0)
(-0 7552.73549494587 -0)
(-0 7552.73117123079 -0)
(-0 7552.73029960145 -0)
(-0 7552.72808214042 -0)
(-0 7552.72474147139 -0)
(-0 7552.72591756662 -0)
(-0 7552.72538250419 -0)
(-0 7552.72206455772 -0)
(-0 7552.72183035407 -0)
(-0 7552.72124898245 -0)
(-0 7552.71968398089 -0)
(-0 7552.72278756647 -0)
(-0 7552.72482917483 -0)
(-0 7552.72092560463 -0)
(-0 7552.72122662789 -0)
(-0 7552.72321967004 -0)
(-0 7552.7231634366 -0)
(-0 7552.72461105479 -0)
(-0 7552.72442582588 -0)
(-0 7552.72462867965 -0)
(-0 7552.7249806299 -0)
(-0 7552.72565458692 -0)
(-0 7552.72628419806 -0)
(-0 7552.72716077115 -0)
(-0 7552.72681806043 -0)
(-0 7552.72398928959 -0)
(-0 7552.7249695152 -0)
(-0 7552.72836811326 -0)
(-0 7552.73013753109 -0)
(-0 7552.72984443553 -0)
(-0 7552.72885593471 -0)
(-0 7552.72751729522 -0)
(-0 7552.72482161361 -0)
(-0 7552.72452046283 -0)
(-0 7552.72542922078 -0)
(-0 7552.72472526518 -0)
(-0 7552.72275859303 -0)
(-0 7552.72349408381 -0)
(-0 7552.72130559809 -0)
(-0 7552.71476321808 -0)
(-0 7552.71384289049 -0)
(-0 7552.71760429393 -0)
(-0 7552.71971930146 -0)
(-0 7552.71830285297 -0)
(-0 7552.71599943376 -0)
(-0 7552.71493436933 -0)
(-0 7552.71480881145 -0)
(-0 7552.71261058159 -0)
(-0 7552.71289757007 -0)
(-0 7552.71383429029 -0)
(-0 7552.71380360577 -0)
(-0 7552.71851464185 -0)
(-0 7552.71980522737 -0)
(-0 7552.71559371069 -0)
(-0 7552.71471791601 -0)
(-0 7552.71590264784 -0)
(-0 7552.71967904088 -0)
(-0 7552.72239842853 -0)
(-0 7552.72231965199 -0)
(-0 7552.72213831332 -0)
(-0 7552.72098887224 -0)
(-0 7552.72079441784 -0)
(-0 7552.72080281856 -0)
(-0 7552.71965722743 -0)
(-0 7552.72062137736 -0)
(-0 7552.72036615169 -0)
(-0 7552.71926030455 -0)
(-0 7552.71855976786 -0)
(-0 7552.72007770972 -0)
(-0 7552.72222509797 -0)
(-0 7552.7185734749 -0)
(-0 7552.71772654892 -0)
(-0 7552.71798698839 -0)
(-0 7552.71747732097 -0)
(-0 7552.71771800554 -0)
(-0 7552.71948132664 -0)
(-0 7552.71979477829 -0)
(-0 7552.71905626714 -0)
(-0 7552.71905524409 -0)
(-0 7552.71797879938 -0)
(-0 7552.71692855868 -0)
(-0 7552.71710599123 -0)
(-0 7552.71764915699 -0)
(-0 7552.71698827037 -0)
(-0 7552.71666030458 -0)
(-0 7552.71537909388 -0)
(-0 7552.71328258311 -0)
(-0 7552.71355385617 -0)
(-0 7552.71475820524 -0)
(-0 7552.71453975289 -0)
(-0 7552.71278480493 -0)
(-0 7552.7127123295 -0)
(-0 7552.71347312913 -0)
(-0 7552.7129400343 -0)
(-0 7552.71335353949 -0)
(-0 7552.71334718732 -0)
(-0 7552.71264022451 -0)
(-0 7552.71212958433 -0)
(-0 7552.71103448288 -0)
(-0 7552.71110565964 -0)
(-0 7552.71297790437 -0)
(-0 7552.71297868027 -0)
(-0 7552.7115002692 -0)
(-0 7552.71036149901 -0)
(-0 7552.71017608978 -0)
(-0 7552.71040029435 -0)
(-0 7552.71058487996 -0)
(-0 7552.71069191796 -0)
(-0 7552.71136145044 -0)
(-0 7552.71109126561 -0)
(-0 7552.71226480842 -0)
(-0 7552.7150972172 -0)
(-0 7552.71410711484 -0)
(-0 7552.71304340136 -0)
(-0 7552.71267805975 -0)
(-0 7552.7105851885 -0)
(-0 7552.70974244505 -0)
(-0 7552.71037923376 -0)
(-0 7552.71118313329 -0)
(-0 7552.71216451782 -0)
(-0 7552.71278877018 -0)
(-0 7552.71211144996 -0)
(-0 7552.71190240157 -0)
(-0 7552.71335160611 -0)
(-0 7552.71320428311 -0)
(-0 7552.71248993977 -0)
(-0 7552.71357927221 -0)
(-0 7552.71481784745 -0)
(-0 7552.71533814588 -0)
(-0 7552.71570968902 -0)
(-0 7552.71538032199 -0)
(-0 7552.71573906717 -0)
(-0 7552.71646627473 -0)
(-0 7552.71557926332 -0)
(-0 7552.71533120731 -0)
(-0 7552.71598577305 -0)
(-0 7552.71694858795 -0)
(-0 7552.7177618371 -0)
(-0 7552.71755128672 -0)
(-0 7552.71736974778 -0)
(-0 7552.71754651967 -0)
(-0 7552.71693321967 -0)
(-0 7552.71637655211 -0)
(-0 7552.71646848892 -0)
(-0 7552.71623451427 -0)
(-0 7552.71556494069 -0)
(-0 7552.71504034026 -0)
(-0 7552.71446890661 -0)
(-0 7552.71362892247 -0)
(-0 7552.7126301229 -0)
(-0 7552.71231561146 -0)
(-0 7552.71317022121 -0)
(-0 7552.7135816908 -0)
(-0 7552.71300878054 -0)
(-0 7552.71239588429 -0)
(-0 7552.71185108642 -0)
(-0 7552.71159261268 -0)
(-0 7552.71127642363 -0)
(-0 7552.71092164056 -0)
(-0 7552.71124207843 -0)
(-0 7552.71130930563 -0)
(-0 7552.71096196422 -0)
(-0 7552.71120495257 -0)
(-0 7552.71189555343 -0)
(-0 11328.6298996929 -0)
)
;

boundaryField
{
    dielectric_2
    {
        type            calculated;
        value           nonuniform 0();
    }
    dielectric_1
    {
        type            calculated;
        value           uniform (-0 7552.78672717409 -0);
    }
    otherfaces
    {
        type            empty;
    }
    procBoundary1to0
    {
        type            processor;
        value           uniform (-0 11328.183451096 -0);
    }
}


// ************************************************************************* //
