/*--------------------------------*- C++ -*----------------------------------*\
| =========                 |                                                 |
| \\      /  F ield         | foam-extend: Open Source CFD                    |
|  \\    /   O peration     | Version:     4.0                                |
|   \\  /    A nd           | Web:         http://www.foam-extend.org         |
|    \\/     M anipulation  |                                                 |
\*---------------------------------------------------------------------------*/
FoamFile
{
    version     2.0;
    format      ascii;
    class       regIOobject;
    location    "7e-07/uniform";
    object      profilingInfo;
}
// * * * * * * * * * * * * * * * * * * * * * * * * * * * * * * * * * * * * * //

profilingInfo
(

    {
        id              20;
        parentId        16;
        description     "Foam::Time::writeObject - outputTime";
        calls           7;
        totalTime       0.029841;
        childTime       0;
        onStack         1;
    }

    {
        id              16;
        parentId        1;
        description     "Foam::Time::writeObject";
        calls           7000;
        totalTime       0.0399550000000008;
        childTime       0.029841;
        onStack         1;
    }

    {
        id              1;
        description     "application::main";
        calls           1;
        totalTime       149.193446;
        childTime       2.33870500000035;
        onStack         1;
    }

    {
        id              18;
        parentId        17;
        description     "FO::dumpObjects::execute";
        calls           6999;
        totalTime       0.0322259999999982;
        childTime       0;
        onStack         0;
    }

    {
        id              4;
        parentId        3;
        description     "FO::dumpObjects::start";
        calls           1;
        totalTime       2.5e-05;
        childTime       0;
        onStack         0;
    }

    {
        id              19;
        parentId        17;
        description     "FO::fieldAverage1::execute";
        calls           6999;
        totalTime       0.383817999999995;
        childTime       0;
        onStack         0;
    }

    {
        id              5;
        parentId        3;
        description     "FO::fieldAverage1::start";
        calls           1;
        totalTime       0.00045;
        childTime       0;
        onStack         0;
    }

    {
        id              3;
        parentId        2;
        description     "functionObjectList::read";
        calls           1;
        totalTime       0.007644;
        childTime       0.000475;
        onStack         0;
    }

    {
        id              17;
        parentId        1;
        description     "functionObjects_.execute()";
        calls           6999;
        totalTime       0.429832000000008;
        childTime       0.416043999999991;
        onStack         0;
    }

    {
        id              2;
        parentId        1;
        description     "functionObjects_.start()";
        calls           1;
        totalTime       0.007656;
        childTime       0.007644;
        onStack         0;
    }

    {
        id              12;
        parentId        1;
        description     "fvMatrix::solve_N_Arm";
        calls           7133;
        totalTime       0.324081999999983;
        childTime       0.166345999999982;
        onStack         0;
    }

    {
        id              10;
        parentId        1;
        description     "fvMatrix::solve_N_Arp1";
        calls           7828;
        totalTime       0.376496000000007;
        childTime       0.185257999999981;
        onStack         0;
    }

    {
        id              8;
        parentId        1;
        description     "fvMatrix::solve_N_electron";
        calls           7721;
        totalTime       0.385673000000004;
        childTime       0.189781999999985;
        onStack         0;
    }

    {
        id              6;
        parentId        1;
        description     "fvMatrix::solve_Phi";
        calls           7000;
        totalTime       0.361022000000003;
        childTime       0.180209999999988;
        onStack         0;
    }

    {
        id              14;
        parentId        1;
        description     "fvMatrix::solve_Te";
        calls           8002;
        totalTime       0.413989000000008;
        childTime       0.196675999999984;
        onStack         0;
    }

    {
        id              13;
        parentId        12;
        description     "lduMatrix::solver_N_Arm";
        calls           7133;
        totalTime       0.166345999999982;
        childTime       0;
        onStack         0;
    }

    {
        id              11;
        parentId        10;
        description     "lduMatrix::solver_N_Arp1";
        calls           7828;
        totalTime       0.185257999999981;
        childTime       0;
        onStack         0;
    }

    {
        id              9;
        parentId        8;
        description     "lduMatrix::solver_N_electron";
        calls           7721;
        totalTime       0.189781999999985;
        childTime       0;
        onStack         0;
    }

    {
        id              7;
        parentId        6;
        description     "lduMatrix::solver_Phi";
        calls           7000;
        totalTime       0.180209999999988;
        childTime       0;
        onStack         0;
    }

    {
        id              15;
        parentId        14;
        description     "lduMatrix::solver_Te";
        calls           8002;
        totalTime       0.196675999999984;
        childTime       0;
        onStack         0;
    }
);


// ************************************************************************* //
