/*--------------------------------*- C++ -*----------------------------------*\
| =========                 |                                                 |
| \\      /  F ield         | foam-extend: Open Source CFD                    |
|  \\    /   O peration     | Version:     4.0                                |
|   \\  /    A nd           | Web:         http://www.foam-extend.org         |
|    \\/     M anipulation  |                                                 |
\*---------------------------------------------------------------------------*/
FoamFile
{
    version     2.0;
    format      ascii;
    class       volScalarField;
    location    "6.6e-06";
    object      Ar;
}
// * * * * * * * * * * * * * * * * * * * * * * * * * * * * * * * * * * * * * //

dimensions      [0 0 0 1 0 0 0];

internalField   nonuniform List<scalar> 
300
(
3.21880252678471e+22
3.21880252250169e+22
3.21880252535273e+22
3.21880252645785e+22
3.21880252836368e+22
3.21880253101218e+22
3.21880253424103e+22
3.21880253811424e+22
3.21880254261963e+22
3.21880254775396e+22
3.21880255351768e+22
3.21880255990963e+22
3.21880256692928e+22
3.21880257457632e+22
3.21880258285052e+22
3.21880259175184e+22
3.21880260128061e+22
3.21880261143686e+22
3.21880262222066e+22
3.21880263363233e+22
3.21880264567225e+22
3.21880265834086e+22
3.21880267163869e+22
3.21880268556632e+22
3.21880270012599e+22
3.21880271531713e+22
3.21880273114065e+22
3.21880274759764e+22
3.21880276468807e+22
3.21880278241287e+22
3.21880280077482e+22
3.21880281977426e+22
3.21880283941092e+22
3.21880285968581e+22
3.21880288060002e+22
3.21880290215473e+22
3.21880292435161e+22
3.21880294719174e+22
3.2188029706762e+22
3.21880299480644e+22
3.21880301958399e+22
3.21880304501023e+22
3.21880307108671e+22
3.21880309781504e+22
3.21880312519692e+22
3.21880315323409e+22
3.21880318192856e+22
3.21880321128234e+22
3.21880324129839e+22
3.21880327197909e+22
3.21880330332796e+22
3.21880333534605e+22
3.21880336803625e+22
3.21880340139917e+22
3.21880343543638e+22
3.21880347014871e+22
3.2188035055383e+22
3.21880354160737e+22
3.2188035783582e+22
3.21880361579332e+22
3.21880365391489e+22
3.21880369272533e+22
3.21880373222762e+22
3.21880377242623e+22
3.21880381332346e+22
3.21880385491948e+22
3.21880389721681e+22
3.21880394021802e+22
3.21880398392573e+22
3.21880402834259e+22
3.21880407347149e+22
3.21880411931596e+22
3.21880416587897e+22
3.21880421316258e+22
3.21880426117095e+22
3.2188043099069e+22
3.21880435937293e+22
3.2188044095725e+22
3.21880446050539e+22
3.21880451217546e+22
3.21880456458543e+22
3.21880461773865e+22
3.21880467163869e+22
3.21880472628873e+22
3.21880478169367e+22
3.2188048378561e+22
3.21880489477821e+22
3.21880495246327e+22
3.21880501091575e+22
3.21880507013808e+22
3.21880513013407e+22
3.21880519091134e+22
3.2188052524675e+22
3.21880531480541e+22
3.21880537792808e+22
3.21880544183848e+22
3.21880550653954e+22
3.21880557203415e+22
3.21880563832622e+22
3.21880570541852e+22
3.21880577331312e+22
3.21880584201254e+22
3.21880591152255e+22
3.21880598184276e+22
3.21880605297658e+22
3.21880612492735e+22
3.21880619769593e+22
3.21880627128659e+22
3.21880634570051e+22
3.21880642093932e+22
3.21880649700534e+22
3.21880657390083e+22
3.21880665162856e+22
3.21880673019068e+22
3.21880680958927e+22
3.2188068898279e+22
3.21880697091018e+22
3.21880705283532e+22
3.21880713560485e+22
3.21880721922111e+22
3.21880730368825e+22
3.2188073890064e+22
3.21880747517983e+22
3.21880756220882e+22
3.21880765009349e+22
3.21880773883527e+22
3.21880782843813e+22
3.21880791890143e+22
3.21880801022731e+22
3.21880810241698e+22
3.21880819547298e+22
3.21880828939661e+22
3.21880838418926e+22
3.21880847985437e+22
3.21880857639641e+22
3.21880867381424e+22
3.21880877210822e+22
3.21880887128155e+22
3.21880897133678e+22
3.21880907227362e+22
3.21880917409427e+22
3.21880927680094e+22
3.21880938039734e+22
3.21880948488712e+22
3.21880959027313e+22
3.2188096965537e+22
3.21880980373047e+22
3.21880991180511e+22
3.21881002078088e+22
3.21881013066208e+22
3.21881024144613e+22
3.21881035313679e+22
3.21881046574046e+22
3.21881057924569e+22
3.21881069365572e+22
3.21881080898006e+22
3.21881092520858e+22
3.21881104235877e+22
3.21881116038352e+22
3.21881127935247e+22
3.21881139914108e+22
3.21881151991557e+22
3.2188116414045e+22
3.21881176397105e+22
3.21881188718425e+22
3.21881201006349e+22
3.21881213371365e+22
3.21881225874448e+22
3.2188123845299e+22
3.21881251109355e+22
3.21881263749845e+22
3.21881276438823e+22
3.21881289081062e+22
3.21881301724403e+22
3.21881314558698e+22
3.21881327411716e+22
3.21881339880849e+22
3.21881352401833e+22
3.21881365104538e+22
3.21881377192722e+22
3.21881389041947e+22
3.21881401051995e+22
3.21881412099483e+22
3.21881422897521e+22
3.21881433354323e+22
3.21881442875508e+22
3.21881451730645e+22
3.21881460252889e+22
3.21881467533433e+22
3.21881474083482e+22
3.21881480212687e+22
3.21881485436752e+22
3.21881489676816e+22
3.21881493374237e+22
3.21881496354879e+22
3.21881498325899e+22
3.21881499552869e+22
3.21881500452672e+22
3.21881501220459e+22
3.2188150176799e+22
3.21881501955897e+22
3.21881501862217e+22
3.21881501893485e+22
3.21881501943033e+22
3.2188150249689e+22
3.21881503200132e+22
3.21881504024947e+22
3.21881504799363e+22
3.2188150549443e+22
3.21881506100882e+22
3.21881506632297e+22
3.21881507096271e+22
3.21881507494006e+22
3.21881508052312e+22
3.2188150858523e+22
3.21881509081601e+22
3.21881509524841e+22
3.21881509942309e+22
3.2188151031547e+22
3.21881510671096e+22
3.21881510988452e+22
3.21881511296818e+22
3.21881511574005e+22
3.21881511846099e+22
3.21881512087678e+22
3.21881512482772e+22
3.21881512844115e+22
3.21881513208849e+22
3.21881513538718e+22
3.21881513874636e+22
3.21881514176461e+22
3.21881514486543e+22
3.21881514762861e+22
3.21881515049496e+22
3.21881515302735e+22
3.21881515567914e+22
3.21881515799737e+22
3.21881516044862e+22
3.21881516256329e+22
3.21881516482296e+22
3.21881516674258e+22
3.21881516900881e+22
3.21881517178889e+22
3.21881517471797e+22
3.21881517731643e+22
3.21881518007618e+22
3.21881518250285e+22
3.21881518510423e+22
3.21881518736875e+22
3.21881518981978e+22
3.21881519193088e+22
3.21881519423816e+22
3.21881519620362e+22
3.21881519837426e+22
3.21881520020104e+22
3.21881520224162e+22
3.21881520393763e+22
3.21881520585622e+22
3.21881520743022e+22
3.21881520923348e+22
3.21881521069122e+22
3.21881521238629e+22
3.21881521373525e+22
3.21881521532816e+22
3.2188152165743e+22
3.21881521837163e+22
3.218815220186e+22
3.21881522225608e+22
3.21881522397088e+22
3.2188152259484e+22
3.21881522756853e+22
3.21881522945764e+22
3.21881523098794e+22
3.2188152327938e+22
3.218815234239e+22
3.21881523596693e+22
3.21881523733237e+22
3.21881523898565e+22
3.21881524027383e+22
3.2188152418557e+22
3.21881524307046e+22
3.21881524458872e+22
3.21881524575543e+22
3.21881524723995e+22
3.21881524835408e+22
3.21881524978113e+22
3.2188152508351e+22
3.21881525220614e+22
3.21881525320175e+22
3.21881525455695e+22
3.21881525555129e+22
3.21881525687299e+22
3.21881525781146e+22
3.21881525913806e+22
3.21881526009516e+22
3.2188152614096e+22
3.21881526240184e+22
3.21881526379135e+22
3.21881526487101e+22
3.21881526708838e+22
)
;

boundaryField
{
    electrode
    {
        type            zeroGradient;
    }
    ground
    {
        type            zeroGradient;
    }
    otherfaces
    {
        type            empty;
    }
}


// ************************************************************************* //
