/*--------------------------------*- C++ -*----------------------------------*\
| =========                 |                                                 |
| \\      /  F ield         | foam-extend: Open Source CFD                    |
|  \\    /   O peration     | Version:     4.0                                |
|   \\  /    A nd           | Web:         http://www.foam-extend.org         |
|    \\/     M anipulation  |                                                 |
\*---------------------------------------------------------------------------*/
FoamFile
{
    version     2.0;
    format      ascii;
    class       volScalarField;
    location    "6.6e-06";
    object      Arm;
}
// * * * * * * * * * * * * * * * * * * * * * * * * * * * * * * * * * * * * * //

dimensions      [0 0 0 1 0 0 0];

internalField   nonuniform List<scalar> 
300
(
3.57412335608455e+15
3.57599867994285e+15
3.57794670292044e+15
3.57925283268397e+15
3.58006910510469e+15
3.58044767383909e+15
3.5804327409689e+15
3.58005575109491e+15
3.57934236445715e+15
3.5783145628069e+15
3.57698812406667e+15
3.57537713402016e+15
3.5734936463167e+15
3.57134826379238e+15
3.56895044367134e+15
3.56630872845356e+15
3.56342794736948e+15
3.5603166839221e+15
3.55698327825852e+15
3.5534342110896e+15
3.54967568387095e+15
3.54571361826986e+15
3.54155370429618e+15
3.53720137660434e+15
3.53264599529318e+15
3.52790526402907e+15
3.52298289600663e+15
3.51788091711048e+15
3.51261290378499e+15
3.5071837293327e+15
3.50157966963723e+15
3.49581208448354e+15
3.48989906502628e+15
3.48384600421792e+15
3.47765798831762e+15
3.47133981539114e+15
3.46489166802071e+15
3.45832005780881e+15
3.45163205049819e+15
3.44483118428224e+15
3.4379209642256e+15
3.43090666402015e+15
3.42379216552116e+15
3.41658116028053e+15
3.40927714844518e+15
3.40188339206125e+15
3.39440083798278e+15
3.38683092681496e+15
3.37916590741312e+15
3.3714043559334e+15
3.36353369762299e+15
3.35556640394152e+15
3.34749711363664e+15
3.33934352017313e+15
3.33111377082643e+15
3.32282421981898e+15
3.31447817800072e+15
3.3060785615317e+15
3.29762794104838e+15
3.28912673923682e+15
3.28057926675536e+15
3.27198763219596e+15
3.26334848349326e+15
3.25464388588011e+15
3.245877817359e+15
3.23707582906878e+15
3.22824003222431e+15
3.21937226657069e+15
3.21047411795171e+15
3.2015469443861e+15
3.19258989720958e+15
3.18359583428408e+15
3.17456322125508e+15
3.16549948142161e+15
3.15639109900056e+15
3.1472391257618e+15
3.13804989339822e+15
3.12881929762456e+15
3.1195672626291e+15
3.11026331399522e+15
3.10094196611758e+15
3.09160536542002e+15
3.08225043561601e+15
3.07287942066939e+15
3.06347753032207e+15
3.05405249270193e+15
3.04461600203983e+15
3.03516837804205e+15
3.02569773365688e+15
3.01621179857841e+15
3.00670453944311e+15
2.99713100370998e+15
2.98754635118781e+15
2.97795225838519e+15
2.96834875543274e+15
2.95873586829028e+15
2.9491133786652e+15
2.93948084642893e+15
2.92982735108781e+15
2.92015282825608e+15
2.91046353282136e+15
2.90076072417919e+15
2.89101270552474e+15
2.881248631664e+15
2.87145931106777e+15
2.86163541638337e+15
2.85179192808156e+15
2.84190927978098e+15
2.83199787050942e+15
2.82206315023382e+15
2.81210325385149e+15
2.80211589121881e+15
2.79209332974657e+15
2.7820333531957e+15
2.77193372980329e+15
2.76177681768058e+15
2.75154376267329e+15
2.74125931578814e+15
2.73092436117791e+15
2.72053081237957e+15
2.71005232250991e+15
2.69950179524361e+15
2.68885030070239e+15
2.67810820547693e+15
2.66728692990432e+15
2.65638426438368e+15
2.64537214904997e+15
2.6342679656957e+15
2.62306091333316e+15
2.61174893476436e+15
2.60031640506513e+15
2.58875944495463e+15
2.57707304211315e+15
2.56523111732511e+15
2.55319725420281e+15
2.54099025707288e+15
2.52861403909832e+15
2.51604358259104e+15
2.50326004504476e+15
2.490272509117e+15
2.47706500560873e+15
2.46362086868964e+15
2.4499079645495e+15
2.43589419997093e+15
2.42155498890912e+15
2.40691007409229e+15
2.39194461224905e+15
2.37664223032263e+15
2.36097238802238e+15
2.34488625315892e+15
2.32839618384735e+15
2.31147743167369e+15
2.29406780050171e+15
2.27616604581696e+15
2.25775390077536e+15
2.23878166372146e+15
2.21920611049665e+15
2.19902664498102e+15
2.17822411636291e+15
2.15675359005998e+15
2.13457946789736e+15
2.11168662700466e+15
2.08803686854357e+15
2.06364268057999e+15
2.03849105678795e+15
2.01252751282121e+15
1.98577283240866e+15
1.9582715558196e+15
1.93005267156971e+15
1.901158158784e+15
1.87165657445095e+15
1.84158131392197e+15
1.81102477461966e+15
1.78015842666243e+15
1.74917618407068e+15
1.71824791923915e+15
1.68755282541977e+15
1.65728991679538e+15
1.62769790650364e+15
1.59893242440443e+15
1.57114774394663e+15
1.54449086844656e+15
1.5190432289601e+15
1.49491951601176e+15
1.47211962391279e+15
1.45055349457879e+15
1.4302608027536e+15
1.41119107046133e+15
1.39325844183195e+15
1.37638217365868e+15
1.36046805474111e+15
1.34556590387475e+15
1.3321607943203e+15
1.32530452748644e+15
1.35115720108809e+15
1.41678319248101e+15
1.4956983790445e+15
1.55868341135633e+15
1.60967225841834e+15
1.65361784125285e+15
1.69043866030962e+15
1.71293747480717e+15
1.70733290932488e+15
1.67778313844157e+15
1.6355302387556e+15
1.59264785015319e+15
1.5564877848213e+15
1.52916293273876e+15
1.51020112993372e+15
1.49762866068111e+15
1.48905984303145e+15
1.48298181967632e+15
1.47891252950719e+15
1.47598984752091e+15
1.47308972025539e+15
1.47047490819044e+15
1.46794556589077e+15
1.46528037423921e+15
1.46231142989664e+15
1.45894035172803e+15
1.45510887694697e+15
1.45055107364186e+15
1.44521024582392e+15
1.4392163208735e+15
1.43265688693368e+15
1.42569432200869e+15
1.4183752452227e+15
1.41072741060201e+15
1.40279524276628e+15
1.39462953018242e+15
1.38625841725451e+15
1.37772527251897e+15
1.3690773239727e+15
1.3603437488967e+15
1.35155561920309e+15
1.34275882548802e+15
1.33396445534287e+15
1.32521597413529e+15
1.31652422538216e+15
1.30791933561057e+15
1.29941887601615e+15
1.29102954772232e+15
1.28277853855234e+15
1.2746628667065e+15
1.26669821318639e+15
1.25890788733503e+15
1.25128438972077e+15
1.24384018378898e+15
1.23658127653421e+15
1.229502130031e+15
1.22261138073045e+15
1.21590592143832e+15
1.20938328521028e+15
1.20304849207722e+15
1.19689436982521e+15
1.19091950675539e+15
1.18512239931776e+15
1.17948772891787e+15
1.17402377687133e+15
1.16872265305433e+15
1.16358950275825e+15
1.15861105092876e+15
1.15378930243081e+15
1.14911514932292e+15
1.14458541004899e+15
1.14019538709385e+15
1.13593650032206e+15
1.13180465072412e+15
1.12778828261466e+15
1.12389226690862e+15
1.12010764837031e+15
1.11643825732831e+15
1.11287004396795e+15
1.10940823936856e+15
1.1060403004526e+15
1.10276431399188e+15
1.09957809713062e+15
1.09648120103413e+15
1.09347514731299e+15
1.0905531351298e+15
1.08771354380188e+15
1.08491561555075e+15
1.08201605863087e+15
1.07906801005575e+15
1.07618787847212e+15
1.07336529472408e+15
1.07060905571308e+15
1.06792149029085e+15
1.06529280505876e+15
1.06235336251165e+15
1.05930186182782e+15
1.05632313234425e+15
1.05342288751069e+15
1.05003042563773e+15
1.04656497734757e+15
1.04297198383148e+15
1.03880815769521e+15
1.03420644418313e+15
1.02890521175561e+15
1.02245462888228e+15
)
;

boundaryField
{
    electrode
    {
        type            zeroGradient;
    }
    ground
    {
        type            zeroGradient;
    }
    otherfaces
    {
        type            empty;
    }
}


// ************************************************************************* //
