/*--------------------------------*- C++ -*----------------------------------*\
| =========                 |                                                 |
| \\      /  F ield         | foam-extend: Open Source CFD                    |
|  \\    /   O peration     | Version:     4.0                                |
|   \\  /    A nd           | Web:         http://www.foam-extend.org         |
|    \\/     M anipulation  |                                                 |
\*---------------------------------------------------------------------------*/
FoamFile
{
    version     2.0;
    format      ascii;
    class       volVectorField;
    location    "6.6e-06";
    object      E;
}
// * * * * * * * * * * * * * * * * * * * * * * * * * * * * * * * * * * * * * //

dimensions      [0 0 0 1 0 0 0];

internalField   nonuniform List<vector> 
300
(
(5.40809447224789 -0 -0)
(10.7847315952702 -0 -0)
(19.0395901586427 -0 -0)
(26.6681620911261 -0 -0)
(34.2504341013787 -0 -0)
(41.8997168419315 -0 -0)
(49.5421890470143 -0 -0)
(57.1994598477776 -0 -0)
(64.8722952772969 -0 -0)
(72.5610546689633 -0 -0)
(80.2679482048136 -0 -0)
(87.9945610252073 -0 -0)
(95.742567103597 -0 -0)
(103.513678433029 -0 -0)
(111.309606307121 -0 -0)
(119.132080925179 -0 -0)
(126.982849073251 -0 -0)
(134.863674865206 -0 -0)
(142.776341229002 -0 -0)
(150.722650801846 -0 -0)
(158.704427070945 -0 -0)
(166.723515455937 -0 -0)
(174.781784374741 -0 -0)
(182.881126351011 -0 -0)
(191.02345917982 -0 -0)
(199.210726997685 -0 -0)
(207.444901402511 -0 -0)
(215.727982685878 -0 -0)
(224.062000890585 -0 -0)
(232.449017097127 -0 -0)
(240.891124518608 -0 -0)
(249.390449791281 -0 -0)
(257.94915415325 -0 -0)
(266.56943474676 -0 -0)
(275.2535258429 -0 -0)
(284.003700178089 -0 -0)
(292.822270298061 -0 -0)
(301.711589870073 -0 -0)
(310.674055106795 -0 -0)
(319.712106151869 -0 -0)
(328.828228604516 -0 -0)
(338.024954964246 -0 -0)
(347.304866199528 -0 -0)
(356.670593326599 -0 -0)
(366.124819029014 -0 -0)
(375.670279392821 -0 -0)
(385.309765581132 -0 -0)
(395.046125716042 -0 -0)
(404.882266709413 -0 -0)
(414.821156191542 -0 -0)
(424.865824530429 -0 -0)
(435.019366949771 -0 -0)
(445.284945645075 -0 -0)
(455.665792110973 -0 -0)
(466.165209417381 -0 -0)
(476.786574775307 -0 -0)
(487.53334200157 -0 -0)
(498.409044261177 -0 -0)
(509.417296833025 -0 -0)
(520.561800082581 -0 -0)
(531.846342503913 -0 -0)
(543.274803955941 -0 -0)
(554.851158993181 -0 -0)
(566.579480482165 -0 -0)
(578.46394319177 -0 -0)
(590.508827760851 -0 -0)
(602.718524905857 -0 -0)
(615.097539981167 -0 -0)
(627.650497492307 -0 -0)
(640.38214457474 -0 -0)
(653.297353277053 -0 -0)
(666.401126518741 -0 -0)
(679.698619267321 -0 -0)
(693.195172583732 -0 -0)
(706.896298580189 -0 -0)
(720.807502918653 -0 -0)
(734.934026898201 -0 -0)
(749.281259371307 -0 -0)
(763.856774091484 -0 -0)
(778.671828582773 -0 -0)
(793.737336453414 -0 -0)
(809.061126810866 -0 -0)
(824.650162060795 -0 -0)
(840.511558261673 -0 -0)
(856.652674501107 -0 -0)
(873.08113821942 -0 -0)
(889.80486541028 -0 -0)
(906.832075989272 -0 -0)
(924.171308592883 -0 -0)
(941.831435974463 -0 -0)
(959.821681334558 -0 -0)
(978.151635597035 -0 -0)
(996.831275948503 -0 -0)
(1015.87098563237 -0 -0)
(1035.28157513862 -0 -0)
(1055.07430476086 -0 -0)
(1075.26090884919 -0 -0)
(1095.8536216713 -0 -0)
(1116.86520514475 -0 -0)
(1138.30897848927 -0 -0)
(1160.19885000018 -0 -0)
(1182.5493511254 -0 -0)
(1205.37567295809 -0 -0)
(1228.69370544179 -0 -0)
(1252.52007939931 -0 -0)
(1276.87221171414 -0 -0)
(1301.76835386579 -0 -0)
(1327.22764415878 -0 -0)
(1353.2701639203 -0 -0)
(1379.91699802581 -0 -0)
(1407.1903001471 -0 -0)
(1435.1133631631 -0 -0)
(1463.71069519422 -0 -0)
(1493.00810171214 -0 -0)
(1523.03277447268 -0 -0)
(1553.81338775542 -0 -0)
(1585.38020260962 -0 -0)
(1617.76518015092 -0 -0)
(1651.0021044216 -0 -0)
(1685.12671611682 -0 -0)
(1720.17685817224 -0 -0)
(1756.19263434144 -0 -0)
(1793.21658238265 -0 -0)
(1831.29386321945 -0 -0)
(1870.47246795847 -0 -0)
(1910.80344458826 -0 -0)
(1952.34114688264 -0 -0)
(1995.14350765029 -0 -0)
(2039.27233958533 -0 -0)
(2084.79366665566 -0 -0)
(2131.77808999861 -0 -0)
(2180.30119228126 -0 -0)
(2230.4439856488 -0 -0)
(2282.29340843665 -0 -0)
(2335.94287726733 -0 -0)
(2391.49290166015 -0 -0)
(2449.05176952726 -0 -0)
(2508.73631326864 -0 -0)
(2570.67276752566 -0 -0)
(2634.99773193817 -0 -0)
(2701.85925443251 -0 -0)
(2771.41804818668 -0 -0)
(2843.84887144577 -0 -0)
(2919.34209663451 -0 -0)
(2998.10546031981 -0 -0)
(3080.36606811523 -0 -0)
(3166.37277665875 -0 -0)
(3256.39879068559 -0 -0)
(3350.74430046844 -0 -0)
(3449.74054106194 -0 -0)
(3553.75472738018 -0 -0)
(3663.19104265551 -0 -0)
(3778.49602638849 -0 -0)
(3900.18166358431 -0 -0)
(4028.82818923206 -0 -0)
(4165.07031669636 -0 -0)
(4309.61864523219 -0 -0)
(4463.26221583468 -0 -0)
(4626.91234004212 -0 -0)
(4801.57033143272 -0 -0)
(4988.42090044842 -0 -0)
(5188.75295852564 -0 -0)
(5404.14844891534 -0 -0)
(5636.28948135628 -0 -0)
(5887.6704755038 -0 -0)
(6163.6094304018 -0 -0)
(6469.59593572091 -0 -0)
(6808.52255891898 -0 -0)
(7183.42463170086 -0 -0)
(7599.248603296 -0 -0)
(8063.52931879201 -0 -0)
(8585.30981133023 -0 -0)
(9175.02189766115 -0 -0)
(9843.76393787889 -0 -0)
(10597.9043853936 -0 -0)
(11443.8536233958 -0 -0)
(12399.010546167 -0 -0)
(13478.652731104 -0 -0)
(14685.0438544192 -0 -0)
(16031.334887924 -0 -0)
(17535.6025783563 -0 -0)
(19195.4194615796 -0 -0)
(21018.0446408791 -0 -0)
(23013.3493177835 -0 -0)
(25170.31700928 -0 -0)
(27486.1263129714 -0 -0)
(29958.9381646426 -0 -0)
(32565.1238057376 -0 -0)
(35290.4852095282 -0 -0)
(38127.7525270649 -0 -0)
(41045.8700095051 -0 -0)
(44018.7052704876 -0 -0)
(47038.249388357 -0 -0)
(50090.248806591 -0 -0)
(53148.7247872649 -0 -0)
(56197.2180230751 -0 -0)
(59235.3423920127 -0 -0)
(62262.0724923661 -0 -0)
(65280.8656433357 -0 -0)
(68287.4118395255 -0 -0)
(71280.4409188421 -0 -0)
(74284.8133244189 -0 -0)
(77310.6574878526 -0 -0)
(80357.7026214813 -0 -0)
(83417.7969984363 -0 -0)
(86472.1286735196 -0 -0)
(89508.1590351234 -0 -0)
(92517.3668384025 -0 -0)
(95497.3826009435 -0 -0)
(98448.2523912611 -0 -0)
(101371.497861811 -0 -0)
(104269.320838228 -0 -0)
(107144.326102409 -0 -0)
(109992.671141588 -0 -0)
(112809.899240106 -0 -0)
(115597.770345891 -0 -0)
(118358.868700884 -0 -0)
(121095.581910761 -0 -0)
(123810.149076477 -0 -0)
(126504.647260737 -0 -0)
(129181.020247346 -0 -0)
(131841.050646775 -0 -0)
(134486.407299099 -0 -0)
(137118.619387136 -0 -0)
(139739.129818529 -0 -0)
(142344.52342523 -0 -0)
(144931.419524957 -0 -0)
(147500.942389061 -0 -0)
(150054.228164737 -0 -0)
(152592.303990296 -0 -0)
(155116.149755033 -0 -0)
(157626.657041007 -0 -0)
(160124.680041241 -0 -0)
(162610.987613968 -0 -0)
(165086.319181144 -0 -0)
(167551.341890405 -0 -0)
(170006.704305691 -0 -0)
(172452.997287536 -0 -0)
(174890.804257747 -0 -0)
(177320.660068145 -0 -0)
(179743.095595205 -0 -0)
(182158.026113547 -0 -0)
(184562.78141661 -0 -0)
(186955.279924111 -0 -0)
(189335.98286064 -0 -0)
(191705.302565857 -0 -0)
(194063.65396287 -0 -0)
(196411.409914642 -0 -0)
(198748.949068347 -0 -0)
(201076.614328163 -0 -0)
(203394.756828685 -0 -0)
(205703.69688082 -0 -0)
(208003.762121899 -0 -0)
(210295.252284964 -0 -0)
(212578.473873151 -0 -0)
(214853.71015505 -0 -0)
(217121.246976475 -0 -0)
(219381.349081596 -0 -0)
(221634.283636408 -0 -0)
(223880.297097008 -0 -0)
(226119.639776312 -0 -0)
(228352.540073929 -0 -0)
(230579.23160283 -0 -0)
(232799.930136149 -0 -0)
(235014.857165369 -0 -0)
(237223.309952991 -0 -0)
(239423.492664022 -0 -0)
(241614.504360111 -0 -0)
(243796.571704251 -0 -0)
(245969.902232585 -0 -0)
(248134.711135253 -0 -0)
(250291.196345862 -0 -0)
(252439.563029423 -0 -0)
(254579.999261639 -0 -0)
(256712.700978911 -0 -0)
(258837.846822906 -0 -0)
(260955.622179692 -0 -0)
(263066.197838736 -0 -0)
(265169.752170777 -0 -0)
(267266.447477731 -0 -0)
(269356.45464824 -0 -0)
(271439.927825433 -0 -0)
(273517.029672866 -0 -0)
(275587.906926463 -0 -0)
(277652.712137226 -0 -0)
(279711.580481896 -0 -0)
(281764.655781487 -0 -0)
(283812.066105287 -0 -0)
(285853.948655449 -0 -0)
(287890.426875812 -0 -0)
(289921.631985021 -0 -0)
(291947.676520517 -0 -0)
(293968.68304912 -0 -0)
(295984.76136817 -0 -0)
(297996.025292696 -0 -0)
(300002.571468831 -0 -0)
(302004.503497533 -0 -0)
(304001.898134961 -0 -0)
(305994.843084456 -0 -0)
(307981.386606406 -0 -0)
)
;

boundaryField
{
    electrode
    {
        type            calculated;
        value           uniform (4.40873076286153 -0 -0);
    }
    ground
    {
        type            calculated;
        value           uniform (308972.281626466 -0 -0);
    }
    otherfaces
    {
        type            empty;
    }
}


// ************************************************************************* //
