/*--------------------------------*- C++ -*----------------------------------*\
| =========                 |                                                 |
| \\      /  F ield         | foam-extend: Open Source CFD                    |
|  \\    /   O peration     | Version:     4.0                                |
|   \\  /    A nd           | Web:         http://www.foam-extend.org         |
|    \\/     M anipulation  |                                                 |
\*---------------------------------------------------------------------------*/
FoamFile
{
    version     2.0;
    format      ascii;
    class       volVectorField;
    location    "6.6e-06";
    object      J_Arp1;
}
// * * * * * * * * * * * * * * * * * * * * * * * * * * * * * * * * * * * * * //

dimensions      [1 -1 -1 0 0 0 0];

internalField   nonuniform List<vector> 
300
(
(1.90837067215584e+16 -0 -0)
(6.88802950870218e+16 -0 -0)
(1.23239413997952e+17 -0 -0)
(1.71343169555201e+17 -0 -0)
(2.20158814760735e+17 -0 -0)
(2.69272285086555e+17 -0 -0)
(3.18257296783675e+17 -0 -0)
(3.67300079698535e+17 -0 -0)
(4.16372408545526e+17 -0 -0)
(4.65474133330493e+17 -0 -0)
(5.14612618527499e+17 -0 -0)
(5.63790264296431e+17 -0 -0)
(6.13010646387665e+17 -0 -0)
(6.62277329658594e+17 -0 -0)
(7.11593791188472e+17 -0 -0)
(7.60963544464462e+17 -0 -0)
(8.1039010153146e+17 -0 -0)
(8.59876976364308e+17 -0 -0)
(9.09427686835691e+17 -0 -0)
(9.59045753190741e+17 -0 -0)
(1.00873469821041e+18 -0 -0)
(1.05849804669576e+18 -0 -0)
(1.10833932473073e+18 -0 -0)
(1.15826205896983e+18 -0 -0)
(1.20826977610056e+18 -0 -0)
(1.2583660015452e+18 -0 -0)
(1.30855425819754e+18 -0 -0)
(1.35883806565229e+18 -0 -0)
(1.40922093814702e+18 -0 -0)
(1.45970638364575e+18 -0 -0)
(1.51029790145829e+18 -0 -0)
(1.56099898087178e+18 -0 -0)
(1.61181309877248e+18 -0 -0)
(1.66274371771987e+18 -0 -0)
(1.71379428331077e+18 -0 -0)
(1.76496822187459e+18 -0 -0)
(1.81626893788628e+18 -0 -0)
(1.86769981090963e+18 -0 -0)
(1.91926419281802e+18 -0 -0)
(1.97096540443224e+18 -0 -0)
(2.02280673269145e+18 -0 -0)
(2.07479142687915e+18 -0 -0)
(2.12692269522449e+18 -0 -0)
(2.17920370119395e+18 -0 -0)
(2.2316375595366e+18 -0 -0)
(2.28422733259555e+18 -0 -0)
(2.33697602583792e+18 -0 -0)
(2.38988658407733e+18 -0 -0)
(2.44296188690862e+18 -0 -0)
(2.49620474425923e+18 -0 -0)
(2.54961789185188e+18 -0 -0)
(2.60320398672933e+18 -0 -0)
(2.65696560220997e+18 -0 -0)
(2.71090522341967e+18 -0 -0)
(2.76502524189649e+18 -0 -0)
(2.81932795126777e+18 -0 -0)
(2.87381554160183e+18 -0 -0)
(2.92849009462996e+18 -0 -0)
(2.98335357841529e+18 -0 -0)
(3.03840784236549e+18 -0 -0)
(3.09365461180174e+18 -0 -0)
(3.14909548284404e+18 -0 -0)
(3.20473191688907e+18 -0 -0)
(3.2605652356987e+18 -0 -0)
(3.31659661545468e+18 -0 -0)
(3.37282708178419e+18 -0 -0)
(3.42925750502505e+18 -0 -0)
(3.48588859661093e+18 -0 -0)
(3.54272090387553e+18 -0 -0)
(3.59975479767036e+18 -0 -0)
(3.65699045088208e+18 -0 -0)
(3.71442783327238e+18 -0 -0)
(3.77206679386059e+18 -0 -0)
(3.82990722872478e+18 -0 -0)
(3.88794899036654e+18 -0 -0)
(3.94619085297222e+18 -0 -0)
(4.00462884912272e+18 -0 -0)
(4.06325820657151e+18 -0 -0)
(4.12208518692464e+18 -0 -0)
(4.18113733551586e+18 -0 -0)
(4.24043403146042e+18 -0 -0)
(4.29997666386518e+18 -0 -0)
(4.35976195317531e+18 -0 -0)
(4.41978595638436e+18 -0 -0)
(4.48004440468539e+18 -0 -0)
(4.54053283887851e+18 -0 -0)
(4.60124665240719e+18 -0 -0)
(4.6621810985066e+18 -0 -0)
(4.7233312877631e+18 -0 -0)
(4.78469218334872e+18 -0 -0)
(4.84625859598878e+18 -0 -0)
(4.90802517853509e+18 -0 -0)
(4.96998642132139e+18 -0 -0)
(5.03213664784409e+18 -0 -0)
(5.09447001113165e+18 -0 -0)
(5.1569804900109e+18 -0 -0)
(5.21966188642608e+18 -0 -0)
(5.2825078228474e+18 -0 -0)
(5.34551174028502e+18 -0 -0)
(5.40866689655985e+18 -0 -0)
(5.47196636507725e+18 -0 -0)
(5.53540303406436e+18 -0 -0)
(5.59896960596758e+18 -0 -0)
(5.66265859755014e+18 -0 -0)
(5.72646234003602e+18 -0 -0)
(5.79037297973297e+18 -0 -0)
(5.854382478945e+18 -0 -0)
(5.91848261724588e+18 -0 -0)
(5.98266499291778e+18 -0 -0)
(6.04692102472155e+18 -0 -0)
(6.1112419538233e+18 -0 -0)
(6.1756188459815e+18 -0 -0)
(6.24004259402056e+18 -0 -0)
(6.30450392011083e+18 -0 -0)
(6.36899337859073e+18 -0 -0)
(6.43350135873547e+18 -0 -0)
(6.49801808723875e+18 -0 -0)
(6.5625336314301e+18 -0 -0)
(6.62703790180416e+18 -0 -0)
(6.69152065487193e+18 -0 -0)
(6.7559714960155e+18 -0 -0)
(6.82037988185082e+18 -0 -0)
(6.88473512285577e+18 -0 -0)
(6.94902638555608e+18 -0 -0)
(7.01324269472284e+18 -0 -0)
(7.07737293484505e+18 -0 -0)
(7.14140585195662e+18 -0 -0)
(7.20533005443411e+18 -0 -0)
(7.2691340139164e+18 -0 -0)
(7.33280606535169e+18 -0 -0)
(7.39633440700794e+18 -0 -0)
(7.45970709938775e+18 -0 -0)
(7.52291206416371e+18 -0 -0)
(7.58593708190172e+18 -0 -0)
(7.64876978938521e+18 -0 -0)
(7.71139767625085e+18 -0 -0)
(7.77380808057423e+18 -0 -0)
(7.83598818405247e+18 -0 -0)
(7.89792500486573e+18 -0 -0)
(7.95960539155372e+18 -0 -0)
(8.02101602177253e+18 -0 -0)
(8.08214337042506e+18 -0 -0)
(8.1429737212653e+18 -0 -0)
(8.20349320114402e+18 -0 -0)
(8.26368763150707e+18 -0 -0)
(8.32354253020825e+18 -0 -0)
(8.3830435012832e+18 -0 -0)
(8.4421760518152e+18 -0 -0)
(8.50092339570342e+18 -0 -0)
(8.559270585822e+18 -0 -0)
(8.61720804614736e+18 -0 -0)
(8.67471068138252e+18 -0 -0)
(8.7317448237625e+18 -0 -0)
(8.78835134698851e+18 -0 -0)
(8.84454799925557e+18 -0 -0)
(8.90029694460141e+18 -0 -0)
(8.95563352287118e+18 -0 -0)
(9.01042803744807e+18 -0 -0)
(9.0648721390866e+18 -0 -0)
(9.11858492691215e+18 -0 -0)
(9.17212659283006e+18 -0 -0)
(9.22458612301918e+18 -0 -0)
(9.27729130726023e+18 -0 -0)
(9.32825204068768e+18 -0 -0)
(9.37959075207201e+18 -0 -0)
(9.43082918564925e+18 -0 -0)
(9.48069017753079e+18 -0 -0)
(9.52987368978294e+18 -0 -0)
(9.57899767446785e+18 -0 -0)
(9.62635437907212e+18 -0 -0)
(9.67516268398908e+18 -0 -0)
(9.72057834397593e+18 -0 -0)
(9.76890841459994e+18 -0 -0)
(9.81352021201988e+18 -0 -0)
(9.85817733557304e+18 -0 -0)
(9.89954450762633e+18 -0 -0)
(9.94825663727522e+18 -0 -0)
(9.98326273972802e+18 -0 -0)
(1.00237020765546e+19 -0 -0)
(1.00674119357023e+19 -0 -0)
(1.01013388722127e+19 -0 -0)
(1.01325441168387e+19 -0 -0)
(1.01782462676028e+19 -0 -0)
(1.01985164191133e+19 -0 -0)
(1.02358871142454e+19 -0 -0)
(1.02616932914196e+19 -0 -0)
(1.02922595042776e+19 -0 -0)
(1.03084122350079e+19 -0 -0)
(1.03468716505323e+19 -0 -0)
(1.03573715382678e+19 -0 -0)
(1.03886361581224e+19 -0 -0)
(1.04072241412226e+19 -0 -0)
(1.04407528888157e+19 -0 -0)
(1.0461515203029e+19 -0 -0)
(1.04993253892749e+19 -0 -0)
(1.05357447522118e+19 -0 -0)
(1.05901620627451e+19 -0 -0)
(1.06562269259862e+19 -0 -0)
(1.0754719562584e+19 -0 -0)
(1.09032811346763e+19 -0 -0)
(1.10981276104614e+19 -0 -0)
(1.1349536471819e+19 -0 -0)
(1.16071958884413e+19 -0 -0)
(1.18904308238488e+19 -0 -0)
(1.20796384216657e+19 -0 -0)
(1.22769629530211e+19 -0 -0)
(1.24061750252233e+19 -0 -0)
(1.25041391792271e+19 -0 -0)
(1.25807843032167e+19 -0 -0)
(1.2645019766139e+19 -0 -0)
(1.27010245403974e+19 -0 -0)
(1.27521636678244e+19 -0 -0)
(1.28008872249668e+19 -0 -0)
(1.28460859846732e+19 -0 -0)
(1.2893310964517e+19 -0 -0)
(1.29372041142689e+19 -0 -0)
(1.29841192035816e+19 -0 -0)
(1.30279310098602e+19 -0 -0)
(1.30753133914181e+19 -0 -0)
(1.31195641262044e+19 -0 -0)
(1.31676175935488e+19 -0 -0)
(1.32121911113349e+19 -0 -0)
(1.3260618386342e+19 -0 -0)
(1.33050991633534e+19 -0 -0)
(1.3353646506965e+19 -0 -0)
(1.33970137417126e+19 -0 -0)
(1.34460273060969e+19 -0 -0)
(1.34885995229088e+19 -0 -0)
(1.35370782906728e+19 -0 -0)
(1.35785957922625e+19 -0 -0)
(1.36263156874395e+19 -0 -0)
(1.36666230771664e+19 -0 -0)
(1.37134051247766e+19 -0 -0)
(1.37522357631392e+19 -0 -0)
(1.37977923785074e+19 -0 -0)
(1.38349045955412e+19 -0 -0)
(1.38790282384345e+19 -0 -0)
(1.39143018842095e+19 -0 -0)
(1.39569310021331e+19 -0 -0)
(1.39903503088348e+19 -0 -0)
(1.40314666411079e+19 -0 -0)
(1.40629732773774e+19 -0 -0)
(1.41022985552041e+19 -0 -0)
(1.41321722716801e+19 -0 -0)
(1.41698171230058e+19 -0 -0)
(1.4197651091063e+19 -0 -0)
(1.42336792674092e+19 -0 -0)
(1.4259515727996e+19 -0 -0)
(1.42939755505252e+19 -0 -0)
(1.43179074783421e+19 -0 -0)
(1.43508949788849e+19 -0 -0)
(1.43730534054971e+19 -0 -0)
(1.44046652848558e+19 -0 -0)
(1.44251618149253e+19 -0 -0)
(1.44554820335749e+19 -0 -0)
(1.44744388773259e+19 -0 -0)
(1.45035213975335e+19 -0 -0)
(1.45210040630855e+19 -0 -0)
(1.45488850009234e+19 -0 -0)
(1.45649302310592e+19 -0 -0)
(1.45916464458086e+19 -0 -0)
(1.46062594885545e+19 -0 -0)
(1.46318206095486e+19 -0 -0)
(1.46450537871626e+19 -0 -0)
(1.46695245855982e+19 -0 -0)
(1.46813693882153e+19 -0 -0)
(1.47049760649567e+19 -0 -0)
(1.47156998832822e+19 -0 -0)
(1.4738414973452e+19 -0 -0)
(1.47480028630037e+19 -0 -0)
(1.47699285660859e+19 -0 -0)
(1.47784736064716e+19 -0 -0)
(1.47996887750985e+19 -0 -0)
(1.48072645127664e+19 -0 -0)
(1.4827839742364e+19 -0 -0)
(1.48345080794038e+19 -0 -0)
(1.48544810146508e+19 -0 -0)
(1.48603104371521e+19 -0 -0)
(1.48797529782704e+19 -0 -0)
(1.48847894415512e+19 -0 -0)
(1.49037538669353e+19 -0 -0)
(1.49080345982274e+19 -0 -0)
(1.49265507763622e+19 -0 -0)
(1.49301125128433e+19 -0 -0)
(1.49481682355026e+19 -0 -0)
(1.49509760664161e+19 -0 -0)
(1.49685700558027e+19 -0 -0)
(1.4970639004322e+19 -0 -0)
(1.4987791079417e+19 -0 -0)
(1.49891676697912e+19 -0 -0)
(1.50058939850486e+19 -0 -0)
(1.50065229526234e+19 -0 -0)
(1.50227957613394e+19 -0 -0)
(1.50227302939124e+19 -0 -0)
(1.50385128040782e+19 -0 -0)
(1.50376491270455e+19 -0 -0)
(1.50528786048312e+19 -0 -0)
(1.50510037853944e+19 -0 -0)
(1.5065405990067e+19 -0 -0)
(1.50402737298456e+19 -0 -0)
)
;

boundaryField
{
    electrode
    {
        type            calculated;
        value           uniform (-13656823534.2037 -0 -0);
    }
    ground
    {
        type            calculated;
        value           uniform (1.50686232768838e+19 -0 -0);
    }
    otherfaces
    {
        type            empty;
    }
}


// ************************************************************************* //
