/*--------------------------------*- C++ -*----------------------------------*\
| =========                 |                                                 |
| \\      /  F ield         | foam-extend: Open Source CFD                    |
|  \\    /   O peration     | Version:     4.0                                |
|   \\  /    A nd           | Web:         http://www.foam-extend.org         |
|    \\/     M anipulation  |                                                 |
\*---------------------------------------------------------------------------*/
FoamFile
{
    version     2.0;
    format      ascii;
    class       volVectorField;
    location    "6.6e-06";
    object      J_electron;
}
// * * * * * * * * * * * * * * * * * * * * * * * * * * * * * * * * * * * * * //

dimensions      [1 -1 -1 0 0 0 0];

internalField   nonuniform List<vector> 
300
(
(-1.32016958286302e+19 0 0)
(-1.35483048613334e+19 0 0)
(-1.60057583771308e+19 0 0)
(-1.55202732545517e+19 0 0)
(-1.55202898269782e+19 0 0)
(-1.55064081034596e+19 0 0)
(-1.5443509767144e+19 0 0)
(-1.53963468878963e+19 0 0)
(-1.53467813670778e+19 0 0)
(-1.52965889470828e+19 0 0)
(-1.52467304203228e+19 0 0)
(-1.51967352975334e+19 0 0)
(-1.51466940033303e+19 0 0)
(-1.50966085127674e+19 0 0)
(-1.50464655510595e+19 0 0)
(-1.49962643239255e+19 0 0)
(-1.49460007737459e+19 0 0)
(-1.48956709601076e+19 0 0)
(-1.48452712529313e+19 0 0)
(-1.47947978310655e+19 0 0)
(-1.47442469522948e+19 0 0)
(-1.46936148973492e+19 0 0)
(-1.46428979354927e+19 0 0)
(-1.45920922985852e+19 0 0)
(-1.45411943187715e+19 0 0)
(-1.4490200318267e+19 0 0)
(-1.44391065409554e+19 0 0)
(-1.43879094128405e+19 0 0)
(-1.43366051890817e+19 0 0)
(-1.42851903237476e+19 0 0)
(-1.42336611375765e+19 0 0)
(-1.41820140793946e+19 0 0)
(-1.41302455374593e+19 0 0)
(-1.40783520133404e+19 0 0)
(-1.40263299630257e+19 0 0)
(-1.39741758865354e+19 0 0)
(-1.39218863614567e+19 0 0)
(-1.38694579400987e+19 0 0)
(-1.38168872662447e+19 0 0)
(-1.37641709206032e+19 0 0)
(-1.3711305641124e+19 0 0)
(-1.36582881468672e+19 0 0)
(-1.36051152144974e+19 0 0)
(-1.35517836768287e+19 0 0)
(-1.34982903804652e+19 0 0)
(-1.34446323037351e+19 0 0)
(-1.33908063571597e+19 0 0)
(-1.33368096241015e+19 0 0)
(-1.32826392119017e+19 0 0)
(-1.32282922853364e+19 0 0)
(-1.31737660517853e+19 0 0)
(-1.31190578657742e+19 0 0)
(-1.30641650552498e+19 0 0)
(-1.30090851375847e+19 0 0)
(-1.29538155583185e+19 0 0)
(-1.28983540171035e+19 0 0)
(-1.28426981676312e+19 0 0)
(-1.27868458337302e+19 0 0)
(-1.2730794854542e+19 0 0)
(-1.26745432321703e+19 0 0)
(-1.26180890287501e+19 0 0)
(-1.25614304464575e+19 0 0)
(-1.25045656966519e+19 0 0)
(-1.24474932455004e+19 0 0)
(-1.23902115085594e+19 0 0)
(-1.23327190177122e+19 0 0)
(-1.22750143522779e+19 0 0)
(-1.2217096407835e+19 0 0)
(-1.21589649579959e+19 0 0)
(-1.21006204381008e+19 0 0)
(-1.20420608070687e+19 0 0)
(-1.19832757462232e+19 0 0)
(-1.1924251301361e+19 0 0)
(-1.18650077512113e+19 0 0)
(-1.18056520238852e+19 0 0)
(-1.17462953990687e+19 0 0)
(-1.16866141859183e+19 0 0)
(-1.16253897316578e+19 0 0)
(-1.15617199837146e+19 0 0)
(-1.14981957571557e+19 0 0)
(-1.14365465114255e+19 0 0)
(-1.13753897365778e+19 0 0)
(-1.13141327402332e+19 0 0)
(-1.12526475416122e+19 0 0)
(-1.11908946131388e+19 0 0)
(-1.11288642713944e+19 0 0)
(-1.10665555165257e+19 0 0)
(-1.10039699361696e+19 0 0)
(-1.09411097806892e+19 0 0)
(-1.0877977436429e+19 0 0)
(-1.08145753659901e+19 0 0)
(-1.07509058925583e+19 0 0)
(-1.06869712766653e+19 0 0)
(-1.06227736461574e+19 0 0)
(-1.05583150725406e+19 0 0)
(-1.04935974306285e+19 0 0)
(-1.04286225067168e+19 0 0)
(-1.03633918969061e+19 0 0)
(-1.0297907057195e+19 0 0)
(-1.02321692453519e+19 0 0)
(-1.01661794987399e+19 0 0)
(-1.00999386578336e+19 0 0)
(-1.00334472643e+19 0 0)
(-9.96670561730848e+18 0 0)
(-9.89971368646227e+18 0 0)
(-9.83247110737756e+18 0 0)
(-9.76497712218191e+18 0 0)
(-9.69723057302667e+18 0 0)
(-9.62922983430868e+18 0 0)
(-9.56097277743543e+18 0 0)
(-9.4924567107548e+18 0 0)
(-9.42367831277647e+18 0 0)
(-9.35463363062111e+18 0 0)
(-9.28531790523322e+18 0 0)
(-9.21572558604337e+18 0 0)
(-9.14585026425258e+18 0 0)
(-9.07568443293486e+18 0 0)
(-9.00521960702371e+18 0 0)
(-8.93444602926308e+18 0 0)
(-8.86335262128603e+18 0 0)
(-8.79192690595935e+18 0 0)
(-8.72015473406902e+18 0 0)
(-8.64802023161148e+18 0 0)
(-8.57550554596429e+18 0 0)
(-8.5025907354564e+18 0 0)
(-8.42925339555345e+18 0 0)
(-8.35546860744029e+18 0 0)
(-8.2812084610977e+18 0 0)
(-8.20644191956684e+18 0 0)
(-8.13113432548783e+18 0 0)
(-8.05524715804662e+18 0 0)
(-7.97873744590091e+18 0 0)
(-7.9015574466404e+18 0 0)
(-7.82365396238913e+18 0 0)
(-7.7449677937857e+18 0 0)
(-7.66543304458817e+18 0 0)
(-7.58497632548448e+18 0 0)
(-7.50351590587787e+18 0 0)
(-7.420960660457e+18 0 0)
(-7.33720862687494e+18 0 0)
(-7.25214735841257e+18 0 0)
(-7.16564980476045e+18 0 0)
(-7.07757135584664e+18 0 0)
(-6.98775994805151e+18 0 0)
(-6.89604141584482e+18 0 0)
(-6.80219407126784e+18 0 0)
(-6.70599880344024e+18 0 0)
(-6.60731343568844e+18 0 0)
(-6.50570618982892e+18 0 0)
(-6.40057607141615e+18 0 0)
(-6.29245733694341e+18 0 0)
(-6.1809491611998e+18 0 0)
(-6.06096824911423e+18 0 0)
(-5.93350935291783e+18 0 0)
(-5.80455198804882e+18 0 0)
(-5.66945825127871e+18 0 0)
(-5.53114619378926e+18 0 0)
(-5.37920531056611e+18 0 0)
(-5.22757737857575e+18 0 0)
(-5.05302237325453e+18 0 0)
(-4.88326240068226e+18 0 0)
(-4.6704533740758e+18 0 0)
(-4.44901494153124e+18 0 0)
(-4.10269377489587e+18 0 0)
(-3.27369182708184e+18 0 0)
(-2.54971199036483e+18 0 0)
(-2.43539581831794e+18 0 0)
(-2.36195114649544e+18 0 0)
(-2.06223999144926e+18 0 0)
(-1.46598451832842e+18 0 0)
(-8.32366785794671e+17 0 0)
(-2.68178635280613e+17 0 0)
(1.10089937880089e+17 0 0)
(-3.6720039961926e+17 0 0)
(-1.00283041862124e+18 0 0)
(-5.58695708924838e+17 0 0)
(-6.46483538468667e+17 0 0)
(-2.12489720462154e+18 0 0)
(-2.44649839557398e+18 0 0)
(-2.72070905407786e+18 0 0)
(-4.26304411574836e+18 0 0)
(-4.5429419516908e+18 0 0)
(-4.18618935343055e+18 0 0)
(-4.33154059316337e+18 0 0)
(-3.11952660093311e+18 0 0)
(-1.16065119575422e+18 0 0)
(7.02398695741587e+17 0 0)
(3.45357135585634e+18 0 0)
(6.45220371351523e+18 0 0)
(8.77235459762789e+18 0 0)
(1.07811530251667e+19 0 0)
(1.22688869272188e+19 0 0)
(1.26318190664286e+19 0 0)
(1.32446274415255e+19 0 0)
(1.03920341796346e+19 0 0)
(9.63145148136174e+18 0 0)
(7.45728191716157e+18 0 0)
(5.47827947042977e+18 0 0)
(8.35930870781225e+18 0 0)
(-5.13755033358605e+18 0 0)
(2.09244064149108e+18 0 0)
(-5.14193109833433e+17 0 0)
(-2.21394661329474e+18 0 0)
(-2.15612792139942e+18 0 0)
(-2.09684357981003e+18 0 0)
(-2.20081866540242e+18 0 0)
(-2.46392982426011e+18 0 0)
(-2.72513339934497e+18 0 0)
(-2.88848746172667e+18 0 0)
(-2.9726188276498e+18 0 0)
(-2.99893108672299e+18 0 0)
(-2.98948170753981e+18 0 0)
(-2.96935059611832e+18 0 0)
(-2.93454058216024e+18 0 0)
(-2.89853082988278e+18 0 0)
(-2.85946640428577e+18 0 0)
(-2.81589676958987e+18 0 0)
(-2.76968538743536e+18 0 0)
(-2.72319448339868e+18 0 0)
(-2.67565565938353e+18 0 0)
(-2.62896749170481e+18 0 0)
(-2.5815617726508e+18 0 0)
(-2.53392568403964e+18 0 0)
(-2.4859358472984e+18 0 0)
(-2.43794094374674e+18 0 0)
(-2.39001794311249e+18 0 0)
(-2.34226738826381e+18 0 0)
(-2.29479686830474e+18 0 0)
(-2.24769338081033e+18 0 0)
(-2.20103711591168e+18 0 0)
(-2.15490081104769e+18 0 0)
(-2.10934990056968e+18 0 0)
(-2.0644431678387e+18 0 0)
(-2.02023217775624e+18 0 0)
(-1.97676224704977e+18 0 0)
(-1.9340714697609e+18 0 0)
(-1.89219365600437e+18 0 0)
(-1.85114779328055e+18 0 0)
(-1.81097644652971e+18 0 0)
(-1.7715548231321e+18 0 0)
(-1.7332368581794e+18 0 0)
(-1.6957563127736e+18 0 0)
(-1.65914218432378e+18 0 0)
(-1.62341791796455e+18 0 0)
(-1.58858795452934e+18 0 0)
(-1.5546471829733e+18 0 0)
(-1.52158699523767e+18 0 0)
(-1.48939578541187e+18 0 0)
(-1.45806005541869e+18 0 0)
(-1.42756432800919e+18 0 0)
(-1.39789195283579e+18 0 0)
(-1.36902465282824e+18 0 0)
(-1.34094496474551e+18 0 0)
(-1.31362964759317e+18 0 0)
(-1.28708463249841e+18 0 0)
(-1.26118819947603e+18 0 0)
(-1.23606369338653e+18 0 0)
(-1.21165812885802e+18 0 0)
(-1.1878412588481e+18 0 0)
(-1.16469861817402e+18 0 0)
(-1.14217493023077e+18 0 0)
(-1.12025616330087e+18 0 0)
(-1.09892081741871e+18 0 0)
(-1.07815005821024e+18 0 0)
(-1.05792610771026e+18 0 0)
(-1.03823083915516e+18 0 0)
(-1.01904378289657e+18 0 0)
(-1.00034875964471e+18 0 0)
(-9.82123451104182e+17 0 0)
(-9.64368315847611e+17 0 0)
(-9.46932696443973e+17 0 0)
(-9.3015600660822e+17 0 0)
(-9.13704335459623e+17 0 0)
(-8.97645861584958e+17 0 0)
(-8.81971955304599e+17 0 0)
(-8.6667598167122e+17 0 0)
(-8.51746537674836e+17 0 0)
(-8.37172498664083e+17 0 0)
(-8.22942930602847e+17 0 0)
(-8.09046276956836e+17 0 0)
(-7.95473766575205e+17 0 0)
(-7.82200468072977e+17 0 0)
(-7.69246741398299e+17 0 0)
(-7.56321426011427e+17 0 0)
(-7.44238966810817e+17 0 0)
(-7.32236224905359e+17 0 0)
(-7.20493210381278e+17 0 0)
(-7.09004774369597e+17 0 0)
(-6.97747363769041e+17 0 0)
(-6.86522379898236e+17 0 0)
(-6.76346834025997e+17 0 0)
(-6.66037051563522e+17 0 0)
(-6.55657438382035e+17 0 0)
(-6.46240051273184e+17 0 0)
(-6.3690641038262e+17 0 0)
(-6.27935278135722e+17 0 0)
(-6.19757088836438e+17 0 0)
(-6.12685029316616e+17 0 0)
(-6.0635556888835e+17 0 0)
(-5.95646716398625e+17 0 0)
)
;

boundaryField
{
    electrode
    {
        type            calculated;
        value           uniform (-1.57720087051508e+19 0 0);
    }
    ground
    {
        type            calculated;
        value           uniform (-5.9301914234257e+17 0 0);
    }
    otherfaces
    {
        type            empty;
    }
}


// ************************************************************************* //
