/*--------------------------------*- C++ -*----------------------------------*\
| =========                 |                                                 |
| \\      /  F ield         | foam-extend: Open Source CFD                    |
|  \\    /   O peration     | Version:     4.0                                |
|   \\  /    A nd           | Web:         http://www.foam-extend.org         |
|    \\/     M anipulation  |                                                 |
\*---------------------------------------------------------------------------*/
FoamFile
{
    version     2.0;
    format      ascii;
    class       volScalarField;
    location    "6.6e-06";
    object      Te;
}
// * * * * * * * * * * * * * * * * * * * * * * * * * * * * * * * * * * * * * //

dimensions      [0 0 0 1 0 0 0];

internalField   nonuniform List<scalar> 
300
(
40201.881140228
40202.176097217
40202.3552062195
40202.4633895601
40202.6334867117
40202.8399635971
40203.08619532
40203.3739615278
40203.7025249006
40204.07203882
40204.4825138551
40204.9339392639
40205.4263301673
40205.9597019604
40206.5340759454
40207.1494795025
40207.8059456102
40208.5035130408
40209.2422263674
40210.0221359885
40210.8432981699
40211.7057750788
40212.6096348262
40213.5549515163
40214.5418052932
40215.5702823914
40216.6404751985
40217.7524823122
40218.9064086061
40220.1023652995
40221.3404700283
40222.6208469251
40223.9436266991
40225.3089467225
40226.7169511199
40228.1677908668
40229.661623886
40231.1986151532
40232.7789368078
40234.4027682691
40236.0702963562
40237.7817154122
40239.5372274376
40241.3370422265
40243.1813775118
40245.0704591137
40247.0045210967
40248.983805934
40251.0085646738
40253.0790571177
40255.1955520075
40257.358327214
40259.5676699391
40261.8238769225
40264.1272546616
40266.4781196355
40268.8767985386
40271.323628528
40273.8189574781
40276.3631442458
40278.9565589462
40281.5995832392
40284.2926106321
40287.0360467888
40289.8303098539
40292.675830801
40295.5730537895
40298.5224365222
40301.5244505696
40304.5795816889
40307.6883303624
40310.8512129093
40314.0687627045
40317.3415287893
40320.670068812
40324.0549436777
40327.4967449725
40330.9961801002
40334.554111855
40338.1713185104
40341.8483298971
40345.5856788579
40349.3840455558
40353.2441791274
40357.1668632642
40361.1529095196
40365.2031557277
40369.318466209
40373.4997325374
40377.7478745116
40382.0638412171
40386.4486121572
40390.903198451
40395.4286440911
40400.0260272625
40404.6964617356
40409.4410983327
40414.2611264693
40419.1577757822
40424.132317844
40429.1860679757
40434.3203871588
40439.5366840586
40444.8364171621
40450.2210970414
40455.6922887517
40461.2516143731
40466.9007557067
40472.6414571364
40478.4755286692
40484.4048491703
40490.4313698052
40496.5571177034
40502.7841998686
40509.1148073515
40515.5512196995
40522.0958097247
40528.7510486012
40535.519511323
40542.4038825673
40549.406962979
40556.5316759315
40563.7810748034
40571.1583508156
40578.6668414845
40586.3100397579
40594.0916038921
40602.01536815
40610.0853544069
40618.3057847552
40626.6810952159
40635.2159506814
40643.9152612211
40652.7841999053
40661.8282223311
40671.0530880394
40680.464884057
40690.0700508247
40699.8754108124
40709.8882002059
40720.1161038776
40730.5672943532
40741.2504756605
40752.1749310073
40763.3505761978
40774.7880239292
40786.4986523719
40798.4946659098
40810.7892010304
40823.3964782405
40836.3317802342
40849.6115316385
40863.2542145758
40877.2803998578
40891.7113505619
40906.5699478608
40921.8813657617
40937.674255855
40953.9794166793
40970.8321727114
40988.2707099195
41006.3407237935
41025.0955539809
41044.6101411531
41065.062746801
41086.6093781758
41109.192247556
41132.756542775
41157.4346955313
41183.4628529552
41211.0695752432
41240.4249835525
41271.6674380229
41304.7283431548
41339.5200776197
41376.5798492003
41416.4561407615
41458.8532159701
41504.0377212652
41553.0303509904
41605.9137921259
41663.3354463799
41727.3777625717
41799.6439390839
41882.7496027357
41981.6451844791
42101.9531535245
42251.8423489869
42444.0583418848
42694.6825258905
43025.6002873537
43469.1852678515
44069.741904045
44894.7590952124
46025.9875506005
47581.5412004255
49771.238049846
52860.6025587586
57407.2624412744
63272.9765674728
70802.8060582986
82904.5176014123
99630.0620590178
122526.630578473
154279.695224074
196919.793589921
250686.391144326
312849.446889653
378693.320344459
443517.839466849
503965.658808791
558443.341588487
606490.947590249
648399.280707328
684837.178974345
716471.954579081
744059.731085359
768305.038642001
789770.838353227
808912.877440241
826088.552342843
841593.222393234
855694.667865708
868611.740953433
880525.032852899
891581.152177428
901901.638620613
911587.01899621
920720.469475071
929370.923084901
937595.41385536
945440.967376725
952946.119918502
960142.153327075
967054.103434519
973701.594750783
980099.512394507
986258.681062639
992186.04690713
997887.170238342
1003360.87731449
1008601.99044302
1013608.07003875
1018373.93924941
1022891.9083582
1027152.34524941
1031143.98192021
1034854.1009812
1038268.69180948
1041372.58634413
1044149.58117223
1046582.55292817
1048653.53144233
1050343.86453876
1051633.72469544
1052503.56675398
1052922.79311814
1052892.61838057
1052379.54568959
1051363.20496585
1049820.86897481
1047730.31444103
1045068.88307259
1041813.64806408
1037941.31652326
1033428.21289477
1028250.37827158
1022383.53337688
1015803.14226125
1008483.82044613
1000403.85002308
991535.19395335
981847.840543274
971318.20327969
959917.863677281
947616.744768405
934383.068548679
920183.370909246
904982.277796284
888742.2792402
871423.341938603
852983.147600809
833375.34998476
812561.268473844
790485.672162528
767084.707358853
742300.714430707
716055.766126692
688263.001141661
658838.87564003
627673.254818973
594632.533281771
559581.167661786
522329.959973862
482646.591161385
440244.347843367
394725.466836081
345526.447092574
291829.907571436
232564.578958526
)
;

boundaryField
{
    electrode
    {
        type            electronTemperature;
        seec            0.05;
        Tse             1000;
        Edepend         1;
        TFN             1000;
        field_emission  0;
        field_enhancement_factor 55;
        work_function   5;
        value           uniform 40201.881140228;
    }
    ground
    {
        type            electronTemperature;
        seec            0.05;
        Tse             1000;
        Edepend         1;
        TFN             1000;
        field_emission  0;
        field_enhancement_factor 55;
        work_function   5;
        value           uniform 198952.386807593;
    }
    otherfaces
    {
        type            empty;
    }
}


// ************************************************************************* //
