/*--------------------------------*- C++ -*----------------------------------*\
| =========                 |                                                 |
| \\      /  F ield         | foam-extend: Open Source CFD                    |
|  \\    /   O peration     | Version:     4.0                                |
|   \\  /    A nd           | Web:         http://www.foam-extend.org         |
|    \\/     M anipulation  |                                                 |
\*---------------------------------------------------------------------------*/
FoamFile
{
    version     2.0;
    format      ascii;
    class       volScalarField;
    location    "6.6e-06";
    object      TeMean;
}
// * * * * * * * * * * * * * * * * * * * * * * * * * * * * * * * * * * * * * //

dimensions      [0 0 0 1 0 0 0];

internalField   nonuniform List<scalar> 
300
(
35408.9601574602
35409.2530324113
35409.3821146407
35409.3817913187
35409.4011009939
35409.4192820477
35409.4392354792
35409.4637426792
35409.4928157768
35409.527095975
35409.5671317409
35409.6134379821
35409.6665235037
35409.7268660758
35409.7949292141
35409.8711607912
35409.9559917154
35410.0498405663
35410.1531131492
35410.2662023204
35410.3894906854
35410.5233485694
35410.6681363369
35410.8242036999
35410.991889331
35411.1715315348
35411.3634611827
35411.5679991581
35411.7854646976
35412.0161641399
35412.2603896888
35412.5184431946
35412.7906338022
35413.077258957
35413.3786098564
35413.6949675805
35414.0266108908
35414.3738248364
35414.7368923347
35415.1160898271
35415.511689218
35415.9239689008
35416.3532058842
35416.7996731103
35417.2636429021
35417.7453867404
35418.2451748632
35418.7632754149
35419.299951369
35419.8554604864
35420.4300555761
35421.0239987825
35421.6375697018
35422.2710476559
35422.924716435
35423.598870144
35424.2937979356
35425.0097860162
35425.7471302868
35426.5061303109
35427.2870878873
35428.0903159364
35428.9161151114
35429.7647838221
35430.6366525522
35431.5320695838
35432.4513831236
35433.3949433564
35434.3631061872
35435.3562381267
35436.374708623
35437.418881744
35438.4891414963
35439.5858883525
35440.7095187173
35441.8604276327
35443.0390360534
35444.2457979828
35445.4811624504
35446.7455792258
35448.0395339428
35449.3635299392
35450.7180668365
35452.1036473629
35453.5207869075
35454.9700357808
35456.4519752305
35457.9671909438
35459.5162755691
35461.099848011
35462.7185325149
35464.3729702695
35466.0638666669
35467.791932523
35469.5578885327
35471.3624990893
35473.2065447252
35475.0908329807
35477.0161938525
35478.98348896
35480.9936268765
35483.0475200391
35485.1461108773
35487.2904097398
35489.4814582267
35491.7203292166
35494.0081309825
35496.3460160529
35498.7351939402
35501.1769185715
35503.6724935526
35506.223272213
35508.8306542135
35511.496116914
35514.2211881959
35517.0074462756
35519.8565323534
35522.770179858
35525.7502187028
35528.7985198825
35531.9170321047
35535.1078055771
35538.3729794851
35541.7148102941
35545.1356843182
35548.63808481
35552.2245916394
35555.8979322965
35559.6609869317
35563.5167599238
35567.4684085525
35571.5192770788
35575.6729031858
35579.9329775203
35584.3033895202
35588.7883201313
35593.3922154081
35598.1197753318
35602.9759909137
35607.9661809427
35613.0960209274
35618.3715654998
35623.7992817189
35629.386081181
35635.1394060614
35641.0673134859
35647.1785126666
35653.4824414903
35659.9892808321
35666.7100863405
35673.6569912476
35680.8432484886
35688.2833858968
35695.9934662804
35703.9911612776
35712.2961277688
35720.9302552895
35729.9184042312
35739.2889593286
35749.0763887345
35759.331691903
35770.1213427959
35781.5065238431
35793.5474285237
35806.3145851053
35819.8707686081
35834.2884062551
35849.6866656352
35866.213099969
35883.9992391956
35903.125403733
35923.6685495867
35945.7470564702
35969.3959082625
35994.6846328343
36021.8806948421
36051.1038843736
36082.537545402
36116.9646631175
36155.4356072104
36199.5501051545
36252.4268096357
36318.709611909
36405.2502758004
36522.9297521201
36687.6098601045
36922.228459682
37261.1164223976
37755.1694623376
38480.9474813066
39556.3979252417
41167.2862937498
43613.5521402939
47469.5208554741
53316.305803018
61558.2494573835
73541.9310750795
89925.9456804556
111931.702139531
139958.415959229
174098.175541634
213607.526475057
257295.385682028
304120.715358438
353141.445500107
403357.296712059
453475.283538847
501922.560884529
547278.717822653
588625.438459147
625605.093109391
658303.9774827
687082.470764416
712423.16898548
734802.632332591
754667.42866097
772435.792632043
788459.849176323
803023.874198276
816361.317945438
828658.105512841
840066.610921377
850723.567218719
860741.793540669
870213.01333541
879212.420795767
887801.985645871
896032.521275099
903945.463188761
911574.395480704
918946.222971707
926082.135053504
932998.390867822
939706.895378145
946215.780992695
952529.920909029
958651.255750509
964579.140752934
970310.621849831
975840.776713247
981162.85242919
986267.936791246
991145.630631881
995784.764454058
1000173.09407672
1004297.39947364
1008143.31810756
1011695.67816896
1014938.72377004
1017855.84555707
1020430.32831904
1022645.1882027
1024482.76366548
1025925.04417565
1026953.46128787
1027549.12024755
1027688.35853608
1027360.81794989
1026547.46859132
1025225.94355905
1023376.49912204
1020979.2093168
1018014.1321826
1014461.11817388
1010299.77724806
1005509.80081898
1000070.20320717
993959.447839229
987156.305131649
979639.03470085
971385.010493697
962370.527515735
952571.805174116
941964.305625302
930521.673753448
918216.271477194
905018.99425873
890899.108590572
875824.072269451
859759.257718043
842667.836980091
824510.542042983
805249.388652157
784840.358601061
763229.487010187
740362.898130268
716179.048525812
690602.99842271
663560.134792836
634964.296744133
604707.588930004
572668.493415567
538710.767794322
502652.229858944
464272.639588088
423294.20071444
379325.600806318
331828.883868834
280018.400793222
222857.570312614
)
;

boundaryField
{
    electrode
    {
        type            calculated;
        value           uniform 35408.960157462;
    }
    ground
    {
        type            calculated;
        value           uniform 190442.595994095;
    }
    otherfaces
    {
        type            empty;
    }
}


// ************************************************************************* //
