/*--------------------------------*- C++ -*----------------------------------*\
| =========                 |                                                 |
| \\      /  F ield         | foam-extend: Open Source CFD                    |
|  \\    /   O peration     | Version:     4.0                                |
|   \\  /    A nd           | Web:         http://www.foam-extend.org         |
|    \\/     M anipulation  |                                                 |
\*---------------------------------------------------------------------------*/
FoamFile
{
    version     2.0;
    format      ascii;
    class       volScalarField;
    location    "4.9e-06";
    object      Arm;
}
// * * * * * * * * * * * * * * * * * * * * * * * * * * * * * * * * * * * * * //

dimensions      [0 0 0 1 0 0 0];

internalField   nonuniform List<scalar> 
300
(
3.57413608438342e+15
3.57601292670468e+15
3.57796155560768e+15
3.57926756212061e+15
3.58008379302533e+15
3.58046232474782e+15
3.58044736363276e+15
3.58007034856148e+15
3.57935693809331e+15
3.5783291162082e+15
3.57700265711279e+15
3.5753916469095e+15
3.57350813883541e+15
3.57136273551398e+15
3.5689648939899e+15
3.56632315917377e+15
3.56344235405017e+15
3.56033106549474e+15
3.55699763505868e+15
3.55344854216082e+15
3.54968998826012e+15
3.54572789504117e+15
3.54156795252768e+15
3.53721560867607e+15
3.53266018630375e+15
3.52791942465488e+15
3.52299702660063e+15
3.51789500695549e+15
3.5126269591982e+15
3.50719776494134e+15
3.50159366340826e+15
3.49582602980135e+15
3.48991297165328e+15
3.48385987154533e+15
3.47767181573467e+15
3.47135360595498e+15
3.46490541559883e+15
3.45833376114754e+15
3.45164571180309e+15
3.44484480282947e+15
3.43793453780633e+15
3.43092019310299e+15
3.4238056495709e+15
3.41659459879316e+15
3.40929054096413e+15
3.40189673988998e+15
3.39441414007723e+15
3.38684419025577e+15
3.37917912623992e+15
3.37141753884744e+15
3.36354682291713e+15
3.35557948592513e+15
3.34751013231185e+15
3.33935648295494e+15
3.33112667026043e+15
3.3228370663543e+15
3.3144909714726e+15
3.30609130176712e+15
3.29764062939323e+15
3.28913937197253e+15
3.28059184529701e+15
3.27200016069259e+15
3.2633609737405e+15
3.25465631900831e+15
3.24589017479689e+15
3.23708813009078e+15
3.22825227667869e+15
3.21938445430046e+15
3.21048624878801e+15
3.20155901982962e+15
3.19260192219188e+15
3.18360780371745e+15
3.17457512724663e+15
3.16551134118404e+15
3.15640289991589e+15
3.1472508630032e+15
3.1380615753681e+15
3.12883090376349e+15
3.11957883492574e+15
3.1102747975123e+15
3.10095338773078e+15
3.09161672922378e+15
3.08226173685343e+15
3.07289067335173e+15
3.06348871524006e+15
3.05406360623402e+15
3.04462705347033e+15
3.03517937735616e+15
3.02570866410726e+15
3.01622267143443e+15
3.00671538708661e+15
2.99714174172543e+15
2.98755702421841e+15
2.97796286755921e+15
2.96835930052709e+15
2.95874634927655e+15
2.9491237955032e+15
2.93949120768318e+15
2.92983764739766e+15
2.9201630540648e+15
2.91047369207733e+15
2.9007708442993e+15
2.89102273513228e+15
2.88125860270571e+15
2.87146922339031e+15
2.86164524930538e+15
2.85180171035609e+15
2.84191898597548e+15
2.8320075045268e+15
2.82207271796914e+15
2.81211275541583e+15
2.80212533093808e+15
2.79210270273261e+15
2.78204265919231e+15
2.77194298146066e+15
2.76178601569975e+15
2.75155287009936e+15
2.74126835236161e+15
2.73093333411287e+15
2.72053973669426e+15
2.71006116488539e+15
2.69951059044708e+15
2.6888590153509e+15
2.67811683830485e+15
2.66729549200129e+15
2.65639277709135e+15
2.64538057383216e+15
2.63427632584054e+15
2.62306920111969e+15
2.61175716118771e+15
2.60032455985631e+15
2.58876752863653e+15
2.57708107191322e+15
2.5652391014304e+15
2.55320514570511e+15
2.54099806794316e+15
2.52862179308046e+15
2.51605127394335e+15
2.50326764974049e+15
2.49028004760318e+15
2.47707247785546e+15
2.46362828703101e+15
2.44991532823856e+15
2.43590150194026e+15
2.4215621911429e+15
2.40691720484419e+15
2.39195167199854e+15
2.3766492301233e+15
2.36097934235808e+15
2.34489310970839e+15
2.32840297280289e+15
2.31148418346463e+15
2.29407446287688e+15
2.27617263196884e+15
2.25776043592874e+15
2.23878814123213e+15
2.21921249330597e+15
2.19903294737068e+15
2.17823035865265e+15
2.15675976302668e+15
2.13458555292325e+15
2.11169264200282e+15
2.08804276946745e+15
2.06364848731922e+15
2.03849680260604e+15
2.012533132942e+15
1.98577830530764e+15
1.95827689299783e+15
1.93005786067907e+15
1.90116317612225e+15
1.87166144820401e+15
1.84158599326933e+15
1.81102919203947e+15
1.7801625623715e+15
1.74918005734444e+15
1.71825152120242e+15
1.68755613837595e+15
1.65729290612736e+15
1.6277006398811e+15
1.59893490140966e+15
1.57114996830169e+15
1.54449288966109e+15
1.51904500787517e+15
1.49492112515996e+15
1.47212109544188e+15
1.45055465151873e+15
1.43026157251882e+15
1.41119115150672e+15
1.39325711936332e+15
1.37637773691094e+15
1.36045592164328e+15
1.34553383791572e+15
1.33207173867765e+15
1.32504658450884e+15
1.35048224442366e+15
1.41495527089578e+15
1.49059226312791e+15
1.54452064935489e+15
1.57656635907297e+15
1.59223830310945e+15
1.58929937773531e+15
1.56916288559728e+15
1.53923939234322e+15
1.50690388549628e+15
1.47788361491508e+15
1.45472484040856e+15
1.43708021445873e+15
1.42441695032905e+15
1.41556071720041e+15
1.40932442438538e+15
1.40431828633003e+15
1.4001760045853e+15
1.39666649564353e+15
1.39315313701781e+15
1.38965969459754e+15
1.38617438107744e+15
1.38253276092918e+15
1.37867384999759e+15
1.37452606801e+15
1.37005580374577e+15
1.36525660289028e+15
1.36006117197816e+15
1.35437384645554e+15
1.34820559043317e+15
1.34164832421066e+15
1.33486375227112e+15
1.32789363879593e+15
1.32075816308299e+15
1.31349231671107e+15
1.30613616619614e+15
1.29870624444295e+15
1.2912338852964e+15
1.28375412042339e+15
1.2762839584197e+15
1.26884255541556e+15
1.26146432932747e+15
1.25414929802469e+15
1.24693055048316e+15
1.23980910549957e+15
1.23280601932601e+15
1.22593064998417e+15
1.21918264787182e+15
1.21258287790384e+15
1.20612194015938e+15
1.19980942355569e+15
1.19366319954539e+15
1.18767090814519e+15
1.18184084712545e+15
1.1761754315295e+15
1.1706660549566e+15
1.1653188345734e+15
1.16012857366361e+15
1.1550911402501e+15
1.15021028195269e+15
1.14547786264342e+15
1.14089167715439e+15
1.13645012483984e+15
1.13213763833973e+15
1.12796275964291e+15
1.12391759380512e+15
1.12000769612481e+15
1.11622024788913e+15
1.11255787322419e+15
1.10901212580929e+15
1.10558056876505e+15
1.10225928888672e+15
1.09904049696693e+15
1.09592089851787e+15
1.09288973657953e+15
1.08995279515785e+15
1.08710243031117e+15
1.08434424491542e+15
1.08166536064212e+15
1.07907168897742e+15
1.07655126822457e+15
1.07410274396552e+15
1.07172445231073e+15
1.06941643180527e+15
1.06718066534215e+15
1.06501075463062e+15
1.06290549119528e+15
1.06082450406624e+15
1.05864424902181e+15
1.05648297739143e+15
1.05437591542926e+15
1.05231370745796e+15
1.05030425912551e+15
1.04834896841126e+15
1.04643732513972e+15
1.04426617900894e+15
1.04207396187235e+15
1.03993698268458e+15
1.03785790959939e+15
1.03539621049869e+15
1.03293473027906e+15
1.03034219405824e+15
1.02740273336057e+15
1.0241189892324e+15
1.02035186010731e+15
1.01578717445717e+15
)
;

boundaryField
{
    electrode
    {
        type            zeroGradient;
    }
    ground
    {
        type            zeroGradient;
    }
    otherfaces
    {
        type            empty;
    }
}


// ************************************************************************* //
