/*--------------------------------*- C++ -*----------------------------------*\
| =========                 |                                                 |
| \\      /  F ield         | foam-extend: Open Source CFD                    |
|  \\    /   O peration     | Version:     4.0                                |
|   \\  /    A nd           | Web:         http://www.foam-extend.org         |
|    \\/     M anipulation  |                                                 |
\*---------------------------------------------------------------------------*/
FoamFile
{
    version     2.0;
    format      ascii;
    class       volScalarField;
    location    "4.9e-06";
    object      Arp1;
}
// * * * * * * * * * * * * * * * * * * * * * * * * * * * * * * * * * * * * * //

dimensions      [0 0 0 1 0 0 0];

internalField   nonuniform List<scalar> 
300
(
6.09436610876409e+16
6.0985542135366e+16
6.0960235010054e+16
6.09554232252709e+16
6.09463076379028e+16
6.09333514778029e+16
6.0918103547043e+16
6.08999165515027e+16
6.08788864413952e+16
6.08550278773699e+16
6.08283257734058e+16
6.07987827149316e+16
6.07663974215095e+16
6.07311685241344e+16
6.06930949491632e+16
6.06521754594568e+16
6.06084087755757e+16
6.05617935582365e+16
6.05123283929016e+16
6.04600117841954e+16
6.04048421455252e+16
6.03468177897055e+16
6.02859369188054e+16
6.02221976133797e+16
6.0155597821847e+16
6.00861353495899e+16
6.00138078470053e+16
5.99386127983459e+16
5.98605475100099e+16
5.97796090972502e+16
5.96957944705798e+16
5.96091003213276e+16
5.95195231134253e+16
5.94270590933374e+16
5.93317043163521e+16
5.92334545938913e+16
5.91323051924594e+16
5.90282503093282e+16
5.89212834616185e+16
5.88114007948581e+16
5.86986052204962e+16
5.85828890535816e+16
5.84642340674462e+16
5.83426336335847e+16
5.82180792084969e+16
5.80905615461204e+16
5.79600709614073e+16
5.78265973591511e+16
5.76901302372604e+16
5.75506586774529e+16
5.74081713322781e+16
5.72626564130004e+16
5.71141016774184e+16
5.69624944182515e+16
5.68078214530323e+16
5.6650069114938e+16
5.64892232441563e+16
5.63252691807065e+16
5.61581917586858e+16
5.59879753006596e+16
5.58146036141382e+16
5.56380599890532e+16
5.54583271957808e+16
5.52753874851943e+16
5.50892225897515e+16
5.48998137252738e+16
5.47071415947969e+16
5.45111863934909e+16
5.43119278143584e+16
5.41093450559713e+16
5.39034168314785e+16
5.36941213783113e+16
5.34814364700412e+16
5.32653394294663e+16
5.30458071424548e+16
5.28228160741084e+16
5.2596342285887e+16
5.23663614538935e+16
5.21328488889473e+16
5.18957795582096e+16
5.16551281076264e+16
5.14108688861069e+16
5.11629759714081e+16
5.09114231966764e+16
5.06561841787767e+16
5.03972323481731e+16
5.01345409794681e+16
4.98680832236892e+16
4.95978321419115e+16
4.93237607395314e+16
4.90458420022043e+16
4.87640489328964e+16
4.84783545896932e+16
4.81887321246557e+16
4.78951548242094e+16
4.7597596149588e+16
4.72960297786535e+16
4.69904296485707e+16
4.668076999864e+16
4.63670254141826e+16
4.6049170871058e+16
4.5727181780201e+16
4.54010340326682e+16
4.50707040454168e+16
4.47361688066215e+16
4.4397405921283e+16
4.40543936572396e+16
4.37071109905339e+16
4.33555376506595e+16
4.29996541660487e+16
4.26394419084793e+16
4.22748831372425e+16
4.19059610431264e+16
4.15326597911619e+16
4.11549645628289e+16
4.07728615978261e+16
4.03863382344566e+16
3.99953829492725e+16
3.95999853961369e+16
3.92001364437015e+16
3.87958282124371e+16
3.83870541106488e+16
3.79738088694e+16
3.75560885769301e+16
3.71338907124795e+16
3.67072141794678e+16
3.62760593395095e+16
3.58404280416846e+16
3.54003236649991e+16
3.49557511563313e+16
3.45067169851274e+16
3.40532294821981e+16
3.35952982151771e+16
3.31329350862715e+16
3.26661531277143e+16
3.21949677247264e+16
3.1719396250962e+16
3.12394567790896e+16
3.07551696181559e+16
3.02665665117903e+16
2.97736616491623e+16
2.92764535422199e+16
2.87750774355492e+16
2.82695139627959e+16
2.77597722755373e+16
2.72458958274108e+16
2.67279273254757e+16
2.62059111110485e+16
2.56798987202643e+16
2.51499467963884e+16
2.4616113758504e+16
2.40784861298283e+16
2.35371155927881e+16
2.29921307315356e+16
2.24436284780765e+16
2.18916282128455e+16
2.1336621171134e+16
2.07780086550424e+16
2.02172416620491e+16
1.96529066877497e+16
1.90867613221285e+16
1.8518473262843e+16
1.79460276635728e+16
1.73830528715698e+16
1.68248322487564e+16
1.6258642476359e+16
1.56923739091507e+16
1.51264996797168e+16
1.45670673040399e+16
1.40162316245994e+16
1.34720118689644e+16
1.294298471139e+16
1.24160904512382e+16
1.18703667839755e+16
1.13671427812725e+16
1.08949935747079e+16
1.03905592830606e+16
9.91583488735167e+15
9.4969454223001e+15
9.04877660875385e+15
8.63354084651574e+15
8.2783410335161e+15
7.89024087886549e+15
7.54733302704849e+15
7.25314479159802e+15
6.94282658554172e+15
6.65471528110261e+15
6.42862648098151e+15
6.19639628836025e+15
5.97288336694503e+15
5.77545452787547e+15
5.6289477961607e+15
5.46293429045394e+15
5.31756940190131e+15
5.18148561379029e+15
5.09427490890197e+15
5.01207150578607e+15
4.96278181020772e+15
4.90518800554672e+15
4.90331039864902e+15
4.91507990278728e+15
4.9352292077068e+15
4.9719477374154e+15
4.96622423541534e+15
4.94310336121889e+15
4.89867117765764e+15
4.8503288628696e+15
4.80064601500706e+15
4.75369900582523e+15
4.70930371633449e+15
4.66947085622201e+15
4.63338234610915e+15
4.59071135958248e+15
4.53990785492026e+15
4.494298139032e+15
4.45183894335704e+15
4.4140530210352e+15
4.37885078912381e+15
4.34772738989165e+15
4.31860551590908e+15
4.29310606617336e+15
4.26917249478804e+15
4.24861642250952e+15
4.22922921455688e+15
4.20919219030782e+15
4.17866914549023e+15
4.15183825072547e+15
4.12487775638635e+15
4.10155324756747e+15
4.07765527701376e+15
4.05730635152446e+15
4.03606676704768e+15
4.01828113215028e+15
3.99935862461289e+15
3.98384154641158e+15
3.96697153168217e+15
3.95345912201945e+15
3.93839037735364e+15
3.92663935712111e+15
3.91312647859595e+15
3.90294513770024e+15
3.89081450143342e+15
3.87228429118995e+15
3.85181060282073e+15
3.83446142220445e+15
3.81516226176084e+15
3.7990307613099e+15
3.78077615454748e+15
3.76573823544889e+15
3.74846179741119e+15
3.73447926346943e+15
3.71814063291217e+15
3.70517843037556e+15
3.68974760920207e+15
3.67774976957686e+15
3.66314436566197e+15
3.65203912383098e+15
3.6381894151527e+15
3.62790142078337e+15
3.61474080350419e+15
3.60523494702748e+15
3.59274211435169e+15
3.58399764284967e+15
3.57214800183889e+15
3.56415486254924e+15
3.55292953247002e+15
3.54223742787356e+15
3.52542502672534e+15
3.51257683183862e+15
3.49637986533326e+15
3.48423324749725e+15
3.46861922727206e+15
3.45715000521504e+15
3.44210746528577e+15
3.43131989565179e+15
3.41684552083826e+15
3.40673413881681e+15
3.39281188814141e+15
3.38335822622674e+15
3.3699621129171e+15
3.36112827840297e+15
3.34821707648543e+15
3.33995173328939e+15
3.32747763110241e+15
3.31973129593339e+15
3.30765424815761e+15
3.30038171117158e+15
3.28866915334728e+15
3.28182957513512e+15
3.27046340478687e+15
3.26402270340871e+15
3.25296659246045e+15
3.24689887695939e+15
3.23613262076154e+15
3.23041609869346e+15
3.21990313739824e+15
3.21452875977354e+15
3.20422294340106e+15
3.19911463301844e+15
3.18638571587992e+15
)
;

boundaryField
{
    electrode
    {
        type            driftDiffusionPositiveIonDensity;
        seec            0;
        fieldName       Arp1;
        value           uniform 6.07664097191308e+16;
    }
    ground
    {
        type            driftDiffusionPositiveIonDensity;
        seec            0;
        fieldName       Arp1;
        value           uniform 3.18638571587992e+15;
    }
    otherfaces
    {
        type            empty;
    }
}


// ************************************************************************* //
