/*--------------------------------*- C++ -*----------------------------------*\
| =========                 |                                                 |
| \\      /  F ield         | foam-extend: Open Source CFD                    |
|  \\    /   O peration     | Version:     4.0                                |
|   \\  /    A nd           | Web:         http://www.foam-extend.org         |
|    \\/     M anipulation  |                                                 |
\*---------------------------------------------------------------------------*/
FoamFile
{
    version     2.0;
    format      ascii;
    class       volVectorField;
    location    "4.9e-06";
    object      J_Arp1;
}
// * * * * * * * * * * * * * * * * * * * * * * * * * * * * * * * * * * * * * //

dimensions      [1 -1 -1 0 0 0 0];

internalField   nonuniform List<vector> 
300
(
(1.80825271289877e+16 -0 -0)
(6.55373744063856e+16 -0 -0)
(1.17432267562112e+17 -0 -0)
(1.63244793202975e+17 -0 -0)
(2.09727120406692e+17 -0 -0)
(2.56485638278982e+17 -0 -0)
(3.03101341580522e+17 -0 -0)
(3.49751512109218e+17 -0 -0)
(3.96406018482451e+17 -0 -0)
(4.43061716576504e+17 -0 -0)
(4.89722849130359e+17 -0 -0)
(5.36388949847434e+17 -0 -0)
(5.83060772038808e+17 -0 -0)
(6.2973915712611e+17 -0 -0)
(6.76424967296469e+17 -0 -0)
(7.23119213335189e+17 -0 -0)
(7.69823025762403e+17 -0 -0)
(8.16537665014899e+17 -0 -0)
(8.63264531254949e+17 -0 -0)
(9.10005169664953e+17 -0 -0)
(9.5676127736532e+17 -0 -0)
(1.00353470975605e+18 -0 -0)
(1.05032748581524e+18 -0 -0)
(1.09714179386422e+18 -0 -0)
(1.14397999647034e+18 -0 -0)
(1.19084463522494e+18 -0 -0)
(1.23773843453204e+18 -0 -0)
(1.28466430618513e+18 -0 -0)
(1.33162535215033e+18 -0 -0)
(1.37862486717799e+18 -0 -0)
(1.42566633903936e+18 -0 -0)
(1.47275344795014e+18 -0 -0)
(1.51989007260921e+18 -0 -0)
(1.56708031698635e+18 -0 -0)
(1.61432855733524e+18 -0 -0)
(1.66163942209451e+18 -0 -0)
(1.70901749937953e+18 -0 -0)
(1.75646672097922e+18 -0 -0)
(1.80399042843069e+18 -0 -0)
(1.85159460836992e+18 -0 -0)
(1.89929416592894e+18 -0 -0)
(1.9471091944033e+18 -0 -0)
(1.99505244010101e+18 -0 -0)
(2.0431300922459e+18 -0 -0)
(2.09134784524799e+18 -0 -0)
(2.13971150869946e+18 -0 -0)
(2.18822708141881e+18 -0 -0)
(2.2369007883372e+18 -0 -0)
(2.28573908012963e+18 -0 -0)
(2.3347486227576e+18 -0 -0)
(2.38393628367481e+18 -0 -0)
(2.4333091171482e+18 -0 -0)
(2.48287434812849e+18 -0 -0)
(2.53263935582818e+18 -0 -0)
(2.58261165669028e+18 -0 -0)
(2.63279888665695e+18 -0 -0)
(2.68320878294158e+18 -0 -0)
(2.73384916536937e+18 -0 -0)
(2.78472791708559e+18 -0 -0)
(2.83585296483406e+18 -0 -0)
(2.88723225919353e+18 -0 -0)
(2.93887375359032e+18 -0 -0)
(2.99078538365953e+18 -0 -0)
(3.04297504604465e+18 -0 -0)
(3.09545057643953e+18 -0 -0)
(3.14821972792619e+18 -0 -0)
(3.20129014835297e+18 -0 -0)
(3.25466935796699e+18 -0 -0)
(3.30836472630834e+18 -0 -0)
(3.36238344925863e+18 -0 -0)
(3.4167325252411e+18 -0 -0)
(3.47141873206702e+18 -0 -0)
(3.52644860272044e+18 -0 -0)
(3.58182840168858e+18 -0 -0)
(3.63756410052732e+18 -0 -0)
(3.69366135402403e+18 -0 -0)
(3.75012547572853e+18 -0 -0)
(3.80696141381103e+18 -0 -0)
(3.8641737267831e+18 -0 -0)
(3.92176655936321e+18 -0 -0)
(3.97974361839554e+18 -0 -0)
(4.03810814921082e+18 -0 -0)
(4.09686291188022e+18 -0 -0)
(4.15601015784875e+18 -0 -0)
(4.21555160708056e+18 -0 -0)
(4.27548842554541e+18 -0 -0)
(4.33582120286339e+18 -0 -0)
(4.39654993115088e+18 -0 -0)
(4.45767398365144e+18 -0 -0)
(4.51919209479304e+18 -0 -0)
(4.58110234052219e+18 -0 -0)
(4.64340211968217e+18 -0 -0)
(4.70608813591664e+18 -0 -0)
(4.76915638121674e+18 -0 -0)
(4.83260211978325e+18 -0 -0)
(4.89641987333407e+18 -0 -0)
(4.9606034078217e+18 -0 -0)
(5.02514572082943e+18 -0 -0)
(5.0900390307339e+18 -0 -0)
(5.15527476723796e+18 -0 -0)
(5.22084356320791e+18 -0 -0)
(5.28673524820827e+18 -0 -0)
(5.35293884339521e+18 -0 -0)
(5.41944255860263e+18 -0 -0)
(5.48623379038154e+18 -0 -0)
(5.55329912257306e+18 -0 -0)
(5.62062432836358e+18 -0 -0)
(5.68819437405646e+18 -0 -0)
(5.75599342545215e+18 -0 -0)
(5.82400485533942e+18 -0 -0)
(5.89221125357687e+18 -0 -0)
(5.96059443909572e+18 -0 -0)
(6.02913547389163e+18 -0 -0)
(6.09781467909963e+18 -0 -0)
(6.16661165311796e+18 -0 -0)
(6.23550529202571e+18 -0 -0)
(6.30447381174937e+18 -0 -0)
(6.373494772483e+18 -0 -0)
(6.4425451050968e+18 -0 -0)
(6.51160113951798e+18 -0 -0)
(6.58063863504386e+18 -0 -0)
(6.64963281255316e+18 -0 -0)
(6.71855838846179e+18 -0 -0)
(6.78738961066375e+18 -0 -0)
(6.85610029573833e+18 -0 -0)
(6.9246638680623e+18 -0 -0)
(6.99305340061447e+18 -0 -0)
(7.06124165494536e+18 -0 -0)
(7.12920112715372e+18 -0 -0)
(7.19690409619731e+18 -0 -0)
(7.26432262988803e+18 -0 -0)
(7.33142874950158e+18 -0 -0)
(7.39819425216712e+18 -0 -0)
(7.46459104968426e+18 -0 -0)
(7.53059092691618e+18 -0 -0)
(7.59616580986963e+18 -0 -0)
(7.66128792222777e+18 -0 -0)
(7.72592897725687e+18 -0 -0)
(7.79006042892606e+18 -0 -0)
(7.85365940292945e+18 -0 -0)
(7.91669610452083e+18 -0 -0)
(7.97912337230654e+18 -0 -0)
(8.04096574108661e+18 -0 -0)
(8.10222804349161e+18 -0 -0)
(8.16288881067589e+18 -0 -0)
(8.22292325577141e+18 -0 -0)
(8.28230727193916e+18 -0 -0)
(8.34101667455043e+18 -0 -0)
(8.39902859419722e+18 -0 -0)
(8.45632096527516e+18 -0 -0)
(8.5128692292126e+18 -0 -0)
(8.56865991155719e+18 -0 -0)
(8.62365990288066e+18 -0 -0)
(8.67786368586986e+18 -0 -0)
(8.73125836707728e+18 -0 -0)
(8.78376117845156e+18 -0 -0)
(8.83554947539422e+18 -0 -0)
(8.88621694282385e+18 -0 -0)
(8.93636812562184e+18 -0 -0)
(8.98524211185628e+18 -0 -0)
(9.03345069414384e+18 -0 -0)
(9.08095959269033e+18 -0 -0)
(9.1261057962402e+18 -0 -0)
(9.17386453926823e+18 -0 -0)
(9.21858040778792e+18 -0 -0)
(9.26239562023341e+18 -0 -0)
(9.30595328567474e+18 -0 -0)
(9.34778373652184e+18 -0 -0)
(9.38996718058151e+18 -0 -0)
(9.43077956525655e+18 -0 -0)
(9.47030026282381e+18 -0 -0)
(9.51192583256895e+18 -0 -0)
(9.54799303358163e+18 -0 -0)
(9.58253151718384e+18 -0 -0)
(9.6222178725161e+18 -0 -0)
(9.65904471596984e+18 -0 -0)
(9.6933160246922e+18 -0 -0)
(9.72502134570734e+18 -0 -0)
(9.7595028686571e+18 -0 -0)
(9.78745569188732e+18 -0 -0)
(9.81823651268131e+18 -0 -0)
(9.84833535568604e+18 -0 -0)
(9.86826334043513e+18 -0 -0)
(9.8999944311225e+18 -0 -0)
(9.91889652472627e+18 -0 -0)
(9.9410565422536e+18 -0 -0)
(9.95436176142143e+18 -0 -0)
(9.98665275834124e+18 -0 -0)
(9.99414462965949e+18 -0 -0)
(1.00240000082248e+19 -0 -0)
(1.00326910394119e+19 -0 -0)
(1.00718524340524e+19 -0 -0)
(1.00810019038814e+19 -0 -0)
(1.01315578926634e+19 -0 -0)
(1.01538551467302e+19 -0 -0)
(1.02320057578566e+19 -0 -0)
(1.02851819135582e+19 -0 -0)
(1.04244802780546e+19 -0 -0)
(1.05620396305056e+19 -0 -0)
(1.07985061906854e+19 -0 -0)
(1.10502868114767e+19 -0 -0)
(1.13062022462716e+19 -0 -0)
(1.15865338445186e+19 -0 -0)
(1.175752076377e+19 -0 -0)
(1.19464648399334e+19 -0 -0)
(1.20667943322024e+19 -0 -0)
(1.21591083880643e+19 -0 -0)
(1.22301856825505e+19 -0 -0)
(1.2291200319861e+19 -0 -0)
(1.23428041983422e+19 -0 -0)
(1.2391381409492e+19 -0 -0)
(1.24360128826734e+19 -0 -0)
(1.24795589218755e+19 -0 -0)
(1.25209122993162e+19 -0 -0)
(1.25644192363944e+19 -0 -0)
(1.26055943439708e+19 -0 -0)
(1.2649675996877e+19 -0 -0)
(1.26915565741475e+19 -0 -0)
(1.2736285301303e+19 -0 -0)
(1.27784581860605e+19 -0 -0)
(1.28234193885397e+19 -0 -0)
(1.28655588117865e+19 -0 -0)
(1.29107645963877e+19 -0 -0)
(1.29527814622831e+19 -0 -0)
(1.2998256786314e+19 -0 -0)
(1.30392079036609e+19 -0 -0)
(1.30854370835889e+19 -0 -0)
(1.31254251575742e+19 -0 -0)
(1.31714516787014e+19 -0 -0)
(1.32103670127854e+19 -0 -0)
(1.32557560321402e+19 -0 -0)
(1.32934290201318e+19 -0 -0)
(1.33378745776139e+19 -0 -0)
(1.33741248963905e+19 -0 -0)
(1.34175120289997e+19 -0 -0)
(1.34522446820096e+19 -0 -0)
(1.3494408622264e+19 -0 -0)
(1.35274344283652e+19 -0 -0)
(1.35681503048939e+19 -0 -0)
(1.35991796496292e+19 -0 -0)
(1.36382905155775e+19 -0 -0)
(1.36672569408173e+19 -0 -0)
(1.37042891514395e+19 -0 -0)
(1.37316570305371e+19 -0 -0)
(1.37669016657684e+19 -0 -0)
(1.37919875653251e+19 -0 -0)
(1.38254689721441e+19 -0 -0)
(1.38482593373736e+19 -0 -0)
(1.38799574524301e+19 -0 -0)
(1.39006130795584e+19 -0 -0)
(1.3930775042492e+19 -0 -0)
(1.39495149985348e+19 -0 -0)
(1.39783656188062e+19 -0 -0)
(1.39954157076179e+19 -0 -0)
(1.40230692253943e+19 -0 -0)
(1.40384241486018e+19 -0 -0)
(1.40648992527151e+19 -0 -0)
(1.4078566834282e+19 -0 -0)
(1.41038351879902e+19 -0 -0)
(1.41158040121481e+19 -0 -0)
(1.41399644563497e+19 -0 -0)
(1.41503753430959e+19 -0 -0)
(1.41735625138536e+19 -0 -0)
(1.41825247672062e+19 -0 -0)
(1.42048975742238e+19 -0 -0)
(1.42125486996225e+19 -0 -0)
(1.42340768147074e+19 -0 -0)
(1.42408588573207e+19 -0 -0)
(1.42617685752686e+19 -0 -0)
(1.42672608808667e+19 -0 -0)
(1.42875081489319e+19 -0 -0)
(1.42918065650318e+19 -0 -0)
(1.43114972089019e+19 -0 -0)
(1.43147496416282e+19 -0 -0)
(1.43340941405229e+19 -0 -0)
(1.43364716696624e+19 -0 -0)
(1.43556302762989e+19 -0 -0)
(1.43572400158257e+19 -0 -0)
(1.43763068457499e+19 -0 -0)
(1.43772016642788e+19 -0 -0)
(1.43961751836526e+19 -0 -0)
(1.43963291833465e+19 -0 -0)
(1.44151350409442e+19 -0 -0)
(1.44144790270205e+19 -0 -0)
(1.44330353058415e+19 -0 -0)
(1.44315196732647e+19 -0 -0)
(1.44497492117945e+19 -0 -0)
(1.44473450194452e+19 -0 -0)
(1.44651776241414e+19 -0 -0)
(1.44619095637224e+19 -0 -0)
(1.44792947245914e+19 -0 -0)
(1.44750983619987e+19 -0 -0)
(1.4492012373534e+19 -0 -0)
(1.44868864841282e+19 -0 -0)
(1.45033166098058e+19 -0 -0)
(1.44971794556146e+19 -0 -0)
(1.45131633515449e+19 -0 -0)
(1.45058825890845e+19 -0 -0)
(1.45211626812669e+19 -0 -0)
(1.45007927884394e+19 -0 -0)
)
;

boundaryField
{
    electrode
    {
        type            calculated;
        value           uniform (-5632133900.8693 -0 -0);
    }
    ground
    {
        type            calculated;
        value           uniform (1.45191408805736e+19 -0 -0);
    }
    otherfaces
    {
        type            empty;
    }
}


// ************************************************************************* //
