/*--------------------------------*- C++ -*----------------------------------*\
| =========                 |                                                 |
| \\      /  F ield         | foam-extend: Open Source CFD                    |
|  \\    /   O peration     | Version:     4.0                                |
|   \\  /    A nd           | Web:         http://www.foam-extend.org         |
|    \\/     M anipulation  |                                                 |
\*---------------------------------------------------------------------------*/
FoamFile
{
    version     2.0;
    format      ascii;
    class       volVectorField;
    location    "4.9e-06";
    object      J_electron;
}
// * * * * * * * * * * * * * * * * * * * * * * * * * * * * * * * * * * * * * //

dimensions      [1 -1 -1 0 0 0 0];

internalField   nonuniform List<vector> 
300
(
(-1.28484187258048e+19 0 0)
(-1.31818580814639e+19 0 0)
(-1.55640806971424e+19 0 0)
(-1.50986861685974e+19 0 0)
(-1.50996915282913e+19 0 0)
(-1.5087493189103e+19 0 0)
(-1.5027958056671e+19 0 0)
(-1.4983531520766e+19 0 0)
(-1.49368213753868e+19 0 0)
(-1.48895254618443e+19 0 0)
(-1.4842568786316e+19 0 0)
(-1.47955030064682e+19 0 0)
(-1.47484160903664e+19 0 0)
(-1.47013115286948e+19 0 0)
(-1.46541780087848e+19 0 0)
(-1.46070161121225e+19 0 0)
(-1.45598232761493e+19 0 0)
(-1.45125967723421e+19 0 0)
(-1.44653341797205e+19 0 0)
(-1.44180327562432e+19 0 0)
(-1.4370689675331e+19 0 0)
(-1.43233020780728e+19 0 0)
(-1.42758668652848e+19 0 0)
(-1.42283808780672e+19 0 0)
(-1.41808407832333e+19 0 0)
(-1.41332431914944e+19 0 0)
(-1.40855844151065e+19 0 0)
(-1.40378608257544e+19 0 0)
(-1.39900685932395e+19 0 0)
(-1.39422039391827e+19 0 0)
(-1.38942628306323e+19 0 0)
(-1.38462401002317e+19 0 0)
(-1.37981283421188e+19 0 0)
(-1.37499194278043e+19 0 0)
(-1.3701615216248e+19 0 0)
(-1.36532451676513e+19 0 0)
(-1.36048548234756e+19 0 0)
(-1.35563820885855e+19 0 0)
(-1.35074359633347e+19 0 0)
(-1.34574098391119e+19 0 0)
(-1.34066882061972e+19 0 0)
(-1.33565627327481e+19 0 0)
(-1.33070962590881e+19 0 0)
(-1.32576355957084e+19 0 0)
(-1.32080391503581e+19 0 0)
(-1.31582620880836e+19 0 0)
(-1.31082870088283e+19 0 0)
(-1.30581051281687e+19 0 0)
(-1.30077100630957e+19 0 0)
(-1.29570960214162e+19 0 0)
(-1.29062572119533e+19 0 0)
(-1.28551878709947e+19 0 0)
(-1.28038820642208e+19 0 0)
(-1.27523337547921e+19 0 0)
(-1.27005368451675e+19 0 0)
(-1.26484851465587e+19 0 0)
(-1.25961723883878e+19 0 0)
(-1.25435922737217e+19 0 0)
(-1.24907384559593e+19 0 0)
(-1.24376045201638e+19 0 0)
(-1.23841841548726e+19 0 0)
(-1.2330470940072e+19 0 0)
(-1.22764585157643e+19 0 0)
(-1.22221406282627e+19 0 0)
(-1.21675109870996e+19 0 0)
(-1.21125634712758e+19 0 0)
(-1.20572919765719e+19 0 0)
(-1.20016905728266e+19 0 0)
(-1.1945753411234e+19 0 0)
(-1.18894748757268e+19 0 0)
(-1.18328493917851e+19 0 0)
(-1.17758716980332e+19 0 0)
(-1.17185366382766e+19 0 0)
(-1.16608393565399e+19 0 0)
(-1.16027751386558e+19 0 0)
(-1.15443396113098e+19 0 0)
(-1.14855286088697e+19 0 0)
(-1.1426338275792e+19 0 0)
(-1.13667650452343e+19 0 0)
(-1.13068056606052e+19 0 0)
(-1.12464571510209e+19 0 0)
(-1.11857169341455e+19 0 0)
(-1.11245827499504e+19 0 0)
(-1.10630526646079e+19 0 0)
(-1.10011251229977e+19 0 0)
(-1.09387989799477e+19 0 0)
(-1.08760733677923e+19 0 0)
(-1.081294791718e+19 0 0)
(-1.07494225300575e+19 0 0)
(-1.06854975652847e+19 0 0)
(-1.06211737313775e+19 0 0)
(-1.05564521660998e+19 0 0)
(-1.04913342790375e+19 0 0)
(-1.04258219749535e+19 0 0)
(-1.03599174643734e+19 0 0)
(-1.02936232707626e+19 0 0)
(-1.02269423534657e+19 0 0)
(-1.0159877927058e+19 0 0)
(-1.00924335153925e+19 0 0)
(-1.00246129561688e+19 0 0)
(-9.9564203270629e+18 0 0)
(-9.88785996719247e+18 0 0)
(-9.81893634363176e+18 0 0)
(-9.74965420944366e+18 0 0)
(-9.68001833328758e+18 0 0)
(-9.61003361815285e+18 0 0)
(-9.53970502769836e+18 0 0)
(-9.4690374068302e+18 0 0)
(-9.39803565900694e+18 0 0)
(-9.32670445177117e+18 0 0)
(-9.25504826237885e+18 0 0)
(-9.18307129745159e+18 0 0)
(-9.1107773702823e+18 0 0)
(-9.038169839786e+18 0 0)
(-8.96525148057187e+18 0 0)
(-8.89202442386329e+18 0 0)
(-8.81848996934399e+18 0 0)
(-8.74464850304041e+18 0 0)
(-8.67049933493397e+18 0 0)
(-8.59604055159472e+18 0 0)
(-8.52126883676108e+18 0 0)
(-8.44617928666094e+18 0 0)
(-8.37076516784361e+18 0 0)
(-8.29501778593055e+18 0 0)
(-8.21892611198367e+18 0 0)
(-8.14247657663365e+18 0 0)
(-8.06565285365232e+18 0 0)
(-7.98843523192848e+18 0 0)
(-7.91080023693722e+18 0 0)
(-7.83272264781739e+18 0 0)
(-7.7541658551989e+18 0 0)
(-7.67510094836348e+18 0 0)
(-7.59547970368569e+18 0 0)
(-7.51525503158138e+18 0 0)
(-7.43437478014537e+18 0 0)
(-7.35276116076397e+18 0 0)
(-7.27038778028484e+18 0 0)
(-7.18716598825307e+18 0 0)
(-7.10270709311891e+18 0 0)
(-7.01738938131861e+18 0 0)
(-6.93169882266023e+18 0 0)
(-6.84077913220212e+18 0 0)
(-6.74594464319249e+18 0 0)
(-6.65273700075333e+18 0 0)
(-6.55934927501997e+18 0 0)
(-6.46398505649911e+18 0 0)
(-6.36626751926043e+18 0 0)
(-6.26588401559981e+18 0 0)
(-6.1624923051199e+18 0 0)
(-6.05590249466023e+18 0 0)
(-5.94528431697927e+18 0 0)
(-5.83094462936357e+18 0 0)
(-5.7116346502957e+18 0 0)
(-5.58643797977412e+18 0 0)
(-5.45838914027179e+18 0 0)
(-5.31669636178195e+18 0 0)
(-5.1795563216183e+18 0 0)
(-5.01882470587066e+18 0 0)
(-4.85947939289039e+18 0 0)
(-4.68653170524212e+18 0 0)
(-4.45925938001189e+18 0 0)
(-4.22664777373109e+18 0 0)
(-3.57501265222671e+18 0 0)
(-2.72493367009791e+18 0 0)
(-2.51653689846425e+18 0 0)
(-2.54404746182289e+18 0 0)
(-2.33148049927019e+18 0 0)
(-1.8920115066477e+18 0 0)
(-1.26525497703766e+18 0 0)
(-7.48363192435999e+17 0 0)
(-3.00356551167705e+17 0 0)
(-2.88979242788585e+17 0 0)
(-1.0729880521204e+18 0 0)
(-1.10934618233897e+18 0 0)
(-5.14240047561572e+17 0 0)
(-1.67869629925949e+18 0 0)
(-2.94054531186033e+18 0 0)
(-2.69611644234603e+18 0 0)
(-3.61015994918476e+18 0 0)
(-4.68892686396739e+18 0 0)
(-4.20966960039513e+18 0 0)
(-4.35665762536915e+18 0 0)
(-4.04337246325441e+18 0 0)
(-2.28224215924552e+18 0 0)
(-6.67341367713726e+17 0 0)
(1.28742073157078e+18 0 0)
(4.06770165424482e+18 0 0)
(6.53905639298459e+18 0 0)
(8.47484725108408e+18 0 0)
(1.01238655533413e+19 0 0)
(1.08949220665682e+19 0 0)
(1.20768030572347e+19 0 0)
(1.02550459059245e+19 0 0)
(8.75192957843079e+18 0 0)
(7.9510283625106e+18 0 0)
(5.65287232178933e+18 0 0)
(5.7559752450432e+18 0 0)
(3.40444489741923e+18 0 0)
(-3.74290248370969e+18 0 0)
(1.4988308053816e+18 0 0)
(-1.58071890830216e+18 0 0)
(-2.36667909269218e+18 0 0)
(-2.27163710276964e+18 0 0)
(-2.22098254092694e+18 0 0)
(-2.33965487835402e+18 0 0)
(-2.57968969300428e+18 0 0)
(-2.79867432767244e+18 0 0)
(-2.92938320114514e+18 0 0)
(-2.9934769826804e+18 0 0)
(-3.00877215905568e+18 0 0)
(-2.99271522047414e+18 0 0)
(-2.96920158208029e+18 0 0)
(-2.93281341647281e+18 0 0)
(-2.89329687353554e+18 0 0)
(-2.85299261342891e+18 0 0)
(-2.8088956660659e+18 0 0)
(-2.76250413744437e+18 0 0)
(-2.71487421292661e+18 0 0)
(-2.66729854880051e+18 0 0)
(-2.61872935098051e+18 0 0)
(-2.57119914335859e+18 0 0)
(-2.52259152485e+18 0 0)
(-2.4739885761153e+18 0 0)
(-2.42536463658569e+18 0 0)
(-2.37689051731547e+18 0 0)
(-2.32864058299357e+18 0 0)
(-2.28070565188582e+18 0 0)
(-2.2331805031825e+18 0 0)
(-2.18614342398233e+18 0 0)
(-2.13966544071365e+18 0 0)
(-2.09381052072986e+18 0 0)
(-2.04863514129473e+18 0 0)
(-2.00418925559727e+18 0 0)
(-1.96051574936744e+18 0 0)
(-1.91765142702419e+18 0 0)
(-1.87562659463649e+18 0 0)
(-1.83446607475973e+18 0 0)
(-1.79418878231201e+18 0 0)
(-1.75480925781667e+18 0 0)
(-1.71633439123574e+18 0 0)
(-1.67877433984474e+18 0 0)
(-1.64208607970447e+18 0 0)
(-1.60633636203774e+18 0 0)
(-1.57159018642964e+18 0 0)
(-1.53765357665362e+18 0 0)
(-1.50461235581044e+18 0 0)
(-1.47244247190408e+18 0 0)
(-1.4411350018989e+18 0 0)
(-1.41067337230362e+18 0 0)
(-1.38104033346256e+18 0 0)
(-1.35221743357874e+18 0 0)
(-1.32418510840267e+18 0 0)
(-1.29692393644858e+18 0 0)
(-1.27041360345341e+18 0 0)
(-1.24464483735996e+18 0 0)
(-1.21952208422739e+18 0 0)
(-1.1951489603992e+18 0 0)
(-1.17146397391384e+18 0 0)
(-1.14836087118649e+18 0 0)
(-1.12590897218053e+18 0 0)
(-1.10405792566323e+18 0 0)
(-1.08279292830721e+18 0 0)
(-1.06209301920204e+18 0 0)
(-1.04193965149627e+18 0 0)
(-1.02231433673601e+18 0 0)
(-1.00320068483071e+18 0 0)
(-9.84577740785006e+17 0 0)
(-9.66432779612158e+17 0 0)
(-9.48686060729849e+17 0 0)
(-9.31454845402224e+17 0 0)
(-9.14701143195225e+17 0 0)
(-8.98310481747572e+17 0 0)
(-8.82324563155476e+17 0 0)
(-8.66726550260288e+17 0 0)
(-8.51507533212783e+17 0 0)
(-8.366553767206e+17 0 0)
(-8.22158856181274e+17 0 0)
(-8.08006769883362e+17 0 0)
(-7.94188110946286e+17 0 0)
(-7.80692649029051e+17 0 0)
(-7.67504705607825e+17 0 0)
(-7.54619931768924e+17 0 0)
(-7.41921485556678e+17 0 0)
(-7.29606070523652e+17 0 0)
(-7.1781369619889e+17 0 0)
(-7.06128509239091e+17 0 0)
(-6.94718816219733e+17 0 0)
(-6.83574666270941e+17 0 0)
(-6.72513128483642e+17 0 0)
(-6.61937031520478e+17 0 0)
(-6.51893478574915e+17 0 0)
(-6.41904552118767e+17 0 0)
(-6.3172275358316e+17 0 0)
(-6.22856723236473e+17 0 0)
(-6.13578104618887e+17 0 0)
(-6.05125980972045e+17 0 0)
(-5.97012787427732e+17 0 0)
(-5.90292227629455e+17 0 0)
(-5.84102988949663e+17 0 0)
(-5.73882891384652e+17 0 0)
)
;

boundaryField
{
    electrode
    {
        type            calculated;
        value           uniform (-1.53379102277806e+19 0 0);
    }
    ground
    {
        type            calculated;
        value           uniform (-5.71311680531038e+17 0 0);
    }
    otherfaces
    {
        type            empty;
    }
}


// ************************************************************************* //
