/*--------------------------------*- C++ -*----------------------------------*\
| =========                 |                                                 |
| \\      /  F ield         | foam-extend: Open Source CFD                    |
|  \\    /   O peration     | Version:     4.0                                |
|   \\  /    A nd           | Web:         http://www.foam-extend.org         |
|    \\/     M anipulation  |                                                 |
\*---------------------------------------------------------------------------*/
FoamFile
{
    version     2.0;
    format      ascii;
    class       volScalarField;
    location    "4.9e-06";
    object      Phi;
}
// * * * * * * * * * * * * * * * * * * * * * * * * * * * * * * * * * * * * * //

dimensions      [0 0 0 1 0 0 0];

internalField   nonuniform List<scalar> 
300
(
699.999924591565
699.999711220284
699.999205079121
699.998439944865
699.997424520492
699.996153433238
699.994627674379
699.99284691954
699.990810735205
699.988518777853
699.985970623855
699.983165813893
699.980103849996
699.976784191865
699.973206257229
699.969369420709
699.965273012783
699.960916318744
699.956298577548
699.951418980601
699.946276670484
699.940870739598
699.935200228751
699.929264125672
699.923061363459
699.916590818956
699.909851311066
699.902841598993
699.895560380421
699.888006289616
699.880177895482
699.872073699555
699.86369213394
699.85503155912
699.846090261453
699.836866450358
699.827358256028
699.817563729923
699.807480848932
699.797107513468
699.786441513875
699.775480466582
699.764221817867
699.75266290615
699.740800971718
699.728633153581
699.716156486281
699.703367896307
699.690264198361
699.676842091555
699.663098155551
699.649028846644
699.634630493802
699.619899294637
699.604831311334
699.589422466517
699.573668539054
699.557565159802
699.541107807282
699.524291803291
699.507112308436
699.489564317594
699.471642655288
699.453341970981
699.434656734275
699.415581230014
699.39610955329
699.376235604329
699.355953083271
699.335255484825
699.314136092789
699.292587974434
699.27060397474
699.248176710471
699.225298564086
699.201961677463
699.178157945442
699.153879009149
699.129116249111
699.103860778138
699.078103433944
699.051834771513
699.025045055167
698.997724250337
698.969862014994
698.941447690736
698.912470293494
698.88291850383
698.852780656801
698.822044731358
698.79069833924
698.758728713324
698.72612269541
698.692866723367
698.658946817616
698.624348566896
698.589057113248
698.553057136166
698.516332835852
698.478867915502
698.440645562543
698.401648428756
698.361858609175
698.321257619685
698.279826373204
698.23754515434
698.194393592398
698.150350632615
698.10539450545
698.059502693808
698.012651897991
697.964817998212
697.915976014449
697.866100063426
697.815163312463
697.763137929932
697.709995032017
697.655704625455
697.600235545892
697.543555391463
697.485630451151
697.426425627457
697.365904352816
697.304028499206
697.240758280245
697.176052145088
697.10986666327
697.042156399609
696.972873778158
696.901968934001
696.829389551718
696.755080689216
696.678984584205
696.601040444526
696.521184215092
696.439348325478
696.355461409031
696.269447994315
696.181228174814
696.090717227325
695.997825145324
695.902456306376
695.804509014272
695.703874097583
695.600434563724
695.494065217864
695.384631867967
695.271990399578
695.155985757652
695.036450781516
694.913204900862
694.786052666626
694.654781975375
694.519162326819
694.378942311606
694.233847291965
694.08357682887
693.927799361085
693.766153096282
693.598232678195
693.423595921391
693.241744668722
693.052124033252
692.854111310715
692.646861869424
692.429352564911
692.200522676872
691.959197176976
691.704039977534
691.433459132199
691.145557339812
690.838126279279
690.508556042153
690.154032411476
689.771748038841
689.358120505706
688.908953528523
688.420324834372
687.887802436359
687.306120786205
686.670454591707
685.975655714063
685.215932244346
684.386383039472
683.4819559079
682.497441579935
681.428705872635
680.272143766133
679.024002127394
677.681634064593
676.243254838076
674.707592990333
673.073253145526
671.340052581441
669.508203138075
667.578250718329
665.550352110508
663.424935131243
661.201827156004
658.881840916127
656.464489411207
653.948958863168
651.334681314839
648.62075025593
645.807163436321
642.894310595545
639.883037743541
636.77429319591
633.56906457501
630.268290079995
626.872859468863
623.383571624479
619.801150907914
616.126454673379
612.360503869445
608.504215273481
604.558442406501
600.523944846262
596.401430419739
592.191524900871
587.89481381763
583.511809811806
579.042994061358
574.488779782624
569.849556663501
565.125727423258
560.317905568788
555.42663034824
550.452443576229
545.395813941824
540.257221626926
535.037075443126
529.735802076239
524.353758760274
518.891325559205
513.34881406646
507.726563053944
502.024843789586
496.243958813366
490.384143967404
484.445670502195
478.428742697661
472.333604016988
466.160626598469
459.91022165229
453.582737583798
447.178561997446
440.698018827255
434.141474690666
427.509231551058
420.801636377211
414.018969932387
407.161560349719
400.229667898524
393.223602479748
386.143604994704
378.989968759267
371.762916762454
364.46272714296
357.089606465875
349.643819045691
342.125555738233
334.535067451303
326.872529751056
319.138180631737
311.332180571205
303.454755028853
295.50611876464
287.486609586108
279.396485616329
271.236072301649
263.005613674017
254.70542347449
246.335732127665
237.896841896982
229.38896951491
220.812405833396
212.167354001245
203.454093780422
194.672815106396
185.823787172554
176.907187461257
167.923275425897
158.872217130212
149.754263245065
140.569569406399
131.318378312456
122.000836076854
112.617178075813
103.167541730764
93.6521554596472
84.0711486686224
74.4247435557284
64.7130620362037
54.9363204866374
45.094633782182
35.1882132238622
25.2171668625152
15.1817018740304
5.08192067179541
)
;

boundaryField
{
    electrode
    {
        type            fixedValue;
        value           uniform 700;
    }
    ground
    {
        type            fixedValue;
        value           uniform 0;
    }
    otherfaces
    {
        type            empty;
    }
}


// ************************************************************************* //
