/*--------------------------------*- C++ -*----------------------------------*\
| =========                 |                                                 |
| \\      /  F ield         | foam-extend: Open Source CFD                    |
|  \\    /   O peration     | Version:     4.0                                |
|   \\  /    A nd           | Web:         http://www.foam-extend.org         |
|    \\/     M anipulation  |                                                 |
\*---------------------------------------------------------------------------*/
FoamFile
{
    version     2.0;
    format      ascii;
    class       volScalarField;
    location    "4.9e-06";
    object      PhiMean;
}
// * * * * * * * * * * * * * * * * * * * * * * * * * * * * * * * * * * * * * //

dimensions      [0 0 0 1 0 0 0];

internalField   nonuniform List<scalar> 
300
(
699.984984617984
699.983518845136
699.981788896479
699.979815348648
699.97760772565
699.975158959827
699.972468150646
699.969534014983
699.966355308742
699.962931109726
699.959260641195
699.95534329828
699.951178610534
699.946766230797
699.942105922848
699.937197549077
699.932041060415
699.926636489676
699.920983943095
699.915083592435
699.908935669286
699.902540459394
699.895898297145
699.88900956021
699.881874663282
699.874494064901
699.866868254638
699.858997748284
699.850883086525
699.842524825356
699.833923528972
699.82507978334
699.815994186964
699.80666733337
699.797099807108
699.787292179005
699.777245000523
699.766958801132
699.756434082585
699.745671312126
699.734670919488
699.723433294399
699.711958779222
699.700247665063
699.688300187254
699.67611652115
699.663696777514
699.651040999447
699.638149158917
699.625021157578
699.611656825856
699.598055934304
699.584218182257
699.570143198711
699.55583052255
699.541279594369
699.526489742258
699.511460175666
699.496189979525
699.480678107648
699.464923377444
699.448924464017
699.43267989333
699.416188035142
699.399447120382
699.382455233598
699.36521028273
699.347709993393
699.329951902773
699.311933352383
699.293651480782
699.275103214694
699.256285275417
699.23719417559
699.217826194537
699.198177380362
699.178243557569
699.158020310796
699.137502973714
699.116686597187
699.09556597499
699.074135599535
699.052389648135
699.030321975548
699.007926097742
698.985195198978
698.962122113081
698.93869929571
698.914918809358
698.890772319661
698.866251074761
698.841345887502
698.816047162167
698.790344832113
698.764228337778
698.737686610506
698.710708050686
698.683280509303
698.655391261753
698.62702699018
698.598173761845
698.568816997905
698.53894144118
698.508531160436
698.477569492429
698.446039013435
698.413921516607
698.381197960732
698.347848453252
698.313852197624
698.279187443821
698.243831446945
698.207760416569
698.170949476629
698.133372613925
698.095002608938
698.0558110011
698.015768032872
697.974842555699
697.933001948228
697.890212035322
697.846437028278
697.801639415609
697.755779897454
697.708817259167
697.6607082303
697.611407356253
697.560866883074
697.509036584412
697.455863603354
697.401292276946
697.345263949046
697.287716756153
697.228585389525
697.167800850103
697.105290222507
697.040976332088
696.974777394585
696.906606618199
696.836371811855
696.763974904478
696.689311424282
696.612269916508
696.532731301953
696.450568201733
696.365644166192
696.277812721423
696.186916333935
696.092785210356
695.995235948996
695.894070087963
695.789072314525
695.680008448721
695.566623177635
695.448637329767
695.325744726576
695.19760866621
695.063857475616
694.924079925673
694.777818156742
694.624562637884
694.463736185136
694.294664342865
694.116553122457
693.928487225425
693.72942653352
693.518175256856
693.293330130215
693.053232870314
692.795911069104
692.519035798515
692.219897315069
691.895413907142
691.542013621345
691.155571637961
690.731523993006
690.26477839566
689.749715594036
689.180426642922
688.55063093888
687.853867715748
687.08375218109
686.23409864548
685.298989055186
684.273298746018
683.152552522312
681.933084463587
680.61220783798
679.188202415396
677.660108799729
676.027618698029
674.291002012031
672.451128708538
670.509286865819
668.466595641309
666.323977542604
664.082132661273
661.741492483054
659.302500355554
656.765460755888
654.130584490143
651.398150532834
648.568520721022
645.642383627979
642.620700998809
639.504486902589
636.294769292544
632.992509965323
629.59862258086
626.113932483326
622.5392114742
618.875142876942
615.12247067137
611.282080729107
607.35482525604
603.341476872591
599.24276672416
595.059355546586
590.791873065125
586.440886247726
582.006940044124
577.490523071074
572.892109786243
568.212124379453
563.450985048959
558.609172834068
553.687282006303
548.685857190952
543.605440024693
538.446525347663
533.209609786663
527.895145175809
522.503590480535
517.035364372338
511.490896875669
505.870577008388
500.174808019491
494.40395250609
488.558390290028
482.638460882682
476.64452406683
470.57690014591
464.43593564535
458.222029380288
451.935655950519
445.57724059377
439.147235772268
432.646043953343
426.07409730586
419.431777117042
412.719496889343
405.937618049238
399.086536874105
392.166596026324
385.178175816999
378.121601122886
370.997237346542
363.805392477818
356.546417897228
349.220605566682
341.828293584314
334.369758662412
326.845326350065
319.255258625071
311.599869179143
303.879410053198
296.094195046554
288.244479292173
280.330623973224
272.352948852835
264.311846322995
256.207622700213
248.040659556778
239.811248934149
231.519762262028
223.166477783823
214.751757418868
206.275866109962
197.739156845746
189.141881757265
180.48438544533
171.766907627547
162.989785063401
154.153245440939
145.257618342669
136.303119879109
127.29007299065
118.218682517665
109.08926523472
99.9020149969675
90.6572428171635
81.3551320932486
71.9959887806996
62.5799861229456
53.1074253643741
43.578470256253
33.9934182004327
24.3524239435967
14.6557821817812
4.90363959715095
)
;

boundaryField
{
    electrode
    {
        type            calculated;
        value           uniform 700.000000000197;
    }
    ground
    {
        type            calculated;
        value           uniform 0;
    }
    otherfaces
    {
        type            empty;
    }
}


// ************************************************************************* //
