/*--------------------------------*- C++ -*----------------------------------*\
| =========                 |                                                 |
| \\      /  F ield         | foam-extend: Open Source CFD                    |
|  \\    /   O peration     | Version:     4.0                                |
|   \\  /    A nd           | Web:         http://www.foam-extend.org         |
|    \\/     M anipulation  |                                                 |
\*---------------------------------------------------------------------------*/
FoamFile
{
    version     2.0;
    format      ascii;
    class       volScalarField;
    location    "4.9e-06";
    object      Sy_electron;
}
// * * * * * * * * * * * * * * * * * * * * * * * * * * * * * * * * * * * * * //

dimensions      [1 -3 -1 0 0 0 0];

internalField   nonuniform List<scalar> 
300
(
3.43427297643196e-09
3.43508270539328e-09
3.4354070171683e-09
3.43535889401397e-09
3.43534259475831e-09
3.43528034636376e-09
3.43518193350935e-09
3.43505264077e-09
3.43489002992894e-09
3.43469433756775e-09
3.43446535191128e-09
3.43420277158534e-09
3.43390634976933e-09
3.43357581642108e-09
3.43321089467305e-09
3.43281130086246e-09
3.43237674250259e-09
3.43190691828566e-09
3.43140151745923e-09
3.43086021920538e-09
3.43028269204879e-09
3.42966859320288e-09
3.42901756789499e-09
3.42832924868103e-09
3.42760325468556e-09
3.42683919092667e-09
3.42603664747842e-09
3.42519519868816e-09
3.42431440235494e-09
3.42339379882277e-09
3.42243291009862e-09
3.42143123922632e-09
3.42038826987848e-09
3.41930346580201e-09
3.41817626812851e-09
3.41700608777461e-09
3.41579229722812e-09
3.41453424689256e-09
3.41323134124387e-09
3.41188312844935e-09
3.4104891480478e-09
3.40989612718652e-09
3.40931632748729e-09
3.40871012894312e-09
3.40807664439476e-09
3.4074149913548e-09
3.40672426634489e-09
3.40600353636268e-09
3.40525183520474e-09
3.40446816143739e-09
3.40365147676755e-09
3.40280070465463e-09
3.40191472883968e-09
3.40099239203582e-09
3.4000324945213e-09
3.39903379283227e-09
3.39799499840621e-09
3.39691477630163e-09
3.39579174391069e-09
3.39462446970652e-09
3.39341147200752e-09
3.39215121774025e-09
3.3908421212495e-09
3.38948254310205e-09
3.38807078899924e-09
3.38660510864691e-09
3.38508369458224e-09
3.38350468112905e-09
3.38186614335611e-09
3.38016609604403e-09
3.37840249268356e-09
3.37657322450705e-09
3.3746761195509e-09
3.37270894175034e-09
3.37066939000249e-09
3.36855509736217e-09
3.36636363019251e-09
3.36409248733418e-09
3.36173909938228e-09
3.35930082781701e-09
3.35677496445896e-09
3.35415873062088e-09
3.35144927646886e-09
3.34864368038962e-09
3.34573894832196e-09
3.34273201320348e-09
3.33961973435054e-09
3.33639889685116e-09
3.33306621099263e-09
3.32961831175724e-09
3.32605175820987e-09
3.32236303290403e-09
3.31854854152539e-09
3.31460461209691e-09
3.31052749447515e-09
3.30631335974149e-09
3.30195829956324e-09
3.2974583255233e-09
3.29280936839385e-09
3.28800727738956e-09
3.2830478193254e-09
3.27792667769856e-09
3.27263945164007e-09
3.26718165494891e-09
3.26154871475378e-09
3.25573597021551e-09
3.24973867106919e-09
3.24355197590386e-09
3.23717095040999e-09
3.23059056528804e-09
3.22380569399063e-09
3.21681111021915e-09
3.20960148511569e-09
3.20217138418242e-09
3.19451526385149e-09
3.18662746765922e-09
3.17850222206056e-09
3.17013363183862e-09
3.16151567488901e-09
3.1526421965894e-09
3.14350690354344e-09
3.13410335680253e-09
3.12442496421151e-09
3.11446497222505e-09
3.10421645675642e-09
3.09367231318035e-09
3.08282524535356e-09
3.07166775374351e-09
3.06019212232781e-09
3.04839040366784e-09
3.03625440465881e-09
3.02377566762684e-09
3.0109454518876e-09
2.99775471541745e-09
2.98419408957166e-09
2.97025386001366e-09
2.9559239261786e-09
2.94119376961078e-09
2.92605253852382e-09
2.91048884663936e-09
2.89449041841266e-09
2.87804586931518e-09
2.86204932111009e-09
2.84649384169482e-09
2.83047257675148e-09
2.81396951406455e-09
2.79696845393929e-09
2.77945236428693e-09
2.7614032695417e-09
2.74280208942757e-09
2.7236287170694e-09
2.70386167994131e-09
2.68347815870862e-09
2.66245437033869e-09
2.640763494443e-09
2.61837986754575e-09
2.595271999205e-09
2.5714100779888e-09
2.54676305407248e-09
2.52129146103558e-09
2.49497991476105e-09
2.46780570777217e-09
2.43993069004964e-09
2.41162237996801e-09
2.38255597404225e-09
2.35210724347762e-09
2.32012211968655e-09
2.28559951408261e-09
2.246970078568e-09
2.20684579114877e-09
2.16494440772999e-09
2.12075268551952e-09
2.07324518372368e-09
2.02214336141512e-09
1.96827177537711e-09
1.91077902344079e-09
1.84815224766443e-09
1.78152985696405e-09
1.70670884795855e-09
1.6234742851005e-09
1.53811797106884e-09
1.45264191756844e-09
1.36832761354372e-09
1.28907184885059e-09
1.20478436068608e-09
1.12949902039501e-09
1.07239353075879e-09
1.0212825259408e-09
9.94914038206531e-10
9.82566271640875e-10
1.00077391258167e-09
1.05480902142545e-09
1.15785338636392e-09
1.32352418984162e-09
1.59814006006832e-09
2.04896019802935e-09
2.80413089920764e-09
4.00037750633373e-09
5.23930348633939e-09
6.38941979321036e-09
7.38264753315286e-09
7.34553022792402e-09
6.47442311883436e-09
5.23679361124894e-09
3.9993212083923e-09
3.06414451581613e-09
2.40041244637919e-09
1.97521171465765e-09
1.71111752464286e-09
1.54025471889133e-09
1.4418777951695e-09
1.37960528966183e-09
1.34718090620774e-09
1.33194118283898e-09
1.3235608243714e-09
1.322400233799e-09
1.32515923193771e-09
1.32957919170439e-09
1.33431459981661e-09
1.33839874819978e-09
1.34113756143459e-09
1.34126065350767e-09
1.33849948071618e-09
1.33361686803815e-09
1.32656437442667e-09
1.31736331086033e-09
1.30608746210167e-09
1.29284706291192e-09
1.27777702277579e-09
1.26102866907608e-09
1.24276329404712e-09
1.22314710923926e-09
1.20234726879595e-09
1.18052874444707e-09
1.15785189100204e-09
1.13447058255761e-09
1.11053082092483e-09
1.08616973971643e-09
1.06151492228649e-09
1.036684014046e-09
1.01178432509474e-09
9.86912960340712e-10
9.62152794586248e-10
9.37571409744051e-10
9.13235110582778e-10
8.89209674596645e-10
8.65551953909477e-10
8.42310726639182e-10
8.1952679899027e-10
7.97233651626751e-10
7.75458042955031e-10
7.54220638695687e-10
7.33536625176284e-10
7.13416365430709e-10
6.93866113008708e-10
6.74889909231352e-10
6.56484710784023e-10
6.3864294687832e-10
6.21358592334522e-10
6.04625474765696e-10
5.88433323486214e-10
5.72770573625814e-10
5.57624421693465e-10
5.42981228738534e-10
5.28826742848693e-10
5.15146301491333e-10
5.01925133719111e-10
4.89148377886335e-10
4.76801191063127e-10
4.64862359966895e-10
4.53305460537418e-10
4.42111538117359e-10
4.31268184610575e-10
4.20763934616828e-10
4.10588153233411e-10
4.00730754292359e-10
3.91182250253786e-10
3.81933796348322e-10
3.72977259157945e-10
3.64305262251031e-10
3.55911259469458e-10
3.4778900278677e-10
3.3961722581352e-10
3.31398477273401e-10
3.23381531464176e-10
3.1555094876988e-10
3.07917816240375e-10
3.00495459723388e-10
2.93298110059298e-10
2.85625949928791e-10
2.77618801925168e-10
2.69790589399787e-10
2.62194082486167e-10
2.53422362194309e-10
2.44235806693066e-10
2.3472511784344e-10
2.23068933847168e-10
2.09640606218645e-10
1.92746134013582e-10
1.68848163969419e-10
)
;

boundaryField
{
    electrode
    {
        type            zeroGradient;
    }
    ground
    {
        type            zeroGradient;
    }
    otherfaces
    {
        type            empty;
    }
}


// ************************************************************************* //
