/*--------------------------------*- C++ -*----------------------------------*\
| =========                 |                                                 |
| \\      /  F ield         | foam-extend: Open Source CFD                    |
|  \\    /   O peration     | Version:     4.0                                |
|   \\  /    A nd           | Web:         http://www.foam-extend.org         |
|    \\/     M anipulation  |                                                 |
\*---------------------------------------------------------------------------*/
FoamFile
{
    version     2.0;
    format      ascii;
    class       volScalarField;
    location    "4.9e-06";
    object      Te;
}
// * * * * * * * * * * * * * * * * * * * * * * * * * * * * * * * * * * * * * //

dimensions      [0 0 0 1 0 0 0];

internalField   nonuniform List<scalar> 
300
(
40300.1636854528
40300.4668456033
40300.6531571339
40300.7681317807
40300.9476081083
40301.1656919952
40301.4258114749
40301.729786311
40302.0768692959
40302.4672151042
40302.9008342581
40303.3777156355
40303.8978743427
40304.4613258857
40305.0680918596
40305.7182001293
40306.4116843463
40307.148584158
40307.9289452232
40308.7528192397
40309.6202639972
40310.5313434179
40311.4861276084
40312.4846929179
40313.5271219952
40314.6135038499
40315.7439339247
40316.918514165
40318.1373530869
40319.4005658496
40320.7082743372
40322.0606073111
40323.4577006867
40324.8996977896
40326.3867489048
40327.9190091593
40329.4966360296
40331.1197948106
40332.7886845249
40334.5035704932
40336.2647389531
40338.0723845441
40339.9266354497
40341.8276626572
40343.7756923068
40345.7709698489
40347.8137528673
40349.9043091259
40352.0429161093
40354.22986105
40356.4654411081
40358.7499635954
40361.0837462211
40363.4671173546
40365.9004162955
40368.3839935544
40370.9182111475
40373.5034429007
40376.1400747651
40378.8285051502
40381.5691452626
40384.362419462
40387.2087656361
40390.1086355802
40393.0624954002
40396.0708259295
40399.1341231614
40402.252898702
40405.42768024
40408.6590120344
40411.9474554264
40415.2935893719
40418.6980109931
40422.1613361582
40425.6842000841
40429.2672579668
40432.9111856367
40436.6166802459
40440.3844609844
40444.2152698299
40448.1098723329
40452.0690584358
40456.0936433288
40460.1844683502
40464.3424019286
40468.5683405646
40472.863209868
40477.2279656407
40481.6635950132
40486.1711176418
40490.7515869605
40495.4060914985
40500.1357562699
40504.941744231
40509.8252578123
40514.7875405406
40519.8298787394
40524.9536033249
40530.1600917055
40535.4507697814
40540.8271140583
40546.2906538833
40551.8429738111
40557.4857161047
40563.2205833874
40569.0493414571
40574.9738222635
40580.9959270803
40587.1176298672
40593.340980845
40599.6681103092
40606.1012326847
40612.6426508501
40619.294760755
40626.060056351
40632.9411348627
40639.9407024303
40647.0615801558
40654.3067105862
40661.6791646756
40669.1821492675
40676.8190151482
40684.5932657262
40692.5085663913
40700.5687546264
40708.7778509493
40717.1400707509
40725.6598371538
40734.3417950117
40743.190825895
40752.2120651116
40761.4109192052
40770.7930857971
40780.364575913
40790.1317367618
40800.1012795679
40810.2803037451
40820.6763274956
40831.2973619574
40842.1518958182
40853.2488290917
40864.5981405888
40876.2108832888
40888.0979799205
40900.2706066225
40912.7411682644
40925.5232222917
40938.631385386
40952.0814328086
40965.8903982476
40980.0767749958
40994.660599827
41009.6636840316
41025.1100082894
41041.0252935347
41057.438815443
41074.3813391409
41091.8882241234
41109.9989751639
41128.7552339991
41148.2136444174
41168.4357373209
41189.5637461937
41211.8002697341
41235.1437721882
41259.4897603646
41284.927156569
41311.6747013766
41339.9730228959
41370.0130764659
41401.9450430829
41435.8494683786
41471.5858476213
41509.3654671166
41549.9734161634
41593.4214677802
41639.3499848093
41688.7631623645
41742.4742751083
41800.513948338
41864.4934235663
41936.3496084397
42017.7179039227
42112.6426704486
42226.416959393
42365.1369588251
42538.9452819409
42761.8855179841
43051.4763269128
43432.7794951293
43940.9512605225
44629.7610368038
45565.5414106435
46829.8320592241
48579.5101139359
51026.7040897436
54498.4494870425
59391.328171374
65564.8270455592
73971.9050694983
86924.9425974863
104397.877431603
128361.107674995
161168.799804541
204440.722780356
257867.721158098
318481.696213963
381827.855197072
443680.624197425
501129.876994477
552867.283862733
598541.908436544
638439.100529027
673235.369148501
703557.631842975
730067.04408327
753413.413015795
774132.8161025
792652.925797503
809327.979569998
824434.547481222
838205.598167579
850856.493765287
862555.415908269
873442.050886091
883631.482681893
893219.403929587
902285.132251743
910894.335828101
919101.364779576
926951.027026252
934480.029209585
941718.146389121
948689.17815508
955411.736986393
961899.901569923
968163.763391666
974209.888379671
980041.704233043
985659.870591688
991062.49641332
996246.094992116
1001204.47347169
1005926.77375821
1010402.96735229
1014623.81032958
1018577.04752344
1022249.29973028
1025625.9669633
1028691.45678093
1031429.28197691
1033822.16799718
1035852.13148227
1037500.551659
1038747.97562989
1039573.9175154
1039951.46237495
1039878.97659512
1039324.79021499
1038268.95126297
1036689.4826931
1034564.87249775
1031873.23520656
1028592.44786808
1024700.08714564
1020173.365801
1014989.21051337
1009124.14989713
1002556.37680384
995262.151150849
987214.00295594
978387.595863899
968758.779488164
958300.415669441
946984.294914631
934780.819485224
921658.959425289
907586.043398849
892527.548281842
876446.814725659
859304.966948965
841060.297359845
821672.530980166
801098.426372289
779281.029656669
756163.296496687
731683.702583522
705763.794230841
678324.736289287
649279.502744685
618517.24945392
585909.8669969
551321.364226136
514564.113656499
475410.57300382
433577.700413611
388665.985731781
340121.783679566
287136.067291938
228648.998183707
)
;

boundaryField
{
    electrode
    {
        type            electronTemperature;
        seec            0.05;
        Tse             1000;
        Edepend         1;
        TFN             1000;
        field_emission  0;
        field_enhancement_factor 55;
        work_function   5;
        value           uniform 40300.1636854528;
    }
    ground
    {
        type            electronTemperature;
        seec            0.05;
        Tse             1000;
        Edepend         1;
        TFN             1000;
        field_emission  0;
        field_enhancement_factor 55;
        work_function   5;
        value           uniform 195467.226131971;
    }
    otherfaces
    {
        type            empty;
    }
}


// ************************************************************************* //
