/*--------------------------------*- C++ -*----------------------------------*\
| =========                 |                                                 |
| \\      /  F ield         | foam-extend: Open Source CFD                    |
|  \\    /   O peration     | Version:     4.0                                |
|   \\  /    A nd           | Web:         http://www.foam-extend.org         |
|    \\/     M anipulation  |                                                 |
\*---------------------------------------------------------------------------*/
FoamFile
{
    version     2.0;
    format      ascii;
    class       volScalarField;
    location    "4.9e-06";
    object      TeMean;
}
// * * * * * * * * * * * * * * * * * * * * * * * * * * * * * * * * * * * * * //

dimensions      [0 0 0 1 0 0 0];

internalField   nonuniform List<scalar> 
300
(
33728.1421837943
33728.4327795735
33728.5431906483
33728.5040292795
33728.4693791893
33728.420197763
33728.3592054583
33728.2895294199
33728.2114425729
33728.1257549947
33728.0332017315
33727.9344799403
33727.8302695497
33727.7212085556
33727.6079136636
33727.490978359
33727.3709712955
33727.2484424646
33727.1239225946
33726.9979229056
33726.8709387306
33726.7434467587
33726.615908158
33726.4887676109
33726.3624527844
33726.2373886809
33726.1139880978
33725.9926481651
33725.873761558
33725.7577013123
33725.6448191339
33725.5354774024
33725.4300459677
33725.3288765348
33725.2323099728
33725.1406710653
33725.0542790231
33724.9734590683
33724.8985309668
33724.8298027282
33724.7675727772
33724.7121451895
33724.6638199473
33724.6228893644
33724.5896422354
33724.5643632688
33724.5473324057
33724.5388235452
33724.5391002967
33724.5484158956
33724.5670135708
33724.5951457675
33724.6330849815
33724.6810997732
33724.7394610318
33724.8084497771
33724.8883365364
33724.9793839321
33725.0818635359
33725.1960475672
33725.3222068509
33725.4606226931
33725.6115553033
33725.7752572301
33725.952019543
33726.1421524633
33726.345961064
33726.5637479302
33726.7958181077
33727.0424854553
33727.3040620362
33727.5808466984
33727.8731590381
33728.181334581
33728.5056968881
33728.846560851
33729.2042691397
33729.5792021017
33729.9717277193
33730.3822095596
33730.8110516768
33731.2586721092
33731.7254744212
33732.2118575842
33732.7182287881
33733.2450331656
33733.79274812
33734.3618472896
33734.9528035767
33735.5661147582
33736.2022749097
33736.8617896106
33737.5452391567
33738.2531989192
33738.9862448534
33739.7449985346
33740.5300894944
33741.3421692819
33742.1819047285
33743.0499896516
33743.9471648373
33744.8741592767
33745.8317246126
33746.8206854197
33747.8418889758
33748.8962043966
33749.9845272325
33751.1077903917
33752.2669802196
33753.4631184221
33754.6972679532
33755.9705317754
33757.2840469274
33758.6390252959
33760.0367154545
33761.478400738
33762.9654144819
33764.4991775053
33766.0812017894
33767.7130136446
33769.3962006877
33771.1324413296
33772.9234851788
33774.7711881915
33776.6775264262
33778.6445482531
33780.6743702013
33782.7692416021
33784.9315469934
33787.1637630521
33789.4684920157
33791.8485019195
33794.3067290938
33796.8462168778
33799.4701699528
33802.1820710507
33804.9856364047
33807.884790996
33810.8837074293
33813.9868418776
33817.1989638388
33820.5251668502
33823.9708742931
33827.5418735468
33831.2444405429
33835.0854272765
33839.0722745351
33843.213081152
33847.5165847358
33851.9923068956
33856.6507859273
33861.5035734841
33866.5633925908
33871.8444334512
33877.362384562
33883.1348166873
33889.1813782645
33895.5247850126
33902.1911800726
33909.2137082106
33916.6457033211
33924.5583082141
33933.0093822519
33942.0291807525
33951.6543061809
33961.9676991479
33973.0904308326
33985.1538689688
33998.2827160686
34012.5728723501
34028.0675096301
34044.8196909503
34062.9816989632
34082.632958608
34103.7541696161
34126.4900370754
34151.0175319631
34177.5957749803
34206.9710735569
34240.3813845014
34279.8534013906
34329.0004043977
34393.4603307501
34481.732324274
34606.9790981061
34788.6998607789
35055.3879554153
35449.4404533742
36034.2868426941
36906.3742267479
38214.9335744946
40196.4205964064
43235.180036256
48079.7001136562
55477.1569739493
65913.3415715007
81119.5154466462
101843.012658245
129661.971018269
165079.368590334
207651.494808276
255861.966845144
307902.77137388
361592.949099858
414873.496501044
465995.97751775
513638.899187368
556974.081534542
595709.762626307
629971.553153367
660119.390561946
686622.111853334
709988.74148471
730694.975489841
749157.242712473
765746.652914116
780775.909553421
794501.752814962
807133.408069082
818843.181477911
829770.764705094
840029.597619653
849718.397854097
858920.857311435
867704.683128504
876125.26339548
884228.003778747
892049.814030581
899620.407904243
906963.398902745
914097.159109961
921035.5325272
927788.421578001
934362.178978029
940760.076171204
946982.734636753
953028.349998403
958892.972872852
964570.733965866
970054.055031962
975333.826349951
980399.531190034
985239.545548953
989841.084231262
994190.333807299
998272.963501218
1002073.67164836
1005576.55107006
1008765.33236067
1011622.9744413
1014132.63027299
1016277.38965472
1018039.70216367
1019401.77593236
1020345.42572702
1020852.1115316
1020900.05796156
1020475.28369721
1019563.51676528
1018141.63163358
1016190.80657028
1013691.80420676
1010625.50722082
1006972.60724014
1002713.58686972
997829.171815232
992299.293120027
986103.208657952
979220.67607144
971630.432271452
963310.52062635
954238.804765786
944392.21728112
933746.445055676
922275.921819246
909953.788708131
896751.765501697
882639.94991996
867586.658320901
851558.136831002
834518.510858848
816429.454200988
797255.217383773
776950.110190277
755461.10116528
732737.048032801
708715.107699321
683321.780282475
656485.460928519
628119.628515481
598117.271072724
566360.237409335
532712.112722205
496992.914109354
458985.87301389
418415.738587656
374893.70528727
327889.206619947
276626.357708382
220078.905146203
)
;

boundaryField
{
    electrode
    {
        type            calculated;
        value           uniform 33728.1421837968;
    }
    ground
    {
        type            calculated;
        value           uniform 188014.790376628;
    }
    otherfaces
    {
        type            empty;
    }
}


// ************************************************************************* //
