/*--------------------------------*- C++ -*----------------------------------*\
| =========                 |                                                 |
| \\      /  F ield         | foam-extend: Open Source CFD                    |
|  \\    /   O peration     | Version:     4.0                                |
|   \\  /    A nd           | Web:         http://www.foam-extend.org         |
|    \\/     M anipulation  |                                                 |
\*---------------------------------------------------------------------------*/
FoamFile
{
    version     2.0;
    format      ascii;
    class       volScalarField;
    location    "5.7e-06";
    object      Ar;
}
// * * * * * * * * * * * * * * * * * * * * * * * * * * * * * * * * * * * * * //

dimensions      [0 0 0 1 0 0 0];

internalField   nonuniform List<scalar> 
300
(
3.21880285041235e+22
3.21880284614473e+22
3.21880284893305e+22
3.21880284998939e+22
3.21880285182453e+22
3.21880285438096e+22
3.21880285749981e+22
3.21880286124359e+22
3.21880286560021e+22
3.21880287056636e+22
3.21880287614235e+22
3.21880288232689e+22
3.21880288911932e+22
3.21880289651915e+22
3.21880290452603e+22
3.21880291313971e+22
3.21880292236037e+22
3.21880293218784e+22
3.21880294262201e+22
3.21880295366298e+22
3.21880296531094e+22
3.21880297756613e+22
3.21880299042884e+22
3.21880300389945e+22
3.21880301797997e+22
3.21880303266963e+22
3.21880304796908e+22
3.21880306387922e+22
3.2188030803998e+22
3.2188030975315e+22
3.21880311527691e+22
3.21880313363617e+22
3.21880315260877e+22
3.21880317219554e+22
3.21880319239738e+22
3.21880321321528e+22
3.21880323465072e+22
3.21880325670464e+22
3.21880327937794e+22
3.21880330267196e+22
3.21880332658807e+22
3.21880335112754e+22
3.21880337629184e+22
3.21880340208248e+22
3.21880342850111e+22
3.2188034555494e+22
3.21880348322935e+22
3.21880351154295e+22
3.21880354049319e+22
3.21880357008246e+22
3.21880360031436e+22
3.21880363119001e+22
3.21880366271241e+22
3.21880369488227e+22
3.21880372770133e+22
3.21880376117058e+22
3.21880379529239e+22
3.21880383006939e+22
3.21880386550427e+22
3.21880390159948e+22
3.21880393835601e+22
3.21880397577781e+22
3.21880401386971e+22
3.21880405263682e+22
3.21880409208233e+22
3.21880413220733e+22
3.2188041730153e+22
3.21880421450979e+22
3.2188042566944e+22
3.21880429957278e+22
3.21880434314884e+22
3.21880438742715e+22
3.21880443241173e+22
3.21880447810574e+22
3.21880452451445e+22
3.2188045716417e+22
3.21880461949081e+22
3.21880466806618e+22
3.2188047173698e+22
3.21880476740871e+22
3.21880481818348e+22
3.21880486969789e+22
3.21880492195628e+22
3.21880497496243e+22
3.21880502872182e+22
3.21880508323768e+22
3.21880513851283e+22
3.2188051945512e+22
3.21880525135794e+22
3.2188053089362e+22
3.21880536729048e+22
3.21880542642916e+22
3.21880548635054e+22
3.21880554705825e+22
3.21880560855604e+22
3.21880567084762e+22
3.21880573393666e+22
3.2188057978268e+22
3.21880586252268e+22
3.21880592802777e+22
3.21880599434486e+22
3.21880606147717e+22
3.21880612943112e+22
3.21880619820698e+22
3.21880626780879e+22
3.21880633824048e+22
3.21880640950348e+22
3.21880648160261e+22
3.21880655453954e+22
3.21880662831639e+22
3.21880670293588e+22
3.21880677840067e+22
3.21880685471388e+22
3.21880693187796e+22
3.21880700989523e+22
3.21880708876947e+22
3.21880716850446e+22
3.2188072490995e+22
3.21880733055614e+22
3.21880741287676e+22
3.2188074960654e+22
3.21880758012209e+22
3.21880766505092e+22
3.21880775085193e+22
3.21880783752492e+22
3.21880792507097e+22
3.21880801349362e+22
3.21880810279174e+22
3.21880819296692e+22
3.21880828401977e+22
3.21880837595213e+22
3.21880846876459e+22
3.21880856245771e+22
3.21880865703409e+22
3.21880875249726e+22
3.21880884884511e+22
3.21880894607694e+22
3.21880904419483e+22
3.21880914320019e+22
3.21880924309151e+22
3.21880934386965e+22
3.21880944553545e+22
3.21880954809148e+22
3.21880965153972e+22
3.21880975588064e+22
3.21880986111302e+22
3.21880996723834e+22
3.21881007424724e+22
3.21881018214578e+22
3.21881029094025e+22
3.21881040062687e+22
3.21881051120628e+22
3.21881062268196e+22
3.21881073504993e+22
3.21881084831169e+22
3.21881096245749e+22
3.21881107750592e+22
3.21881119341239e+22
3.2188113102264e+22
3.21881142786261e+22
3.21881154640263e+22
3.21881166574244e+22
3.21881178591765e+22
3.21881190706296e+22
3.21881202794654e+22
3.21881214905555e+22
3.21881227165987e+22
3.2188123950632e+22
3.21881251925018e+22
3.21881264350803e+22
3.21881276788316e+22
3.21881289228657e+22
3.21881301635269e+22
3.21881314115738e+22
3.21881326849809e+22
3.2188133914829e+22
3.21881351262352e+22
3.21881363884448e+22
3.21881375935781e+22
3.218813874136e+22
3.21881399381388e+22
3.21881410490175e+22
3.21881420936486e+22
3.21881431622292e+22
3.21881441206693e+22
3.21881449926611e+22
3.21881458613906e+22
3.21881466215829e+22
3.21881472788825e+22
3.21881479020774e+22
3.21881484448078e+22
3.2188148902652e+22
3.21881492696539e+22
3.21881496248043e+22
3.21881498726788e+22
3.21881500380637e+22
3.218815012038e+22
3.21881501905502e+22
3.21881502555235e+22
3.21881503050384e+22
3.21881503081624e+22
3.21881503134598e+22
3.21881503132567e+22
3.21881503451058e+22
3.2188150400061e+22
3.21881504681413e+22
3.21881505425864e+22
3.2188150611945e+22
3.2188150674511e+22
3.21881507300063e+22
3.21881507789778e+22
3.21881508222469e+22
3.21881508629696e+22
3.2188150919937e+22
3.21881509712936e+22
3.21881510194523e+22
3.21881510624682e+22
3.21881511032477e+22
3.21881511396e+22
3.21881511744593e+22
3.21881512054096e+22
3.21881512355561e+22
3.21881512624209e+22
3.21881512889277e+22
3.21881513137481e+22
3.21881513524528e+22
3.21881513873444e+22
3.21881514227025e+22
3.21881514543962e+22
3.21881514868465e+22
3.21881515157342e+22
3.21881515456291e+22
3.21881515719989e+22
3.2188151599574e+22
3.21881516236533e+22
3.2188151649105e+22
3.21881516710548e+22
3.21881516945498e+22
3.2188151714504e+22
3.21881517361617e+22
3.21881517542064e+22
3.21881517750142e+22
3.2188151801461e+22
3.21881518296795e+22
3.21881518543428e+22
3.21881518809256e+22
3.21881519039247e+22
3.21881519290025e+22
3.21881519504496e+22
3.21881519741072e+22
3.21881519940924e+22
3.21881520164018e+22
3.21881520349967e+22
3.21881520560257e+22
3.21881520732861e+22
3.21881520930906e+22
3.2188152109099e+22
3.21881521277366e+22
3.21881521425936e+22
3.21881521601174e+22
3.21881521738583e+22
3.218815219038e+22
3.21881522030387e+22
3.218815221862e+22
3.21881522302917e+22
3.21881522453032e+22
3.21881522625338e+22
3.21881522828061e+22
3.21881522990837e+22
3.21881523184942e+22
3.2188152333851e+22
3.21881523524549e+22
3.21881523669797e+22
3.21881523848515e+22
3.21881523985886e+22
3.21881524157623e+22
3.218815242873e+22
3.21881524452215e+22
3.21881524574221e+22
3.21881524732535e+22
3.21881524847158e+22
3.21881524999662e+22
3.21881525109426e+22
3.21881525258659e+22
3.21881525362661e+22
3.21881525506761e+22
3.21881525604724e+22
3.2188152574389e+22
3.21881525836015e+22
3.2188152597407e+22
3.21881526065168e+22
3.21881526199969e+22
3.21881526285498e+22
3.21881526420878e+22
3.21881526507052e+22
3.21881526641258e+22
3.21881526729428e+22
3.21881526869738e+22
3.21881526964648e+22
3.21881527145811e+22
)
;

boundaryField
{
    electrode
    {
        type            zeroGradient;
    }
    ground
    {
        type            zeroGradient;
    }
    otherfaces
    {
        type            empty;
    }
}


// ************************************************************************* //
