/*--------------------------------*- C++ -*----------------------------------*\
| =========                 |                                                 |
| \\      /  F ield         | foam-extend: Open Source CFD                    |
|  \\    /   O peration     | Version:     4.0                                |
|   \\  /    A nd           | Web:         http://www.foam-extend.org         |
|    \\/     M anipulation  |                                                 |
\*---------------------------------------------------------------------------*/
FoamFile
{
    version     2.0;
    format      ascii;
    class       volScalarField;
    location    "5.7e-06";
    object      Arp1;
}
// * * * * * * * * * * * * * * * * * * * * * * * * * * * * * * * * * * * * * //

dimensions      [0 0 0 1 0 0 0];

internalField   nonuniform List<scalar> 
300
(
6.24446814312038e+16
6.2487022093747e+16
6.24612713745246e+16
6.24564055987096e+16
6.24471056560977e+16
6.2433917617645e+16
6.24183908591115e+16
6.23998692937274e+16
6.23784506860982e+16
6.23541482464031e+16
6.23269455133027e+16
6.22968437523375e+16
6.22638401594823e+16
6.22279317342599e+16
6.21891156551638e+16
6.21473888220724e+16
6.21027479828464e+16
6.20551897196877e+16
6.2004710438269e+16
6.19513063668877e+16
6.18949735510705e+16
6.18357078494984e+16
6.17735049293404e+16
6.17083602611924e+16
6.16402691145255e+16
6.15692265528777e+16
6.14952274282994e+16
6.14182663767961e+16
6.13383378132107e+16
6.12554359258142e+16
6.11695546713128e+16
6.10806877701438e+16
6.09888287009331e+16
6.08939706956811e+16
6.07961067352297e+16
6.06952295439556e+16
6.05913315854054e+16
6.04844050580393e+16
6.0374441890305e+16
6.02614337369437e+16
6.01453719751982e+16
6.00262477005896e+16
5.99040517239545e+16
5.97787745682366e+16
5.96504064653971e+16
5.9518937353924e+16
5.93843568768949e+16
5.92466543810428e+16
5.91058189148417e+16
5.89618392271547e+16
5.88147037610795e+16
5.86644006427563e+16
5.85109177147427e+16
5.8354242571577e+16
5.81943626140889e+16
5.80312649308618e+16
5.78649357859308e+16
5.76953599301643e+16
5.75225216682497e+16
5.73464104112262e+16
5.71670270779803e+16
5.69843464031289e+16
5.67983410015265e+16
5.6608995544632e+16
5.6416292515755e+16
5.62202138373179e+16
5.60207411793882e+16
5.58178560231522e+16
5.56115396874401e+16
5.54017733405905e+16
5.5188538008587e+16
5.49718145821366e+16
5.47515838251103e+16
5.45278263836537e+16
5.43005227955206e+16
5.40696535012233e+16
5.38351988556449e+16
5.35971391402163e+16
5.33554545762728e+16
5.31101253393629e+16
5.28611315737231e+16
5.26084534077985e+16
5.23520709707763e+16
5.2091964409048e+16
5.18281139037389e+16
5.15604996890158e+16
5.12891020702695e+16
5.10139014433026e+16
5.07348783140423e+16
5.04520133180906e+16
5.01652872411889e+16
4.98746810399646e+16
4.95801758626437e+16
4.92817530700488e+16
4.89793942573388e+16
4.86730812750526e+16
4.83627962507936e+16
4.80485216110368e+16
4.77302401024039e+16
4.74079348133436e+16
4.70815891957978e+16
4.67511870862888e+16
4.64167127269754e+16
4.60781507869249e+16
4.57354863824628e+16
4.53887050974117e+16
4.50377930033581e+16
4.46827366790034e+16
4.43235232291359e+16
4.3960140303706e+16
4.3592576115683e+16
4.32208194586621e+16
4.28448597243314e+16
4.24646869187997e+16
4.2080291678588e+16
4.16916652864714e+16
4.1298799686249e+16
4.09016874972227e+16
4.05003220286014e+16
4.0094697292884e+16
3.96848080194695e+16
3.92706496679781e+16
3.88522184412821e+16
3.84295112988454e+16
3.80025259705084e+16
3.75712609706277e+16
3.71357156125685e+16
3.66958900263244e+16
3.62517851741491e+16
3.5803402873236e+16
3.53507458154806e+16
3.48938175974377e+16
3.44326227450357e+16
3.39671667543814e+16
3.34974561439492e+16
3.30234984590561e+16
3.25453024053874e+16
3.20628778938729e+16
3.15762360737959e+16
3.10853892910181e+16
3.05903519938609e+16
3.00911403645989e+16
2.9587769217007e+16
2.90802602770198e+16
2.85686438959287e+16
2.80529242936638e+16
2.75331144763388e+16
2.70093393857917e+16
2.64815876390829e+16
2.59498674990923e+16
2.54142292170119e+16
2.48747188090107e+16
2.4331393784701e+16
2.37843283015375e+16
2.32335619158366e+16
2.26792817163207e+16
2.21213883865923e+16
2.15603759939591e+16
2.09958201350873e+16
2.04286749521099e+16
1.98582208907834e+16
1.92855792060698e+16
1.87105106713376e+16
1.81317568117045e+16
1.7561860908702e+16
1.6996442607404e+16
1.64233255626334e+16
1.58498760701178e+16
1.52765570445662e+16
1.47107721900729e+16
1.41523503812776e+16
1.36025294322988e+16
1.30651818549125e+16
1.25294337484229e+16
1.19765946348048e+16
1.14743369254772e+16
1.09960801763674e+16
1.04703341859246e+16
1.00015072255141e+16
9.58586272113464e+15
9.11225183532515e+15
8.70969701843637e+15
8.35223622968532e+15
7.9429448836531e+15
7.609031379677e+15
7.32051582900776e+15
6.98862361474155e+15
6.71419796157547e+15
6.48882788804877e+15
6.24276551616998e+15
6.02316042291781e+15
5.83678087727976e+15
5.69292418114312e+15
5.51273224247367e+15
5.37110302223154e+15
5.24194845420942e+15
5.15846947307824e+15
5.08567634849193e+15
5.02119581519397e+15
4.97417547317908e+15
4.97655858965334e+15
4.99029094932928e+15
5.02475088234512e+15
5.03519108382426e+15
5.02226878919808e+15
4.98974077457426e+15
4.94274060916729e+15
4.89304000266221e+15
4.84398331382852e+15
4.79763713031372e+15
4.75506004453331e+15
4.71682171000033e+15
4.67974340104599e+15
4.62595131148075e+15
4.57782985646427e+15
4.53272323388152e+15
4.49282160540338e+15
4.45534905971027e+15
4.42260837841434e+15
4.39172814093855e+15
4.3651519739255e+15
4.33992773315949e+15
4.31862159799774e+15
4.29823783254775e+15
4.28001441945772e+15
4.24821774129897e+15
4.22050083344962e+15
4.19255991291483e+15
4.1684860394123e+15
4.14381281511989e+15
4.12283725299001e+15
4.10095222312254e+15
4.08264932856521e+15
4.0631751476625e+15
4.04720599200954e+15
4.0298337240406e+15
4.01592735765077e+15
4.00040177457171e+15
3.98833741440533e+15
3.97446458086822e+15
3.96408657993615e+15
3.95082394792956e+15
3.93177732289164e+15
3.91082059191198e+15
3.89326820450819e+15
3.87362511566813e+15
3.85740465872871e+15
3.8389341281286e+15
3.8239190376758e+15
3.806525336602e+15
3.79262863616722e+15
3.77623657948119e+15
3.76339130157785e+15
3.74793987487257e+15
3.73609277899872e+15
3.72153913474117e+15
3.71062083014561e+15
3.69692797056844e+15
3.68686190208142e+15
3.67398337648448e+15
3.66473651279849e+15
3.65257082787546e+15
3.64412776919138e+15
3.63263050974564e+15
3.62491412697924e+15
3.61373352117432e+15
3.60021744900269e+15
3.58354713864728e+15
3.57077003787453e+15
3.55475332871629e+15
3.5426920103421e+15
3.52728049285971e+15
3.5158582028614e+15
3.5009935089982e+15
3.49018030948811e+15
3.47584893303254e+15
3.46564392789846e+15
3.45183570425363e+15
3.44223713748806e+15
3.42893317602261e+15
3.41992508332144e+15
3.40709630186016e+15
3.39864872839536e+15
3.38625956217315e+15
3.37833237437675e+15
3.3663444849371e+15
3.35891082735026e+15
3.34729586880357e+15
3.34033392962603e+15
3.32906914195127e+15
3.32255604155028e+15
3.31160884405246e+15
3.30552121247653e+15
3.29488792357153e+15
3.28920215718674e+15
3.27884835827106e+15
3.27354193460162e+15
3.26341393757258e+15
3.258407689189e+15
3.24573376414326e+15
)
;

boundaryField
{
    electrode
    {
        type            driftDiffusionPositiveIonDensity;
        seec            0;
        fieldName       Arp1;
        value           uniform 6.22648737712234e+16;
    }
    ground
    {
        type            driftDiffusionPositiveIonDensity;
        seec            0;
        fieldName       Arp1;
        value           uniform 3.24573376414326e+15;
    }
    otherfaces
    {
        type            empty;
    }
}


// ************************************************************************* //
