/*--------------------------------*- C++ -*----------------------------------*\
| =========                 |                                                 |
| \\      /  F ield         | foam-extend: Open Source CFD                    |
|  \\    /   O peration     | Version:     4.0                                |
|   \\  /    A nd           | Web:         http://www.foam-extend.org         |
|    \\/     M anipulation  |                                                 |
\*---------------------------------------------------------------------------*/
FoamFile
{
    version     2.0;
    format      ascii;
    class       volVectorField;
    location    "5.7e-06";
    object      J_Arp1;
}
// * * * * * * * * * * * * * * * * * * * * * * * * * * * * * * * * * * * * * //

dimensions      [1 -1 -1 0 0 0 0];

internalField   nonuniform List<vector> 
300
(
(1.83915416389053e+16 -0 -0)
(6.66596858429217e+16 -0 -0)
(1.1944725094922e+17 -0 -0)
(1.66043362994279e+17 -0 -0)
(2.13342632873772e+17 -0 -0)
(2.60928151990382e+17 -0 -0)
(3.08382444377232e+17 -0 -0)
(3.55886987868661e+17 -0 -0)
(4.03413152458039e+17 -0 -0)
(4.50959999101014e+17 -0 -0)
(4.98533898016439e+17 -0 -0)
(5.46136413835216e+17 -0 -0)
(5.93770297944039e+17 -0 -0)
(6.41438330798765e+17 -0 -0)
(6.89143251519663e+17 -0 -0)
(7.3688788268521e+17 -0 -0)
(7.84675095823155e+17 -0 -0)
(8.32507818437637e+17 -0 -0)
(8.80389038208342e+17 -0 -0)
(9.28321804909793e+17 -0 -0)
(9.76309233136706e+17 -0 -0)
(1.02435450404603e+18 -0 -0)
(1.07246086755516e+18 -0 -0)
(1.1206316439271e+18 -0 -0)
(1.16887022491349e+18 -0 -0)
(1.21718007494581e+18 -0 -0)
(1.26556473176933e+18 -0 -0)
(1.3140278069391e+18 -0 -0)
(1.36257298616821e+18 -0 -0)
(1.41120402849586e+18 -0 -0)
(1.45992476639448e+18 -0 -0)
(1.50873910456953e+18 -0 -0)
(1.55765101879434e+18 -0 -0)
(1.6066645544351e+18 -0 -0)
(1.65578382436199e+18 -0 -0)
(1.70501300683729e+18 -0 -0)
(1.75435634282371e+18 -0 -0)
(1.80381813279274e+18 -0 -0)
(1.85340273372277e+18 -0 -0)
(1.90311455500294e+18 -0 -0)
(1.95295805451342e+18 -0 -0)
(2.00293773407603e+18 -0 -0)
(2.0530581345577e+18 -0 -0)
(2.10332383055861e+18 -0 -0)
(2.15373942468589e+18 -0 -0)
(2.20430954194079e+18 -0 -0)
(2.25503882267949e+18 -0 -0)
(2.30593191689411e+18 -0 -0)
(2.35699347785816e+18 -0 -0)
(2.4082281531067e+18 -0 -0)
(2.45964057097519e+18 -0 -0)
(2.51123532149314e+18 -0 -0)
(2.5630169618905e+18 -0 -0)
(2.61499006731325e+18 -0 -0)
(2.66715929926877e+18 -0 -0)
(2.71952931666129e+18 -0 -0)
(2.77210421051952e+18 -0 -0)
(2.82488655822911e+18 -0 -0)
(2.87787796035909e+18 -0 -0)
(2.93108486671487e+18 -0 -0)
(2.98452825156586e+18 -0 -0)
(3.03823190204631e+18 -0 -0)
(3.09220670172827e+18 -0 -0)
(3.14645590520278e+18 -0 -0)
(3.20098181892683e+18 -0 -0)
(3.25578648350848e+18 -0 -0)
(3.31087178783268e+18 -0 -0)
(3.36623951393008e+18 -0 -0)
(3.42189133596475e+18 -0 -0)
(3.47782880730044e+18 -0 -0)
(3.53405334452832e+18 -0 -0)
(3.59056621068646e+18 -0 -0)
(3.64736849899001e+18 -0 -0)
(3.70446111647733e+18 -0 -0)
(3.76184476802246e+18 -0 -0)
(3.81951994125072e+18 -0 -0)
(3.87748689125316e+18 -0 -0)
(3.93574562632559e+18 -0 -0)
(3.99429589401676e+18 -0 -0)
(4.05313716763247e+18 -0 -0)
(4.11226863319751e+18 -0 -0)
(4.17168917725199e+18 -0 -0)
(4.23139737509019e+18 -0 -0)
(4.29139147920164e+18 -0 -0)
(4.35166940908928e+18 -0 -0)
(4.41222874096252e+18 -0 -0)
(4.47306669858032e+18 -0 -0)
(4.53418014428386e+18 -0 -0)
(4.59556557120575e+18 -0 -0)
(4.65721909571695e+18 -0 -0)
(4.7191364508375e+18 -0 -0)
(4.78131298030531e+18 -0 -0)
(4.84374363316317e+18 -0 -0)
(4.90642295953838e+18 -0 -0)
(4.96934510679418e+18 -0 -0)
(5.03250381646833e+18 -0 -0)
(5.09589242218144e+18 -0 -0)
(5.15950384819829e+18 -0 -0)
(5.22333060882469e+18 -0 -0)
(5.2873648085788e+18 -0 -0)
(5.35159814320336e+18 -0 -0)
(5.41602190131476e+18 -0 -0)
(5.48062696717023e+18 -0 -0)
(5.54540382399982e+18 -0 -0)
(5.61034255810333e+18 -0 -0)
(5.67543286390373e+18 -0 -0)
(5.74066404970738e+18 -0 -0)
(5.80602504420709e+18 -0 -0)
(5.87150440385303e+18 -0 -0)
(5.93709032069361e+18 -0 -0)
(6.00277063126193e+18 -0 -0)
(6.06853282588982e+18 -0 -0)
(6.13436405896084e+18 -0 -0)
(6.20025115942248e+18 -0 -0)
(6.26618064236986e+18 -0 -0)
(6.33213872080235e+18 -0 -0)
(6.39811131801202e+18 -0 -0)
(6.46408408069153e+18 -0 -0)
(6.53004239213068e+18 -0 -0)
(6.59597138607e+18 -0 -0)
(6.66185596087363e+18 -0 -0)
(6.72768079365224e+18 -0 -0)
(6.79343035521642e+18 -0 -0)
(6.85908892445539e+18 -0 -0)
(6.92464060368887e+18 -0 -0)
(6.99006933307935e+18 -0 -0)
(7.05535890583163e+18 -0 -0)
(7.12049298280581e+18 -0 -0)
(7.18545510684873e+18 -0 -0)
(7.25022871746881e+18 -0 -0)
(7.31479716416025e+18 -0 -0)
(7.37914372086675e+18 -0 -0)
(7.44325159715456e+18 -0 -0)
(7.50710395113454e+18 -0 -0)
(7.5706839078213e+18 -0 -0)
(7.63397455027439e+18 -0 -0)
(7.69695894919197e+18 -0 -0)
(7.75962018684472e+18 -0 -0)
(7.82194133138991e+18 -0 -0)
(7.88390532660638e+18 -0 -0)
(7.94549538357645e+18 -0 -0)
(8.00669503307983e+18 -0 -0)
(8.06748604130265e+18 -0 -0)
(8.12785158274875e+18 -0 -0)
(8.18778061633634e+18 -0 -0)
(8.24724863123712e+18 -0 -0)
(8.3062225511459e+18 -0 -0)
(8.36473766165378e+18 -0 -0)
(8.42280736258428e+18 -0 -0)
(8.48041763058055e+18 -0 -0)
(8.53755330404285e+18 -0 -0)
(8.59419628568007e+18 -0 -0)
(8.65032950057451e+18 -0 -0)
(8.70594166103265e+18 -0 -0)
(8.76099612463416e+18 -0 -0)
(8.81552543623926e+18 -0 -0)
(8.86941187475966e+18 -0 -0)
(8.92281625861155e+18 -0 -0)
(8.97545264941508e+18 -0 -0)
(9.02766524842192e+18 -0 -0)
(9.07901995060266e+18 -0 -0)
(9.12988885708938e+18 -0 -0)
(9.18016059850992e+18 -0 -0)
(9.22870153040823e+18 -0 -0)
(9.27941427997881e+18 -0 -0)
(9.327392691289e+18 -0 -0)
(9.37488358422629e+18 -0 -0)
(9.42226568249127e+18 -0 -0)
(9.46790339496898e+18 -0 -0)
(9.51451374194526e+18 -0 -0)
(9.559278196078e+18 -0 -0)
(9.60409613585455e+18 -0 -0)
(9.64860236622813e+18 -0 -0)
(9.6911503235171e+18 -0 -0)
(9.72793893017321e+18 -0 -0)
(9.77635468352343e+18 -0 -0)
(9.81495944725647e+18 -0 -0)
(9.84878736835413e+18 -0 -0)
(9.88914646320497e+18 -0 -0)
(9.92976957550315e+18 -0 -0)
(9.95506086653455e+18 -0 -0)
(9.9993011473394e+18 -0 -0)
(1.00244856778369e+19 -0 -0)
(1.00465246707076e+19 -0 -0)
(1.0084622936071e+19 -0 -0)
(1.01044463142847e+19 -0 -0)
(1.01273018552345e+19 -0 -0)
(1.0153462332855e+19 -0 -0)
(1.01788234914574e+19 -0 -0)
(1.01957378953932e+19 -0 -0)
(1.02245099550961e+19 -0 -0)
(1.02443836281918e+19 -0 -0)
(1.02801926617309e+19 -0 -0)
(1.02973066430005e+19 -0 -0)
(1.03487790114613e+19 -0 -0)
(1.03784173590405e+19 -0 -0)
(1.04581272764971e+19 -0 -0)
(1.05246344424434e+19 -0 -0)
(1.06697610615067e+19 -0 -0)
(1.08273091509562e+19 -0 -0)
(1.10722540765265e+19 -0 -0)
(1.13269968346435e+19 -0 -0)
(1.16144255334985e+19 -0 -0)
(1.18309773195166e+19 -0 -0)
(1.20243067628715e+19 -0 -0)
(1.21881389372789e+19 -0 -0)
(1.22983292868036e+19 -0 -0)
(1.23829992581393e+19 -0 -0)
(1.24512148296664e+19 -0 -0)
(1.25092822889934e+19 -0 -0)
(1.25611347017635e+19 -0 -0)
(1.26094938972466e+19 -0 -0)
(1.26553706881691e+19 -0 -0)
(1.26986544532792e+19 -0 -0)
(1.27443711551402e+19 -0 -0)
(1.27865409590829e+19 -0 -0)
(1.28323424457706e+19 -0 -0)
(1.28748168181549e+19 -0 -0)
(1.29213974302622e+19 -0 -0)
(1.29644601503529e+19 -0 -0)
(1.30118184186398e+19 -0 -0)
(1.30552735728917e+19 -0 -0)
(1.31030023073413e+19 -0 -0)
(1.31463980327588e+19 -0 -0)
(1.31942249480585e+19 -0 -0)
(1.32365295667266e+19 -0 -0)
(1.32849421118295e+19 -0 -0)
(1.33265117112182e+19 -0 -0)
(1.3374553823939e+19 -0 -0)
(1.34151372171227e+19 -0 -0)
(1.34624158238599e+19 -0 -0)
(1.35016820186343e+19 -0 -0)
(1.35479141847575e+19 -0 -0)
(1.35856251302054e+19 -0 -0)
(1.363060056833e+19 -0 -0)
(1.36665567662739e+19 -0 -0)
(1.37101244255049e+19 -0 -0)
(1.37441566966079e+19 -0 -0)
(1.37862009874744e+19 -0 -0)
(1.38182286363256e+19 -0 -0)
(1.38587577091679e+19 -0 -0)
(1.38888158822893e+19 -0 -0)
(1.39275912255568e+19 -0 -0)
(1.39560170393092e+19 -0 -0)
(1.39932009371358e+19 -0 -0)
(1.40195918852176e+19 -0 -0)
(1.40552004574814e+19 -0 -0)
(1.40795394312947e+19 -0 -0)
(1.41135768583326e+19 -0 -0)
(1.41359489601595e+19 -0 -0)
(1.41685079859972e+19 -0 -0)
(1.41890249019504e+19 -0 -0)
(1.42202270681908e+19 -0 -0)
(1.42390121169704e+19 -0 -0)
(1.42689921355102e+19 -0 -0)
(1.42862025691996e+19 -0 -0)
(1.43149993070088e+19 -0 -0)
(1.43307837392119e+19 -0 -0)
(1.4358375081909e+19 -0 -0)
(1.43728164146701e+19 -0 -0)
(1.4399320099842e+19 -0 -0)
(1.44122578230903e+19 -0 -0)
(1.44378354765625e+19 -0 -0)
(1.44493066997004e+19 -0 -0)
(1.44738560408728e+19 -0 -0)
(1.44840633108423e+19 -0 -0)
(1.45078654662314e+19 -0 -0)
(1.45169483857406e+19 -0 -0)
(1.45398868272181e+19 -0 -0)
(1.45477661328379e+19 -0 -0)
(1.45700139104389e+19 -0 -0)
(1.45767085666168e+19 -0 -0)
(1.45981578910516e+19 -0 -0)
(1.46036230316575e+19 -0 -0)
(1.46243377680531e+19 -0 -0)
(1.46286981439927e+19 -0 -0)
(1.46488510613807e+19 -0 -0)
(1.46522348669678e+19 -0 -0)
(1.46719857695879e+19 -0 -0)
(1.46744738494569e+19 -0 -0)
(1.4693911999217e+19 -0 -0)
(1.46955299648726e+19 -0 -0)
(1.4714672777333e+19 -0 -0)
(1.47154056674331e+19 -0 -0)
(1.47342136029813e+19 -0 -0)
(1.47340215012626e+19 -0 -0)
(1.47525003844177e+19 -0 -0)
(1.47513758134829e+19 -0 -0)
(1.47695435935787e+19 -0 -0)
(1.47674942786728e+19 -0 -0)
(1.47853553602632e+19 -0 -0)
(1.47823366725137e+19 -0 -0)
(1.47998843060002e+19 -0 -0)
(1.47959726031324e+19 -0 -0)
(1.48131918804527e+19 -0 -0)
(1.48083190591031e+19 -0 -0)
(1.48251920498439e+19 -0 -0)
(1.48191945756411e+19 -0 -0)
(1.48354532066919e+19 -0 -0)
(1.4815706371192e+19 -0 -0)
)
;

boundaryField
{
    electrode
    {
        type            calculated;
        value           uniform (-10266279102.52 -0 -0);
    }
    ground
    {
        type            calculated;
        value           uniform (1.48355340595083e+19 -0 -0);
    }
    otherfaces
    {
        type            empty;
    }
}


// ************************************************************************* //
