/*--------------------------------*- C++ -*----------------------------------*\
| =========                 |                                                 |
| \\      /  F ield         | foam-extend: Open Source CFD                    |
|  \\    /   O peration     | Version:     4.0                                |
|   \\  /    A nd           | Web:         http://www.foam-extend.org         |
|    \\/     M anipulation  |                                                 |
\*---------------------------------------------------------------------------*/
FoamFile
{
    version     2.0;
    format      ascii;
    class       volVectorField;
    location    "5.7e-06";
    object      J_electron;
}
// * * * * * * * * * * * * * * * * * * * * * * * * * * * * * * * * * * * * * //

dimensions      [1 -1 -1 0 0 0 0];

internalField   nonuniform List<vector> 
300
(
(-1.30510558981547e+19 0 0)
(-1.33919035056257e+19 0 0)
(-1.5815911475813e+19 0 0)
(-1.5340630091783e+19 0 0)
(-1.53419663985537e+19 0 0)
(-1.532876639606e+19 0 0)
(-1.52678800748647e+19 0 0)
(-1.52223482519021e+19 0 0)
(-1.51744590366121e+19 0 0)
(-1.51259699900078e+19 0 0)
(-1.50778091748992e+19 0 0)
(-1.50295201109811e+19 0 0)
(-1.49811912157368e+19 0 0)
(-1.49328245872107e+19 0 0)
(-1.48844074383631e+19 0 0)
(-1.48359392641274e+19 0 0)
(-1.47874161578232e+19 0 0)
(-1.47388344708064e+19 0 0)
(-1.46901906359858e+19 0 0)
(-1.46414809529676e+19 0 0)
(-1.45927017862946e+19 0 0)
(-1.45438493593515e+19 0 0)
(-1.44949198955868e+19 0 0)
(-1.44459096039044e+19 0 0)
(-1.43968146093458e+19 0 0)
(-1.43476310238605e+19 0 0)
(-1.42983548974085e+19 0 0)
(-1.42489822125599e+19 0 0)
(-1.41995090266992e+19 0 0)
(-1.41499311885749e+19 0 0)
(-1.41002446404359e+19 0 0)
(-1.40504452309828e+19 0 0)
(-1.40005287676712e+19 0 0)
(-1.39504910607058e+19 0 0)
(-1.39003278403461e+19 0 0)
(-1.3850034833273e+19 0 0)
(-1.37996077651651e+19 0 0)
(-1.37490422553372e+19 0 0)
(-1.36983340000503e+19 0 0)
(-1.36474786088807e+19 0 0)
(-1.35964717102787e+19 0 0)
(-1.35453089129967e+19 0 0)
(-1.34939858357829e+19 0 0)
(-1.34424980984031e+19 0 0)
(-1.33908412416988e+19 0 0)
(-1.3339010974116e+19 0 0)
(-1.32870028168662e+19 0 0)
(-1.32348123713472e+19 0 0)
(-1.31824355752846e+19 0 0)
(-1.31298687503974e+19 0 0)
(-1.30771084323573e+19 0 0)
(-1.30241483482129e+19 0 0)
(-1.29709778668353e+19 0 0)
(-1.29175874812474e+19 0 0)
(-1.28639887455426e+19 0 0)
(-1.28102394067474e+19 0 0)
(-1.27564057270042e+19 0 0)
(-1.27023457412703e+19 0 0)
(-1.2647392511901e+19 0 0)
(-1.25906592816297e+19 0 0)
(-1.25332181759825e+19 0 0)
(-1.24768450630635e+19 0 0)
(-1.24211998483024e+19 0 0)
(-1.23654921827283e+19 0 0)
(-1.23095526070126e+19 0 0)
(-1.22533293888454e+19 0 0)
(-1.21968062352143e+19 0 0)
(-1.21399779010643e+19 0 0)
(-1.20828424191594e+19 0 0)
(-1.20253987836029e+19 0 0)
(-1.19676463142674e+19 0 0)
(-1.19095844085296e+19 0 0)
(-1.18512125998386e+19 0 0)
(-1.17925304883531e+19 0 0)
(-1.17335376879404e+19 0 0)
(-1.16742340032861e+19 0 0)
(-1.16146192489864e+19 0 0)
(-1.15546933644509e+19 0 0)
(-1.14944564160815e+19 0 0)
(-1.14339085819634e+19 0 0)
(-1.13730501302551e+19 0 0)
(-1.13118814764796e+19 0 0)
(-1.12504032065801e+19 0 0)
(-1.1188615934508e+19 0 0)
(-1.11265205194803e+19 0 0)
(-1.10641178724307e+19 0 0)
(-1.10014090997054e+19 0 0)
(-1.09383953821404e+19 0 0)
(-1.08750780799705e+19 0 0)
(-1.08114586357591e+19 0 0)
(-1.07475386329271e+19 0 0)
(-1.06833197802334e+19 0 0)
(-1.06188038225752e+19 0 0)
(-1.05539926617353e+19 0 0)
(-1.04888882585173e+19 0 0)
(-1.04234926261608e+19 0 0)
(-1.03578078369651e+19 0 0)
(-1.02918359784814e+19 0 0)
(-1.02255791702619e+19 0 0)
(-1.01590395058677e+19 0 0)
(-1.00922190624069e+19 0 0)
(-1.00251198104692e+19 0 0)
(-9.95774366441747e+18 0 0)
(-9.89009241489854e+18 0 0)
(-9.82216765977238e+18 0 0)
(-9.75397081771357e+18 0 0)
(-9.68550306393987e+18 0 0)
(-9.61676525975005e+18 0 0)
(-9.54775797656663e+18 0 0)
(-9.47848132678491e+18 0 0)
(-9.4089350104854e+18 0 0)
(-9.33911817930356e+18 0 0)
(-9.26902942510455e+18 0 0)
(-9.19866660038115e+18 0 0)
(-9.12802687668401e+18 0 0)
(-9.057106539926e+18 0 0)
(-8.98590089141971e+18 0 0)
(-8.91440423035837e+18 0 0)
(-8.8426096110705e+18 0 0)
(-8.77050878461267e+18 0 0)
(-8.69809207809461e+18 0 0)
(-8.62534809008262e+18 0 0)
(-8.55226372516374e+18 0 0)
(-8.47882374829572e+18 0 0)
(-8.40501084023947e+18 0 0)
(-8.33080507042575e+18 0 0)
(-8.25618390860851e+18 0 0)
(-8.18112168629318e+18 0 0)
(-8.10558942567465e+18 0 0)
(-8.02955439505513e+18 0 0)
(-7.95297971072506e+18 0 0)
(-7.87582394151941e+18 0 0)
(-7.7980405139652e+18 0 0)
(-7.71957675757614e+18 0 0)
(-7.64037488623957e+18 0 0)
(-7.56036876638251e+18 0 0)
(-7.47948301267396e+18 0 0)
(-7.39763754072644e+18 0 0)
(-7.31474616392719e+18 0 0)
(-7.23068745891656e+18 0 0)
(-7.14533616913167e+18 0 0)
(-7.05866714794846e+18 0 0)
(-6.97041796894242e+18 0 0)
(-6.88011793203724e+18 0 0)
(-6.78843521606615e+18 0 0)
(-6.69519895576707e+18 0 0)
(-6.59561618890398e+18 0 0)
(-6.49118822720183e+18 0 0)
(-6.38699070568582e+18 0 0)
(-6.28124967227831e+18 0 0)
(-6.17209400876283e+18 0 0)
(-6.05891874522241e+18 0 0)
(-5.94090092781057e+18 0 0)
(-5.81856883796292e+18 0 0)
(-5.68881268001132e+18 0 0)
(-5.55584723270762e+18 0 0)
(-5.41091841667236e+18 0 0)
(-5.26410538537714e+18 0 0)
(-5.10180162212987e+18 0 0)
(-4.932898396384e+18 0 0)
(-4.74784167910756e+18 0 0)
(-4.52047639321615e+18 0 0)
(-4.2599836052808e+18 0 0)
(-3.58766782625245e+18 0 0)
(-2.73649939977758e+18 0 0)
(-2.50451401968085e+18 0 0)
(-2.50749951876687e+18 0 0)
(-2.28029986862583e+18 0 0)
(-1.78992118045449e+18 0 0)
(-1.14208439187433e+18 0 0)
(-5.9708999953757e+17 0 0)
(-1.81905902816723e+17 0 0)
(-2.50679566212792e+17 0 0)
(-1.12752155658132e+18 0 0)
(-9.84931606941663e+17 0 0)
(-3.7368499184599e+16 0 0)
(-2.00540381664353e+18 0 0)
(-3.02374469315015e+18 0 0)
(-2.40337725029142e+18 0 0)
(-3.90911355583988e+18 0 0)
(-4.82062941185429e+18 0 0)
(-4.01874545941676e+18 0 0)
(-4.55135322535834e+18 0 0)
(-3.9396301334758e+18 0 0)
(-1.76274369361111e+18 0 0)
(-2.69582474865017e+17 0 0)
(1.96509292237894e+18 0 0)
(5.02110669119685e+18 0 0)
(7.42788080374697e+18 0 0)
(9.43385488459248e+18 0 0)
(1.11182061987761e+19 0 0)
(1.16883447139116e+19 0 0)
(1.28358406617626e+19 0 0)
(1.04786415801821e+19 0 0)
(9.29918961351157e+18 0 0)
(7.71628163601859e+18 0 0)
(5.86799190721482e+18 0 0)
(7.42351683468794e+18 0 0)
(-6.97767088864166e+17 0 0)
(-1.10751711051894e+18 0 0)
(9.41490168633491e+17 0 0)
(-1.9975779329052e+18 0 0)
(-2.26909946133844e+18 0 0)
(-2.1797787091611e+18 0 0)
(-2.17528781475566e+18 0 0)
(-2.36934875632513e+18 0 0)
(-2.62829106505177e+18 0 0)
(-2.83703844180559e+18 0 0)
(-2.95000272440422e+18 0 0)
(-2.99643036157323e+18 0 0)
(-3.00205891676315e+18 0 0)
(-2.98463221347337e+18 0 0)
(-2.95656163867066e+18 0 0)
(-2.91839595506972e+18 0 0)
(-2.88117621756683e+18 0 0)
(-2.83944271973349e+18 0 0)
(-2.79447857531019e+18 0 0)
(-2.74750543051879e+18 0 0)
(-2.70060391818896e+18 0 0)
(-2.65247213686229e+18 0 0)
(-2.60544183841622e+18 0 0)
(-2.55757137411932e+18 0 0)
(-2.50935889532428e+18 0 0)
(-2.46105189149472e+18 0 0)
(-2.41279611586503e+18 0 0)
(-2.36468623102172e+18 0 0)
(-2.31681059178889e+18 0 0)
(-2.26927301689492e+18 0 0)
(-2.22215606622777e+18 0 0)
(-2.17553617851978e+18 0 0)
(-2.12948226235141e+18 0 0)
(-2.08405592149788e+18 0 0)
(-2.03931213040773e+18 0 0)
(-1.9952987369318e+18 0 0)
(-1.95205732503443e+18 0 0)
(-1.90962288458525e+18 0 0)
(-1.86802431704314e+18 0 0)
(-1.82728591516346e+18 0 0)
(-1.78741903452734e+18 0 0)
(-1.74845624254799e+18 0 0)
(-1.71027740166566e+18 0 0)
(-1.67320480439173e+18 0 0)
(-1.63698034377982e+18 0 0)
(-1.60162286246272e+18 0 0)
(-1.5671610939086e+18 0 0)
(-1.53358756227088e+18 0 0)
(-1.50089379557532e+18 0 0)
(-1.46906687631392e+18 0 0)
(-1.43809231261545e+18 0 0)
(-1.40795366072705e+18 0 0)
(-1.37863346454878e+18 0 0)
(-1.35011280445345e+18 0 0)
(-1.32237340506543e+18 0 0)
(-1.29539284730156e+18 0 0)
(-1.26917184134492e+18 0 0)
(-1.24359748031393e+18 0 0)
(-1.21878618335646e+18 0 0)
(-1.19468214929991e+18 0 0)
(-1.17116325418052e+18 0 0)
(-1.14830944305e+18 0 0)
(-1.126067117126e+18 0 0)
(-1.10442194590101e+18 0 0)
(-1.08335263007163e+18 0 0)
(-1.06284048061387e+18 0 0)
(-1.04286693061415e+18 0 0)
(-1.023415707316e+18 0 0)
(-1.00446718410504e+18 0 0)
(-9.85998690065575e+17 0 0)
(-9.68003486985349e+17 0 0)
(-9.50391483062715e+17 0 0)
(-9.33304980320648e+17 0 0)
(-9.16685952009578e+17 0 0)
(-9.0042150262575e+17 0 0)
(-8.84555688168816e+17 0 0)
(-8.6907236686877e+17 0 0)
(-8.5396287482409e+17 0 0)
(-8.39215442413502e+17 0 0)
(-8.24818890983694e+17 0 0)
(-8.10762310257184e+17 0 0)
(-7.97034413362941e+17 0 0)
(-7.83624980591934e+17 0 0)
(-7.70512839867444e+17 0 0)
(-7.57688049430505e+17 0 0)
(-7.44954200553287e+17 0 0)
(-7.33065113133585e+17 0 0)
(-7.21169478400946e+17 0 0)
(-7.09569288644156e+17 0 0)
(-6.98224692504912e+17 0 0)
(-6.87047821897324e+17 0 0)
(-6.76102228292059e+17 0 0)
(-6.6597968475054e+17 0 0)
(-6.5580576604986e+17 0 0)
(-6.45507982980127e+17 0 0)
(-6.36328165958587e+17 0 0)
(-6.27014204613528e+17 0 0)
(-6.18266649672425e+17 0 0)
(-6.10113067687039e+17 0 0)
(-6.03192042590206e+17 0 0)
(-5.96920757805963e+17 0 0)
(-5.86421191960522e+17 0 0)
)
;

boundaryField
{
    electrode
    {
        type            calculated;
        value           uniform (-1.55853167818531e+19 0 0);
    }
    ground
    {
        type            calculated;
        value           uniform (-5.8381754503829e+17 0 0);
    }
    otherfaces
    {
        type            empty;
    }
}


// ************************************************************************* //
