/*--------------------------------*- C++ -*----------------------------------*\
| =========                 |                                                 |
| \\      /  F ield         | foam-extend: Open Source CFD                    |
|  \\    /   O peration     | Version:     4.0                                |
|   \\  /    A nd           | Web:         http://www.foam-extend.org         |
|    \\/     M anipulation  |                                                 |
\*---------------------------------------------------------------------------*/
FoamFile
{
    version     2.0;
    format      ascii;
    class       volScalarField;
    location    "5.7e-06";
    object      Phi;
}
// * * * * * * * * * * * * * * * * * * * * * * * * * * * * * * * * * * * * * //

dimensions      [0 0 0 1 0 0 0];

internalField   nonuniform List<scalar> 
300
(
699.999925344997
699.999713650466
699.999211243917
699.998451744736
699.997443692813
699.996181742283
699.994666816112
699.99289851578
699.990876327011
699.988599812302
699.98606844328
699.983281644985
699.980238793015
699.976939210107
699.9733821667
699.969566880046
699.965492513436
699.961158175437
699.956562919038
699.951705740762
699.946585579722
699.941201316629
699.935551772751
699.929635708821
699.923451823893
699.916998754157
699.910275071698
699.903279283203
699.896009828626
699.888465079796
699.880643338986
699.87254283742
699.864161733738
699.85549811241
699.8465499821
699.83731527398
699.82779183999
699.817977451054
699.807869795242
699.797466475878
699.786765009596
699.775762824354
699.764457257377
699.752845553062
699.740924860824
699.728692232882
699.716144621994
699.703278879133
699.690091751101
699.676579878074
699.662739791112
699.648567909657
699.634060539007
699.619213867527
699.604023963305
699.5884867704
699.57259810646
699.556353665322
699.539749024487
699.522779639067
699.505440780719
699.487727438772
699.469634365023
699.451156152667
699.432287246496
699.413021939204
699.393354367404
699.373278507084
699.352788168826
699.331876992878
699.310538444096
699.288765806738
699.266552179118
699.243890468096
699.220773383395
699.197193431738
699.173142910777
699.148613902817
699.123598268296
699.098087639028
699.072073411171
699.045546737913
699.018498521847
698.990919407023
698.962799770638
698.934129714361
698.904899055242
698.875097316191
698.844713716002
698.813737158871
698.782156223388
698.74995915096
698.71713383363
698.683667801239
698.649548207896
698.614761817701
698.579294989666
698.543133661788
698.506263334189
698.468669051291
698.430335382918
698.391246404276
698.351385674714
698.310736215173
698.269280484243
698.227000352699
698.183877076415
698.139891267537
698.095022863757
698.049251095571
698.002554451335
697.95491063996
697.906296551045
697.85668821225
697.806060743673
697.75438830898
697.701644063026
697.647800095651
697.59282737133
697.536695664308
697.479373488824
697.420828023972
697.361025032713
697.299928774502
697.237501910909
697.173705403581
697.108498403795
697.041838132767
696.973679751791
696.903976221184
696.832678146844
696.75973361315
696.685088000712
696.608683787339
696.530460330328
696.450353627936
696.368296057881
696.284216089656
696.198037967781
696.109681363156
696.019060988414
695.926086167237
695.830660361175
695.732680662282
695.632037177608
695.528612332468
695.422280322723
695.312906252177
695.200344401327
695.084437454739
694.965015683231
694.841895608936
694.714878493451
694.583748572485
694.448271052314
694.308189989028
694.163225169343
694.013070263536
693.857387061644
693.69580513499
693.527911799346
693.353253129708
693.171319861326
692.981544889
692.78328482849
692.575676427043
692.357676451666
692.128194878863
691.886023098393
691.629784676536
691.357827779989
691.068195063957
690.758590460237
690.426337486335
690.068555484656
689.682328079353
689.263838545345
688.808766813293
688.313261483905
687.772578620348
687.181180216318
686.534376454747
685.82663092106
685.051987572109
684.205721791637
683.282504153214
682.27692815936
681.185168001843
680.003366980497
678.727766601565
677.356029524154
675.886373128202
674.317407493104
672.647774224174
670.877689130608
669.007378324797
667.037341358663
664.96782077249
662.79889563924
660.531012018419
658.164770856935
655.69947152181
653.134420775079
650.468770618516
647.702151777444
644.834722977782
641.86707137657
638.800102835328
635.634798155111
632.372135261777
629.013041475326
625.558370354133
622.008889150058
618.365342478483
614.628811259645
610.800262703106
606.880603498937
602.870635690544
598.771112728567
594.582692953058
590.305997207586
585.941559879048
581.489888087936
576.951410166176
572.326535862216
567.615631466722
562.819336119841
557.938206915501
552.972805406947
547.923615377383
542.791132619419
537.575778566472
532.277992901509
526.898143276904
521.436620863857
515.893746359008
510.269868644054
504.565266917945
498.780252914533
492.915068783114
486.969993020506
480.945233864987
474.841057540185
468.657846574587
462.396021891183
456.055935980988
449.637983363534
443.142489761565
436.569826132194
429.920293978464
423.19424262326
416.391951101247
409.513748614893
402.559893078674
395.530694802403
388.426391654347
381.247275902242
373.993566776148
366.665539254844
359.263395439289
351.787393967535
344.237720483804
336.61461931398
328.918259959398
321.1488733237
313.306614316254
305.391707494457
297.404424389126
289.345099945334
281.213990853891
273.011418934851
264.73762649963
256.392923213691
247.977538554672
239.491771204819
230.935838407463
222.310028134705
213.614545413433
204.849667708877
196.01558786596
187.112573221785
178.140804759491
169.100540270579
159.991949481807
150.815281354127
141.57069515507
132.258431791202
122.878640612893
113.431555031792
103.917314928314
94.3361466817509
84.6881811511931
74.9736383453847
65.1926405787084
55.3454015537893
45.4320355262367
35.4527505981162
25.4076534518326
15.2969476917987
5.12073365475588
)
;

boundaryField
{
    electrode
    {
        type            fixedValue;
        value           uniform 700;
    }
    ground
    {
        type            fixedValue;
        value           uniform 0;
    }
    otherfaces
    {
        type            empty;
    }
}


// ************************************************************************* //
