/*--------------------------------*- C++ -*----------------------------------*\
| =========                 |                                                 |
| \\      /  F ield         | foam-extend: Open Source CFD                    |
|  \\    /   O peration     | Version:     4.0                                |
|   \\  /    A nd           | Web:         http://www.foam-extend.org         |
|    \\/     M anipulation  |                                                 |
\*---------------------------------------------------------------------------*/
FoamFile
{
    version     2.0;
    format      ascii;
    class       volScalarField;
    location    "5.7e-06";
    object      PhiMean;
}
// * * * * * * * * * * * * * * * * * * * * * * * * * * * * * * * * * * * * * //

dimensions      [0 0 0 1 0 0 0];

internalField   nonuniform List<scalar> 
300
(
699.987081467728
699.985791638221
699.984233811239
699.982430407219
699.980390822459
699.978108229552
699.975581988188
699.972810944007
699.969793960407
699.966530189092
699.96301889473
699.9592594839
699.955251472454
699.950994475449
699.946488196634
699.941732417684
699.936726989419
699.931471825949
699.925966897272
699.920212222321
699.914207863965
699.907953923879
699.901450537701
699.894697870216
699.88769610981
699.880445474087
699.872946198729
699.865198533047
699.857202738712
699.848959081231
699.8404678236
699.831729237753
699.82274359633
699.813511157394
699.804032160702
699.794306823336
699.784335334571
699.774117853328
699.763654502944
699.752945365182
699.741990477232
699.730789828895
699.719343355256
699.707650932707
699.695712374708
699.683527427874
699.671095767611
699.658416995139
699.645490634132
699.632316130892
699.618892853119
699.605220099131
699.591297087632
699.577122957995
699.562696752772
699.548017410184
699.5330837514
699.517894474683
699.502448149883
699.486743212001
699.470777956151
699.454550532574
699.438058941228
699.421301025441
699.404274486297
699.386976875453
699.369405568558
699.351557759633
699.333430455113
699.315020466999
699.296324405738
699.277338671995
699.258059461283
699.238482760462
699.218604325696
699.198419683469
699.177924136176
699.157112747354
699.135980331152
699.114521423999
699.092730305748
699.070600960557
699.048127063998
699.025301975566
699.002118723464
698.978570009602
698.954648192075
698.93034526011
698.905652819674
698.880562088922
698.855063878824
698.829148576317
698.802806165548
698.776026172474
698.748797644075
698.721109132434
698.692948673871
698.664303770831
698.635161367025
698.605507829779
698.575328928774
698.544609806447
698.513334947244
698.481488178249
698.449052615918
698.416010638058
698.382343860661
698.348033089645
698.313058302094
698.277398596342
698.24103214447
698.20393615158
698.166086806497
698.12745924139
698.088027480979
698.047764376201
698.006641566908
697.96462942581
697.921696969121
697.877811776985
697.832939913935
697.787045866824
697.740092439381
697.69204068329
697.642849776127
697.59247688544
697.540877042652
697.488003026828
697.433805197235
697.378231337171
697.321226480936
697.262732728968
697.202689037325
697.141030984588
697.077690529563
697.012595782598
696.94567067282
696.876834605219
696.806002072692
696.733082268746
696.657978617742
696.580588263913
696.500801508309
696.418501170957
696.333561904971
696.245849435183
696.155219627968
696.061517474324
695.964575928046
695.864214608916
695.760238383132
695.652435626758
695.540576266325
695.424409571747
695.303661531832
695.178031778289
695.047190237166
694.910772769009
694.768376778535
694.619554601651
694.463807995771
694.300574846364
694.129199871186
693.948919412063
693.758844302213
693.557945202046
693.345046822686
693.118785241979
692.877557216302
692.61946125364
692.342245496545
692.043291833164
691.719605337225
691.367727375959
690.983718529814
690.563203312213
690.101242431594
689.592427238288
689.031099709987
688.411153854083
687.726302690167
686.97038097148
686.137269740001
685.221118618511
684.216830757526
683.119824226921
681.926260006924
680.633317389797
679.238970256292
677.741934315209
676.141662248228
674.438177291977
672.632025795196
670.72419889822
668.715696615703
666.607367069825
664.399857091021
662.093595458561
659.688944678046
657.186261477881
654.585747666081
651.887525945245
649.091824431219
646.19910198865
643.210165649251
640.125923471954
636.947358841338
633.675428465042
630.311055401891
626.855083165878
623.308302216004
619.671415315351
615.945166002271
612.130426543312
608.228076423965
604.238911355105
600.163682984799
596.003068358298
591.757711214127
587.42818853936
583.015053329952
578.518798431332
573.939900869657
569.278783665723
564.535862287701
559.711603437868
554.806606005271
549.821415025292
544.756573751138
539.612574578122
534.389913220682
529.089036655682
523.710400626463
518.254416277803
512.721507890978
507.11205470249
501.426452208389
495.665051244913
489.828222058319
483.916290537391
477.929605121226
471.868470558622
465.73322097482
459.524252806723
453.242032923537
446.886976380269
440.459527353614
433.960077583178
427.38905049466
420.746816202711
414.033779077081
407.250289009685
400.39673279858
393.473441278582
386.480784962906
379.419076657206
372.288671672145
365.089865720514
357.82299982341
350.488353477586
343.08625418218
335.616966013899
328.080803691758
320.47801642005
312.808906831822
305.073713473535
297.272737326191
289.40623243458
281.474556441089
273.478020187328
265.417006322901
257.291812106402
249.102809175037
240.850280597154
232.534587677182
224.155999796023
215.71486855613
207.211450162268
198.646087092719
190.019022872978
181.330591397295
172.581023924495
163.770646302895
154.899677919782
145.968437222082
136.977132202555
127.92607444763
118.815460878823
109.645596690098
100.416668030797
91.1289741028733
81.7826908084223
72.3781120706055
62.9154038790357
53.3948552186642
43.8166228326956
34.1809916484258
24.488109671631
14.7382589197223
4.93157964849365
)
;

boundaryField
{
    electrode
    {
        type            calculated;
        value           uniform 699.999999999946;
    }
    ground
    {
        type            calculated;
        value           uniform 0;
    }
    otherfaces
    {
        type            empty;
    }
}


// ************************************************************************* //
