/*--------------------------------*- C++ -*----------------------------------*\
| =========                 |                                                 |
| \\      /  F ield         | foam-extend: Open Source CFD                    |
|  \\    /   O peration     | Version:     4.0                                |
|   \\  /    A nd           | Web:         http://www.foam-extend.org         |
|    \\/     M anipulation  |                                                 |
\*---------------------------------------------------------------------------*/
FoamFile
{
    version     2.0;
    format      ascii;
    class       volScalarField;
    location    "5.7e-06";
    object      Sy_electron;
}
// * * * * * * * * * * * * * * * * * * * * * * * * * * * * * * * * * * * * * //

dimensions      [1 -3 -1 0 0 0 0];

internalField   nonuniform List<scalar> 
300
(
3.39158345113278e-09
3.39237388643485e-09
3.39268630665145e-09
3.39263184942399e-09
3.39260624859614e-09
3.39253317956677e-09
3.39242228894141e-09
3.39227862932636e-09
3.39209976860862e-09
3.39188588357233e-09
3.39163670193622e-09
3.39135185869336e-09
3.39103103539333e-09
3.39067388435682e-09
3.3902800448969e-09
3.38984914346496e-09
3.38938079184368e-09
3.38887458731484e-09
3.3883301122435e-09
3.38774693367328e-09
3.38712460294968e-09
3.38646265531405e-09
3.38576060948054e-09
3.38501796720051e-09
3.38423421278567e-09
3.38340881272255e-09
3.38254121512587e-09
3.38163084927267e-09
3.38067712511427e-09
3.37967943274265e-09
3.3786371418541e-09
3.37754960128095e-09
3.37641613842957e-09
3.37523605869134e-09
3.37400864490676e-09
3.37273315680402e-09
3.37140883041358e-09
3.37003487751366e-09
3.36861048503786e-09
3.36713481447492e-09
3.36560700128673e-09
3.3640261543157e-09
3.36239135517248e-09
3.36070165765078e-09
3.35895608711992e-09
3.3571536399235e-09
3.35529328278683e-09
3.35337395223265e-09
3.35139455391659e-09
3.34935396193204e-09
3.34725101811704e-09
3.34508453200669e-09
3.34285328144441e-09
3.34055601255158e-09
3.33819143507937e-09
3.33575821018701e-09
3.3332549412195e-09
3.33068021014104e-09
3.32803270585315e-09
3.3253113455369e-09
3.32268877960199e-09
3.32111599106327e-09
3.31948716266207e-09
3.31780039121746e-09
3.31605392583645e-09
3.31424602188901e-09
3.31237491026621e-09
3.31043878747482e-09
3.30843581197998e-09
3.30636410255099e-09
3.30422173719701e-09
3.30200675231053e-09
3.29971714188363e-09
3.29735085674201e-09
3.29490580375177e-09
3.29237984512944e-09
3.28977079770637e-09
3.28707643217455e-09
3.28429447241911e-09
3.28142259467962e-09
3.27845842700386e-09
3.27539954838251e-09
3.27224348803794e-09
3.26898772470414e-09
3.26562968583031e-09
3.26216674685573e-09
3.25859623037858e-09
3.25491540529991e-09
3.25112148597287e-09
3.24721163133703e-09
3.2431829439387e-09
3.23903246890942e-09
3.23475719312214e-09
3.23035404388596e-09
3.22581988784089e-09
3.22115152973953e-09
3.21634571113394e-09
3.21139910896016e-09
3.20630833404124e-09
3.20106992951087e-09
3.19568036907768e-09
3.19013605518065e-09
3.18443331696412e-09
3.17856840827502e-09
3.17253750524454e-09
3.16633670386941e-09
3.15996201739973e-09
3.15340937339834e-09
3.14667461075001e-09
3.13975347629225e-09
3.1326416212421e-09
3.1253345973574e-09
3.11782785277079e-09
3.11011672752342e-09
3.10219644873948e-09
3.09406212539764e-09
3.08570874274003e-09
3.07713115629234e-09
3.06832408524472e-09
3.05928210545452e-09
3.04999964185095e-09
3.0404709603394e-09
3.03069015889373e-09
3.02065115816169e-09
3.01034769116376e-09
2.99977329222986e-09
2.98892128506356e-09
2.97778476996127e-09
2.96635660984437e-09
2.95462941530816e-09
2.94259552842497e-09
2.9302470052794e-09
2.9175755970414e-09
2.90457272966415e-09
2.89122948156845e-09
2.87753655984479e-09
2.86348427515834e-09
2.84906251289834e-09
2.83426070037175e-09
2.81906778058328e-09
2.80347218181309e-09
2.78746173858563e-09
2.77102368500357e-09
2.75414474978628e-09
2.73681077789726e-09
2.71900654984428e-09
2.70071761962725e-09
2.68275913019909e-09
2.66529758671833e-09
2.64731999833625e-09
2.62880588283062e-09
2.60973418995777e-09
2.59008279172566e-09
2.56982788523833e-09
2.54894475915973e-09
2.52740610893148e-09
2.50518417021571e-09
2.48224809842829e-09
2.45856569165752e-09
2.43410389818322e-09
2.40882653877912e-09
2.38271055419825e-09
2.35573742031686e-09
2.32806515050118e-09
2.29992642489486e-09
2.27100934548139e-09
2.24073147930931e-09
2.20893572024776e-09
2.17574950735962e-09
2.14127409681911e-09
2.10417028162178e-09
2.06255169346608e-09
2.01855848345234e-09
1.9711748490292e-09
1.92030189143229e-09
1.86703461802651e-09
1.80991449730559e-09
1.74737003743708e-09
1.68139564042249e-09
1.61201805002955e-09
1.53460700854562e-09
1.45032057257256e-09
1.36597471096702e-09
1.28277671844414e-09
1.20532182052187e-09
1.1327865620903e-09
1.05997442530025e-09
1.00595725524759e-09
9.64593508317191e-10
9.42743527910732e-10
9.39296935802795e-10
9.6627643243223e-10
1.03103378224248e-09
1.15006214003463e-09
1.33235989415453e-09
1.63949103239172e-09
2.14691986140945e-09
3.04005507747401e-09
4.28968952161809e-09
5.50587671801652e-09
6.72210476768686e-09
7.5364275160361e-09
7.19224186319585e-09
6.12750756795985e-09
4.79947978377501e-09
3.65087001064805e-09
2.78710532906998e-09
2.21450011144647e-09
1.84844483582997e-09
1.62224052438631e-09
1.48469103745727e-09
1.39944503924693e-09
1.35079486716693e-09
1.32728993544904e-09
1.31405658349219e-09
1.3097128287953e-09
1.31115564147909e-09
1.31544608394695e-09
1.32082777963522e-09
1.32611617772131e-09
1.33037526323872e-09
1.33205430119141e-09
1.33112544734378e-09
1.32814552831865e-09
1.32300812720753e-09
1.31569214288513e-09
1.30623997236248e-09
1.29473900736231e-09
1.28130768750038e-09
1.26608594607812e-09
1.24922773453376e-09
1.23089520264271e-09
1.21125409410439e-09
1.19047011314297e-09
1.16870606865757e-09
1.14611965488776e-09
1.12286176020382e-09
1.09907517974122e-09
1.07489377768665e-09
1.05044129897132e-09
1.02583200487135e-09
1.00115933937163e-09
9.76506047894504e-10
9.51959545448178e-10
9.27601668645338e-10
9.0350497573405e-10
8.79732773275261e-10
8.56339445102801e-10
8.33371030630246e-10
8.10865838288986e-10
7.88855076360157e-10
7.6736348695856e-10
7.46409958277056e-10
7.26008224923783e-10
7.06167396694733e-10
6.86894461921691e-10
6.68188907972531e-10
6.50044972033381e-10
6.32458273065187e-10
6.15424401817818e-10
5.98934415305804e-10
5.82977890127661e-10
5.67542965217279e-10
5.52616778800086e-10
5.38185712718529e-10
5.2423563719724e-10
5.10752304831513e-10
4.97721676879969e-10
4.85129387298913e-10
4.72960726993467e-10
4.61193585174898e-10
4.49800478226174e-10
4.38762540092759e-10
4.28067897226384e-10
4.1770573477119e-10
4.07666121698675e-10
3.97939709464452e-10
3.88517784196418e-10
3.79392315166016e-10
3.7055603239911e-10
3.62002451297233e-10
3.5372587919743e-10
3.45607325842604e-10
3.3723593730016e-10
3.29079030101368e-10
3.21107334745913e-10
3.13332149298989e-10
3.05767506217177e-10
2.98428944461076e-10
2.90841773356398e-10
2.82678419532473e-10
2.74689287157773e-10
2.66929040424447e-10
2.58224948657017e-10
2.48827186446263e-10
2.39387689511161e-10
2.27430258770219e-10
2.13959566183061e-10
1.96940565026622e-10
1.72699362220174e-10
)
;

boundaryField
{
    electrode
    {
        type            zeroGradient;
    }
    ground
    {
        type            zeroGradient;
    }
    otherfaces
    {
        type            empty;
    }
}


// ************************************************************************* //
