/*--------------------------------*- C++ -*----------------------------------*\
| =========                 |                                                 |
| \\      /  F ield         | foam-extend: Open Source CFD                    |
|  \\    /   O peration     | Version:     4.0                                |
|   \\  /    A nd           | Web:         http://www.foam-extend.org         |
|    \\/     M anipulation  |                                                 |
\*---------------------------------------------------------------------------*/
FoamFile
{
    version     2.0;
    format      ascii;
    class       volScalarField;
    location    "2.2e-06";
    object      Ar;
}
// * * * * * * * * * * * * * * * * * * * * * * * * * * * * * * * * * * * * * //

dimensions      [0 0 0 1 0 0 0];

internalField   nonuniform List<scalar> 
300
(
3.21880337557811e+22
3.21880337277015e+22
3.21880337483948e+22
3.21880337646773e+22
3.21880337862218e+22
3.21880338152633e+22
3.21880338510447e+22
3.2188033893514e+22
3.21880339426887e+22
3.21880339985241e+22
3.2188034060987e+22
3.21880341300479e+22
3.21880342056762e+22
3.2188034287841e+22
3.21880343765111e+22
3.21880344716547e+22
3.21880345732417e+22
3.21880346812369e+22
3.21880347956039e+22
3.21880349163063e+22
3.21880350433066e+22
3.21880351765663e+22
3.21880353160454e+22
3.21880354617028e+22
3.21880356135124e+22
3.2188035771418e+22
3.21880359353765e+22
3.2188036105345e+22
3.21880362812681e+22
3.21880364630978e+22
3.21880366508037e+22
3.21880368443296e+22
3.21880370436112e+22
3.21880372485963e+22
3.21880374592322e+22
3.21880376754657e+22
3.21880378972479e+22
3.21880381245226e+22
3.21880383572328e+22
3.21880385953247e+22
3.21880388387443e+22
3.21880390874354e+22
3.21880393413434e+22
3.21880396004139e+22
3.21880398645926e+22
3.21880401338258e+22
3.21880404080625e+22
3.21880406872518e+22
3.21880409713524e+22
3.21880412603173e+22
3.21880415541119e+22
3.2188041852677e+22
3.21880421559728e+22
3.21880424639372e+22
3.21880427765195e+22
3.21880430936619e+22
3.21880434153214e+22
3.21880437414573e+22
3.21880440720311e+22
3.21880444070085e+22
3.21880447463534e+22
3.21880450900345e+22
3.21880454380284e+22
3.21880457903289e+22
3.21880461469107e+22
3.21880465077299e+22
3.21880468727692e+22
3.21880472420149e+22
3.21880476154569e+22
3.21880479930889e+22
3.21880483749106e+22
3.21880487609319e+22
3.21880491511611e+22
3.21880495456018e+22
3.21880499442827e+22
3.21880503472228e+22
3.21880507544401e+22
3.2188051165968e+22
3.21880515818208e+22
3.21880520020684e+22
3.21880524267206e+22
3.21880528558251e+22
3.21880532894405e+22
3.21880537276254e+22
3.21880541704614e+22
3.21880546180133e+22
3.2188055070348e+22
3.21880555275498e+22
3.21880559897214e+22
3.21880564569522e+22
3.21880569293517e+22
3.21880574070752e+22
3.21880578901837e+22
3.21880583787989e+22
3.21880588730506e+22
3.21880593730755e+22
3.21880598790173e+22
3.21880603910267e+22
3.21880609092718e+22
3.21880614339168e+22
3.21880619651264e+22
3.21880625030773e+22
3.21880630479862e+22
3.21880636000154e+22
3.21880641593728e+22
3.21880647262733e+22
3.21880653009137e+22
3.21880658835328e+22
3.21880664743456e+22
3.21880670735784e+22
3.21880676814715e+22
3.2188068298272e+22
3.21880689242383e+22
3.21880695596293e+22
3.21880702047098e+22
3.21880708597656e+22
3.21880715250892e+22
3.21880722009345e+22
3.21880728875843e+22
3.21880735853348e+22
3.21880742945054e+22
3.21880750153797e+22
3.21880757482874e+22
3.2188076493522e+22
3.21880772513789e+22
3.21880780221701e+22
3.21880788062355e+22
3.21880796038714e+22
3.21880804154035e+22
3.21880812411496e+22
3.21880820814417e+22
3.21880829365994e+22
3.21880838069428e+22
3.21880846928116e+22
3.21880855945539e+22
3.21880865124595e+22
3.218808744683e+22
3.21880883979913e+22
3.21880893662586e+22
3.21880903519125e+22
3.21880913552526e+22
3.21880923765708e+22
3.21880934161658e+22
3.21880944743265e+22
3.21880955513226e+22
3.21880966473669e+22
3.21880977626927e+22
3.21880988975189e+22
3.2188100052061e+22
3.21881012265325e+22
3.21881024210633e+22
3.21881036357948e+22
3.21881048708773e+22
3.21881061263662e+22
3.21881074022963e+22
3.21881086986893e+22
3.21881100155081e+22
3.21881113526123e+22
3.21881127098064e+22
3.2188114086831e+22
3.21881154833281e+22
3.21881168987798e+22
3.2188118332422e+22
3.21881197840025e+22
3.21881212525607e+22
3.21881227323119e+22
3.21881242157977e+22
3.2188125708184e+22
3.21881272146716e+22
3.21881287238409e+22
3.21881302346929e+22
3.2188131727892e+22
3.21881332201403e+22
3.21881347329924e+22
3.21881361921015e+22
3.21881376289769e+22
3.21881390452246e+22
3.21881403944767e+22
3.2188141721137e+22
3.21881429512698e+22
3.21881440946114e+22
3.2188145170734e+22
3.21881461068298e+22
3.21881469772878e+22
3.21881477260588e+22
3.21881483594993e+22
3.21881489067771e+22
3.21881493851494e+22
3.218814975318e+22
3.21881500558805e+22
3.21881503273173e+22
3.21881505603745e+22
3.21881507375317e+22
3.2188150879421e+22
3.21881509396441e+22
3.21881509504303e+22
3.21881509345619e+22
3.21881509376754e+22
3.21881509567496e+22
3.21881509896896e+22
3.21881510305498e+22
3.21881510731538e+22
3.21881511366588e+22
3.21881511966946e+22
3.21881512508829e+22
3.21881512989922e+22
3.21881513422747e+22
3.21881513805324e+22
3.21881514135787e+22
3.21881514427379e+22
3.21881514675098e+22
3.21881514989656e+22
3.21881515357404e+22
3.21881515699742e+22
3.2188151600706e+22
3.21881516294663e+22
3.21881516552017e+22
3.21881516795528e+22
3.21881517008651e+22
3.21881517211799e+22
3.21881517387607e+22
3.21881517554798e+22
3.21881517699296e+22
3.21881517836601e+22
3.21881518008902e+22
3.21881518252942e+22
3.21881518477145e+22
3.21881518697125e+22
3.21881518900061e+22
3.21881519099426e+22
3.21881519283946e+22
3.21881519465833e+22
3.2188151963416e+22
3.21881519801001e+22
3.2188151995537e+22
3.21881520107181e+22
3.21881520247053e+22
3.2188152038475e+22
3.21881520510163e+22
3.21881520634438e+22
3.21881520746047e+22
3.21881520858052e+22
3.21881520996834e+22
3.21881521190538e+22
3.21881521366541e+22
3.21881521548603e+22
3.21881521712548e+22
3.21881521883825e+22
3.21881522037985e+22
3.21881522200097e+22
3.2188152234643e+22
3.21881522501717e+22
3.2188152263805e+22
3.21881522785681e+22
3.2188152291069e+22
3.21881523047524e+22
3.21881523161834e+22
3.21881523287172e+22
3.21881523391644e+22
3.21881523506613e+22
3.21881523600938e+22
3.21881523708373e+22
3.21881523793685e+22
3.2188152389762e+22
3.21881523976286e+22
3.21881524077134e+22
3.21881524150262e+22
3.21881524281063e+22
3.21881524406944e+22
3.21881524560757e+22
3.21881524675291e+22
3.21881524822183e+22
3.21881524927051e+22
3.21881525068097e+22
3.21881525167885e+22
3.21881525305011e+22
3.21881525402782e+22
3.21881525537248e+22
3.21881525632438e+22
3.21881525763822e+22
3.21881525856152e+22
3.2188152598508e+22
3.21881526074864e+22
3.21881526202512e+22
3.21881526288197e+22
3.2188152641369e+22
3.21881526494005e+22
3.2188152661831e+22
3.21881526693056e+22
3.21881526814999e+22
3.21881526885729e+22
3.21881527001159e+22
3.2188152706544e+22
3.21881527174904e+22
3.21881527234878e+22
3.21881527339959e+22
3.21881527398329e+22
3.21881527503588e+22
3.21881527564339e+22
3.21881527700228e+22
)
;

boundaryField
{
    electrode
    {
        type            zeroGradient;
    }
    ground
    {
        type            zeroGradient;
    }
    otherfaces
    {
        type            empty;
    }
}


// ************************************************************************* //
