/*--------------------------------*- C++ -*----------------------------------*\
| =========                 |                                                 |
| \\      /  F ield         | foam-extend: Open Source CFD                    |
|  \\    /   O peration     | Version:     4.0                                |
|   \\  /    A nd           | Web:         http://www.foam-extend.org         |
|    \\/     M anipulation  |                                                 |
\*---------------------------------------------------------------------------*/
FoamFile
{
    version     2.0;
    format      ascii;
    class       volScalarField;
    location    "2.2e-06";
    object      Arp1;
}
// * * * * * * * * * * * * * * * * * * * * * * * * * * * * * * * * * * * * * //

dimensions      [0 0 0 1 0 0 0];

internalField   nonuniform List<scalar> 
300
(
5.98212526593267e+16
5.98496234372764e+16
5.98320406375627e+16
5.98227381065813e+16
5.98118607599826e+16
5.97971144927047e+16
5.9779211542534e+16
5.97581672364175e+16
5.97339324478817e+16
5.97065233289317e+16
5.96759496616154e+16
5.96422186942522e+16
5.96053396831655e+16
5.95653227790056e+16
5.9522178868449e+16
5.94759196724399e+16
5.94265577292168e+16
5.93741063745312e+16
5.93185797308691e+16
5.92599926936466e+16
5.9198360915067e+16
5.91337007880471e+16
5.90660294282686e+16
5.89953646545154e+16
5.89217249683426e+16
5.8845129532203e+16
5.87655981452855e+16
5.86831512189795e+16
5.85978097502828e+16
5.85095952934584e+16
5.84185299303393e+16
5.8324636239333e+16
5.82279372621121e+16
5.81284564689563e+16
5.80262177229601e+16
5.79212452415092e+16
5.78135635567466e+16
5.77031974747156e+16
5.75901720315984e+16
5.74745124492643e+16
5.73562440892036e+16
5.72353924037447e+16
5.71119828867236e+16
5.69860410221404e+16
5.68575922305769e+16
5.67266618149985e+16
5.659327490462e+16
5.64574563965536e+16
5.63192308969844e+16
5.6178622660442e+16
5.60356555272035e+16
5.58903528601867e+16
5.57427374798082e+16
5.55928315978376e+16
5.544065674988e+16
5.52862337271671e+16
5.51295825066479e+16
5.49707221799054e+16
5.48096708823824e+16
5.46464457200358e+16
5.44810626960043e+16
5.43135366370192e+16
5.41438811179338e+16
5.3972108386616e+16
5.37982292882882e+16
5.36222531886358e+16
5.34441878976815e+16
5.32640395930832e+16
5.30818127424648e+16
5.28975100271196e+16
5.27111322652683e+16
5.2522678334561e+16
5.23321450965338e+16
5.21395273206616e+16
5.19448176084519e+16
5.17480063193272e+16
5.15490814967277e+16
5.13480287950707e+16
5.1144831407931e+16
5.09394699977664e+16
5.07319226265514e+16
5.05221646880086e+16
5.03101688420653e+16
5.00959049503266e+16
4.9879340014044e+16
4.9660438114677e+16
4.94391603556944e+16
4.92154648077034e+16
4.8989306456701e+16
4.87606371538421e+16
4.85294055694359e+16
4.82955571500451e+16
4.80590340787909e+16
4.78197752392485e+16
4.75777161835023e+16
4.73327891042881e+16
4.70849228112728e+16
4.6834042711753e+16
4.65800707962476e+16
4.63229256290862e+16
4.6062522343976e+16
4.57987726450678e+16
4.55315848135862e+16
4.52608637204553e+16
4.49865108447961e+16
4.47084242989397e+16
4.44264988602772e+16
4.41406260092119e+16
4.38506939748172e+16
4.35565877883505e+16
4.32581893430751e+16
4.29553774629324e+16
4.26480279800386e+16
4.23360138193246e+16
4.20192050927256e+16
4.16974692034457e+16
4.13706709583759e+16
4.10386726910948e+16
4.07013343956207e+16
4.03585138703308e+16
4.00100668735162e+16
3.96558472903302e+16
3.92957073121701e+16
3.89294976291493e+16
3.85570676355755e+16
3.81782656495169e+16
3.77929391480409e+16
3.74009350175463e+16
3.70020998204467e+16
3.65962800809656e+16
3.61833225891679e+16
3.57630747251098e+16
3.53353848057692e+16
3.49001024566305e+16
3.44570790081604e+16
3.40061679224081e+16
3.35472252521748e+16
3.3080110135448e+16
3.2604685331576e+16
3.21208178032999e+16
3.16283793529466e+16
3.11272473202952e+16
3.06173053523464e+16
3.0098444259337e+16
2.95705629714458e+16
2.90335696168527e+16
2.84873827459527e+16
2.79319327329788e+16
2.73671633935985e+16
2.67930338689057e+16
2.62095208370977e+16
2.56166211321256e+16
2.50143548677858e+16
2.44027691965611e+16
2.37819428833831e+16
2.31519917398361e+16
2.25130758222735e+16
2.18654068021196e+16
2.12092596551376e+16
2.05449866955777e+16
1.98730153003153e+16
1.91938942040507e+16
1.85084217003737e+16
1.78168091767249e+16
1.71199840596744e+16
1.64237827734341e+16
1.57358033934305e+16
1.50511722917812e+16
1.43649678367433e+16
1.36886533149084e+16
1.30229641451147e+16
1.23866826567328e+16
1.17619160906761e+16
1.11246438631463e+16
1.05452846159254e+16
9.98712699771506e+15
9.44175621923574e+15
8.94698305407463e+15
8.44830943374831e+15
8.00863664051119e+15
7.60708315038891e+15
7.2136696235023e+15
6.89251204524803e+15
6.56329044595587e+15
6.27932947667762e+15
6.03491757345069e+15
5.8046888831204e+15
5.57791376173292e+15
5.40467160600512e+15
5.24959017713144e+15
5.08807805133857e+15
4.93577862776145e+15
4.81762637431759e+15
4.71758058591063e+15
4.67266190398698e+15
4.64960328584691e+15
4.65011938913179e+15
4.64827125777156e+15
4.64076739166214e+15
4.6234584712413e+15
4.60035458725061e+15
4.57483529306417e+15
4.52598108845292e+15
4.47787401140782e+15
4.43318739944773e+15
4.39285694861254e+15
4.35657062334304e+15
4.32430727765518e+15
4.29655717795603e+15
4.27231212676489e+15
4.25261653941241e+15
4.22618401726777e+15
4.19432571544154e+15
4.1649839293826e+15
4.13912360336207e+15
4.1152548747345e+15
4.09446623633752e+15
4.07509264985079e+15
4.05880769575933e+15
4.0435711817989e+15
4.03110428319231e+15
4.01954204128362e+15
4.01028430613558e+15
4.00183104593891e+15
3.98995215508892e+15
3.97088268024699e+15
3.9537575948049e+15
3.937015680942e+15
3.92192511983348e+15
3.90711937458662e+15
3.89373029200872e+15
3.88052549937815e+15
3.86858177238044e+15
3.85669318276994e+15
3.84595627420769e+15
3.83536127783967e+15
3.8258611352511e+15
3.81645961747116e+15
3.80817905326077e+15
3.79989464815018e+15
3.79275960127346e+15
3.78547690561831e+15
3.77539501635489e+15
3.75971540501671e+15
3.74569620570651e+15
3.73094831253028e+15
3.71790571072006e+15
3.70401834404321e+15
3.69173111840914e+15
3.67854739664409e+15
3.66683557249823e+15
3.65412877825039e+15
3.64322269177126e+15
3.63108856862051e+15
3.62112657569778e+15
3.60989413894228e+15
3.60082668705123e+15
3.59058395639292e+15
3.5823454090578e+15
3.57298169222114e+15
3.56559997559978e+15
3.55683646995841e+15
3.55021032466582e+15
3.54165383459097e+15
3.53555703513829e+15
3.52717723092548e+15
3.52151038834902e+15
3.51001824208646e+15
3.49896916492122e+15
3.48507009972009e+15
3.4750485186163e+15
3.46173383407704e+15
3.45257603784888e+15
3.43974777950232e+15
3.43100385935954e+15
3.41848494058772e+15
3.4098610810004e+15
3.3975265383837e+15
3.3890756409071e+15
3.37696698180132e+15
3.36872614610001e+15
3.35679443322353e+15
3.34879307964759e+15
3.33699787205746e+15
3.32936436766969e+15
3.31772554204034e+15
3.31057333053186e+15
3.2989907886046e+15
3.29234020656966e+15
3.28102596240188e+15
3.27485012700775e+15
3.26417714490703e+15
3.25859251467555e+15
3.24859076467338e+15
3.24355157827849e+15
3.23402494572798e+15
3.22930274023806e+15
3.21999406554378e+15
3.21530928924386e+15
3.20340118317665e+15
)
;

boundaryField
{
    electrode
    {
        type            driftDiffusionPositiveIonDensity;
        seec            0;
        fieldName       Arp1;
        value           uniform 5.97173555712908e+16;
    }
    ground
    {
        type            driftDiffusionPositiveIonDensity;
        seec            0;
        fieldName       Arp1;
        value           uniform 3.20340118317665e+15;
    }
    otherfaces
    {
        type            empty;
    }
}


// ************************************************************************* //
