/*--------------------------------*- C++ -*----------------------------------*\
| =========                 |                                                 |
| \\      /  F ield         | foam-extend: Open Source CFD                    |
|  \\    /   O peration     | Version:     4.0                                |
|   \\  /    A nd           | Web:         http://www.foam-extend.org         |
|    \\/     M anipulation  |                                                 |
\*---------------------------------------------------------------------------*/
FoamFile
{
    version     2.0;
    format      ascii;
    class       volVectorField;
    location    "2.2e-06";
    object      E;
}
// * * * * * * * * * * * * * * * * * * * * * * * * * * * * * * * * * * * * * //

dimensions      [0 0 0 1 0 0 0];

internalField   nonuniform List<vector> 
300
(
(4.30627781766724 -0 -0)
(9.27883190698918 -0 -0)
(15.971441635898 -0 -0)
(22.4853909991387 -0 -0)
(28.8730926917274 -0 -0)
(35.2780835211068 -0 -0)
(41.6813396506015 -0 -0)
(48.0784841563876 -0 -0)
(54.4708994909554 -0 -0)
(60.857721707886 -0 -0)
(67.2380986596597 -0 -0)
(73.6113529339895 -0 -0)
(79.9767815973248 -0 -0)
(86.333682207394 -0 -0)
(92.6813649285161 -0 -0)
(99.0191500502291 -0 -0)
(105.346369286272 -0 -0)
(111.662367539846 -0 -0)
(117.966504672996 -0 -0)
(124.25815721778 -0 -0)
(130.536720328868 -0 -0)
(136.801609894323 -0 -0)
(143.052264696406 -0 -0)
(149.288148784678 -0 -0)
(155.508753982294 -0 -0)
(161.713602471466 -0 -0)
(167.902249595399 -0 -0)
(174.074286797556 -0 -0)
(180.229344598489 -0 -0)
(186.367095847408 -0 -0)
(192.487259111105 -0 -0)
(198.589602062831 -0 -0)
(204.673945183884 -0 -0)
(210.740165505785 -0 -0)
(216.788200482721 -0 -0)
(222.818052117458 -0 -0)
(228.829791069941 -0 -0)
(234.823561025229 -0 -0)
(240.799583119147 -0 -0)
(246.758160517304 -0 -0)
(252.699683174433 -0 -0)
(258.624632630571 -0 -0)
(264.533587006369 -0 -0)
(270.427226103878 -0 -0)
(276.306336594061 -0 -0)
(282.17181742843 -0 -0)
(288.024685206276 -0 -0)
(293.866079811884 -0 -0)
(299.697270146645 -0 -0)
(305.519659833603 -0 -0)
(311.334793225181 -0 -0)
(317.144361426688 -0 -0)
(322.950208433916 -0 -0)
(328.754337361492 -0 -0)
(334.558916891025 -0 -0)
(340.366287696003 -0 -0)
(346.17896905318 -0 -0)
(351.999665540483 -0 -0)
(357.831273869942 -0 -0)
(363.676889765554 -0 -0)
(369.539815135747 -0 -0)
(375.423565081225 -0 -0)
(381.331875259947 -0 -0)
(387.268709342619 -0 -0)
(393.238266411998 -0 -0)
(399.244988727493 -0 -0)
(405.293569538714 -0 -0)
(411.388960942699 -0 -0)
(417.536382023337 -0 -0)
(423.741327110245 -0 -0)
(430.009574160698 -0 -0)
(436.347193344448 -0 -0)
(442.760555864662 -0 -0)
(449.256342864488 -0 -0)
(455.841554644667 -0 -0)
(462.523520088119 -0 -0)
(469.309906299311 -0 -0)
(476.208728533756 -0 -0)
(483.228360455326 -0 -0)
(490.377544670638 -0 -0)
(497.665403562163 -0 -0)
(505.101450665231 -0 -0)
(512.695602226841 -0 -0)
(520.458189450008 -0 -0)
(528.399971082334 -0 -0)
(536.532146606816 -0 -0)
(544.866370018387 -0 -0)
(553.4147643233 -0 -0)
(562.189936636923 -0 -0)
(571.204994250008 -0 -0)
(580.473561434595 -0 -0)
(590.009797252097 -0 -0)
(599.828414517336 -0 -0)
(609.944699801805 -0 -0)
(620.374534822265 -0 -0)
(631.134419164298 -0 -0)
(642.241494669475 -0 -0)
(653.713571387025 -0 -0)
(665.569155551613 -0 -0)
(677.827479520009 -0 -0)
(690.508533997133 -0 -0)
(703.633102745815 -0 -0)
(717.222800063266 -0 -0)
(731.300111175689 -0 -0)
(745.888435965753 -0 -0)
(761.012136282839 -0 -0)
(776.69658727894 -0 -0)
(792.968232930864 -0 -0)
(809.854646569098 -0 -0)
(827.384596473024 -0 -0)
(845.588117330621 -0 -0)
(864.496588028166 -0 -0)
(884.142816459472 -0 -0)
(904.561132098002 -0 -0)
(925.78748698428 -0 -0)
(947.859566244137 -0 -0)
(970.816908950448 -0 -0)
(994.701040581224 -0 -0)
(1019.55561813534 -0 -0)
(1045.42658957162 -0 -0)
(1072.36236899939 -0 -0)
(1100.41402939776 -0 -0)
(1129.63551495435 -0 -0)
(1160.08387541236 -0 -0)
(1191.81952479539 -0 -0)
(1224.90652774989 -0 -0)
(1259.41291672104 -0 -0)
(1295.41104404554 -0 -0)
(1332.97797315509 -0 -0)
(1372.19591424557 -0 -0)
(1413.15271027064 -0 -0)
(1455.94237995357 -0 -0)
(1500.66572579284 -0 -0)
(1547.43101618667 -0 -0)
(1596.35475232029 -0 -0)
(1647.56253218253 -0 -0)
(1701.190026061 -0 -0)
(1757.38408073353 -0 -0)
(1816.30397207858 -0 -0)
(1878.12282954853 -0 -0)
(1943.02926041656 -0 -0)
(2011.22920655295 -0 -0)
(2082.94807272732 -0 -0)
(2158.43317309834 -0 -0)
(2237.95655163055 -0 -0)
(2321.81824302105 -0 -0)
(2410.35005479919 -0 -0)
(2503.91996741313 -0 -0)
(2602.93726995716 -0 -0)
(2707.8585741194 -0 -0)
(2819.19488053121 -0 -0)
(2937.5199096051 -0 -0)
(3063.47995714413 -0 -0)
(3197.80559459891 -0 -0)
(3341.32560656444 -0 -0)
(3494.98364654068 -0 -0)
(3659.85822760348 -0 -0)
(3837.18672274028 -0 -0)
(4028.39445737865 -0 -0)
(4235.12998484246 -0 -0)
(4459.3067062939 -0 -0)
(4703.15983814493 -0 -0)
(4969.32068136858 -0 -0)
(5260.8481801833 -0 -0)
(5581.50445403089 -0 -0)
(5936.86613190642 -0 -0)
(6335.24589086093 -0 -0)
(6785.99359218516 -0 -0)
(7297.72367589689 -0 -0)
(7880.56088239217 -0 -0)
(8547.7521606279 -0 -0)
(9316.48625666193 -0 -0)
(10203.2482990879 -0 -0)
(11217.7006410666 -0 -0)
(12376.2302613126 -0 -0)
(13699.414723732 -0 -0)
(15198.0968463182 -0 -0)
(16882.9076075686 -0 -0)
(18756.4538202269 -0 -0)
(20818.1287238419 -0 -0)
(23069.2358112209 -0 -0)
(25494.4430306112 -0 -0)
(28080.2763879103 -0 -0)
(30804.2688524749 -0 -0)
(33633.9391828204 -0 -0)
(36548.4943581014 -0 -0)
(39520.514642743 -0 -0)
(42515.2014749277 -0 -0)
(45514.0387825398 -0 -0)
(48507.4218795139 -0 -0)
(51473.4929029803 -0 -0)
(54394.1043939867 -0 -0)
(57265.2441738503 -0 -0)
(60096.1807809995 -0 -0)
(62901.7113000546 -0 -0)
(65693.6146380643 -0 -0)
(68485.5835414429 -0 -0)
(71281.9757927422 -0 -0)
(74077.8503714939 -0 -0)
(76868.4584132315 -0 -0)
(79648.023991846 -0 -0)
(82413.5200023669 -0 -0)
(85156.8711145717 -0 -0)
(87871.1373245272 -0 -0)
(90557.5122115899 -0 -0)
(93218.302615184 -0 -0)
(95856.0234615361 -0 -0)
(98473.0942527031 -0 -0)
(101072.078220056 -0 -0)
(103655.388888545 -0 -0)
(106225.452506974 -0 -0)
(108781.607409441 -0 -0)
(111320.184177196 -0 -0)
(113840.305816298 -0 -0)
(116343.782208091 -0 -0)
(118832.264841843 -0 -0)
(121307.284513495 -0 -0)
(123770.198164817 -0 -0)
(126222.365342913 -0 -0)
(128665.035032169 -0 -0)
(131099.359980537 -0 -0)
(133526.449784077 -0 -0)
(135947.27342096 -0 -0)
(138362.76933681 -0 -0)
(140772.148065668 -0 -0)
(143172.20888756 -0 -0)
(145561.370374602 -0 -0)
(147940.335100791 -0 -0)
(150309.717147606 -0 -0)
(152670.10080615 -0 -0)
(155021.999497676 -0 -0)
(157365.896207596 -0 -0)
(159702.226923101 -0 -0)
(162031.388589168 -0 -0)
(164353.745032407 -0 -0)
(166669.686166777 -0 -0)
(168979.584757282 -0 -0)
(171283.800442834 -0 -0)
(173582.70071016 -0 -0)
(175876.622115269 -0 -0)
(178165.909761077 -0 -0)
(180450.865293962 -0 -0)
(182730.599579698 -0 -0)
(185002.579834278 -0 -0)
(187265.618142973 -0 -0)
(189519.995094539 -0 -0)
(191766.004734692 -0 -0)
(194003.906195081 -0 -0)
(196233.92692722 -0 -0)
(198456.278694389 -0 -0)
(200671.134642557 -0 -0)
(202878.638131036 -0 -0)
(205079.03168707 -0 -0)
(207272.487559919 -0 -0)
(209459.289951141 -0 -0)
(211639.71038045 -0 -0)
(213814.018387316 -0 -0)
(215982.511851013 -0 -0)
(218145.440471826 -0 -0)
(220303.069212517 -0 -0)
(222455.656047959 -0 -0)
(224603.381779888 -0 -0)
(226746.474091654 -0 -0)
(228884.995217865 -0 -0)
(231019.104526726 -0 -0)
(233148.855068736 -0 -0)
(235274.376420121 -0 -0)
(237394.729146663 -0 -0)
(239508.28978098 -0 -0)
(241614.332576078 -0 -0)
(243713.166898628 -0 -0)
(245804.968855514 -0 -0)
(247889.998777871 -0 -0)
(249968.403344474 -0 -0)
(252040.307255732 -0 -0)
(254105.803736248 -0 -0)
(256164.92887343 -0 -0)
(258217.73808519 -0 -0)
(260264.283362574 -0 -0)
(262304.632655979 -0 -0)
(264338.849209426 -0 -0)
(266366.986179716 -0 -0)
(268389.115652836 -0 -0)
(270405.278692477 -0 -0)
(272415.586028827 -0 -0)
(274420.084662955 -0 -0)
(276418.919745356 -0 -0)
(278412.108067166 -0 -0)
(280399.800650482 -0 -0)
(282382.0783523 -0 -0)
(284359.084074132 -0 -0)
(286331.010957933 -0 -0)
(288298.037186182 -0 -0)
(290260.365065556 -0 -0)
(292218.158853928 -0 -0)
(294171.561689402 -0 -0)
(296120.668397584 -0 -0)
(298065.544213077 -0 -0)
(300006.204806271 -0 -0)
(301941.863658468 -0 -0)
)
;

boundaryField
{
    electrode
    {
        type            calculated;
        value           uniform (2.69868186251188 -0 -0);
    }
    ground
    {
        type            calculated;
        value           uniform (302907.896426782 -0 -0);
    }
    otherfaces
    {
        type            empty;
    }
}


// ************************************************************************* //
