/*--------------------------------*- C++ -*----------------------------------*\
| =========                 |                                                 |
| \\      /  F ield         | foam-extend: Open Source CFD                    |
|  \\    /   O peration     | Version:     4.0                                |
|   \\  /    A nd           | Web:         http://www.foam-extend.org         |
|    \\/     M anipulation  |                                                 |
\*---------------------------------------------------------------------------*/
FoamFile
{
    version     2.0;
    format      ascii;
    class       volScalarField;
    location    "2.2e-06";
    object      N_electronMean;
}
// * * * * * * * * * * * * * * * * * * * * * * * * * * * * * * * * * * * * * //

dimensions      [0 0 0 1 0 0 0];

internalField   nonuniform List<scalar> 
300
(
6.06337519625673e+16
6.06326038169345e+16
6.06288171741483e+16
6.06217269319229e+16
6.06113410074534e+16
6.05975856250926e+16
6.05804092958171e+16
6.05597762910683e+16
6.05356554474695e+16
6.05080223357571e+16
6.04768582229374e+16
6.04421495840073e+16
6.0403887653975e+16
6.03620680074933e+16
6.03166902679761e+16
6.02677578180418e+16
6.02152775582124e+16
6.01592597031508e+16
6.00997175853296e+16
6.00366674716349e+16
5.99701284049689e+16
5.99001220567793e+16
5.98266725868129e+16
5.9749806500111e+16
5.96695525509758e+16
5.9585941674818e+16
5.9499006840441e+16
5.94087829044364e+16
5.93153064992595e+16
5.92186158722518e+16
5.91187507943077e+16
5.90157525615237e+16
5.89096638548819e+16
5.88005284933147e+16
5.86883912679045e+16
5.85732978180618e+16
5.84552945113927e+16
5.8334428338213e+16
5.82107467934147e+16
5.80842977568162e+16
5.79551294035196e+16
5.78232901113377e+16
5.76888283415605e+16
5.75517925331894e+16
5.74122310175451e+16
5.7270191936533e+16
5.71257231697892e+16
5.69788722752059e+16
5.68296864541521e+16
5.6678212540912e+16
5.65244970487376e+16
5.6368586218213e+16
5.6210525975531e+16
5.60503618148187e+16
5.58881386096176e+16
5.5723900417233e+16
5.55576903165981e+16
5.53895502894069e+16
5.5219521138021e+16
5.50476424067367e+16
5.48739523152283e+16
5.46984876995253e+16
5.45212839417735e+16
5.43423749847067e+16
5.41617934477687e+16
5.39795705578541e+16
5.37957359062536e+16
5.36103173150455e+16
5.3423340786552e+16
5.32348304491395e+16
5.30448085001786e+16
5.28532951925839e+16
5.26603089056297e+16
5.24658661221867e+16
5.22699812980287e+16
5.20726668835555e+16
5.18739334009564e+16
5.16737893814407e+16
5.1472241170057e+16
5.12692928062477e+16
5.10649460122683e+16
5.08591999834013e+16
5.06520511834044e+16
5.04434932720727e+16
5.02335170682583e+16
5.00221105748964e+16
4.98092588735308e+16
4.95949439107073e+16
4.93791443907496e+16
4.91618357456853e+16
4.89429900319864e+16
4.87225759463064e+16
4.85005588717001e+16
4.82769005977438e+16
4.80515590517868e+16
4.78244881985586e+16
4.75956379340578e+16
4.7364953977737e+16
4.71323777620552e+16
4.68978463529575e+16
4.66612923639997e+16
4.64226438004941e+16
4.6181824000634e+16
4.59387516363466e+16
4.56933405256738e+16
4.54454994826768e+16
4.51951322347521e+16
4.49421372976888e+16
4.4686407901735e+16
4.44278318314109e+16
4.41662912325879e+16
4.39016624913477e+16
4.36338161461427e+16
4.33626168525577e+16
4.30879232935446e+16
4.28095880884154e+16
4.25274578519588e+16
4.22413731614766e+16
4.19511683258068e+16
4.16566711828178e+16
4.13577030765667e+16
4.10540788942446e+16
4.07456070780785e+16
4.04320896702324e+16
4.01133221730517e+16
3.97890932809514e+16
3.9459184816299e+16
3.9123371752084e+16
3.87814221233162e+16
3.84330969762456e+16
3.80781504098947e+16
3.77163296221588e+16
3.73473749322435e+16
3.6971019805768e+16
3.65869910872324e+16
3.6195009310484e+16
3.57947886951113e+16
3.53860370896728e+16
3.49684562088832e+16
3.45417418941022e+16
3.41055841772513e+16
3.36596673808062e+16
3.32036703645193e+16
3.27372668533573e+16
3.22601259262054e+16
3.17719124584314e+16
3.1272287321692e+16
3.07609075624442e+16
3.02374266030114e+16
2.97014946871633e+16
2.91527595655986e+16
2.85908668985859e+16
2.80154607353989e+16
2.74261841796372e+16
2.68226798271125e+16
2.6204590375336e+16
2.55715595218813e+16
2.49232328913208e+16
2.42592588456737e+16
2.35792894229856e+16
2.28829816297719e+16
2.21699983261992e+16
2.14400087090922e+16
2.06926883293752e+16
1.99277149143637e+16
1.91447554431021e+16
1.83434403932831e+16
1.75233358865008e+16
1.66839394780535e+16
1.58247164012025e+16
1.49451582943459e+16
1.40448643071623e+16
1.31237523441261e+16
1.21824208387398e+16
1.12225408675611e+16
1.02472307494103e+16
9.26151621069613e+15
8.27277863245651e+15
7.29091281202793e+15
6.32823710852606e+15
5.39905609433017e+15
4.51879514780047e+15
3.70278495306905e+15
2.96474714550514e+15
2.31529811983215e+15
1.76071033021153e+15
1.30218851211696e+15
935867319998275
653509822471680
443748384509569
293609839635431
190029449707989
121061697963765
76700520424539
48557262663002.6
30777546651294.3
19636062180752.5
12790713003570.9
8718553249214.21
6340061357531.39
4978126589031.84
4209831193381.07
3762535129655.63
3481796956708.44
3290051090050.73
3148634947812.23
3037420399378.3
2945176031508.37
2865231411113.33
2793372161238.53
2726929428853.39
2664138666787.35
2603810839870.54
2545113895188.49
2487477970769.94
2430509535952.17
2373949313219.33
2317636185877.43
2261480011377.74
2205445711532.36
2149538566203.96
2093771565419.09
2038183484475.75
1982847698919.36
1927851461216.68
1873289459198.21
1819258779306.99
1765853508200.19
1713163467226.66
1661271909277.29
1610254116366.73
1560178653573.76
1511104766696.51
1463083331357.24
1416157763877.58
1370363121257.54
1325726215338.69
1282267792102.68
1240000836048.58
1198932112552.11
1159063633415.7
1120391630286.61
1082909135116.79
1046605185243.03
1011465092623.94
977471146603.317
944600400963.842
912827358229.031
882126006462.771
852470884695.65
823836429480.167
796195540478.815
769520481899.392
743782500716.864
718953022117.517
695004012360.975
671908462309.905
649638170747.861
628163520265.636
607457954275.912
587496798609.677
568254060182.409
549704384679.037
531822387217.2
514583459730.893
497964425755.019
481943041708.542
466498102504.915
451607628895.565
437248877081.948
423399276934.251
410038857483.448
397150080216.793
384717475716.914
372726455360.765
361163329113.352
350015046860.447
339268868630.396
328913017461.523
318936706490.453
309329768683.253
300081376394.566
291181231229.102
282612138174.675
274349845238.041
266383100312.2
258713853019.589
251345037308.683
244279792594.913
237506576528.726
231005492592.429
224782451291.347
218866318540.212
213254685602.325
207967050000.408
203065960822.99
198646533354.674
194904193534.895
192161521475.98
190993779754.844
)
;

boundaryField
{
    electrode
    {
        type            calculated;
        value           uniform 6.06337519631033e+16;
    }
    ground
    {
        type            calculated;
        value           uniform 191616308036.355;
    }
    otherfaces
    {
        type            empty;
    }
}


// ************************************************************************* //
