/*--------------------------------*- C++ -*----------------------------------*\
| =========                 |                                                 |
| \\      /  F ield         | foam-extend: Open Source CFD                    |
|  \\    /   O peration     | Version:     4.0                                |
|   \\  /    A nd           | Web:         http://www.foam-extend.org         |
|    \\/     M anipulation  |                                                 |
\*---------------------------------------------------------------------------*/
FoamFile
{
    version     2.0;
    format      ascii;
    class       volScalarField;
    location    "2.2e-06";
    object      TeMean;
}
// * * * * * * * * * * * * * * * * * * * * * * * * * * * * * * * * * * * * * //

dimensions      [0 0 0 1 0 0 0];

internalField   nonuniform List<scalar> 
300
(
29517.4638781793
29517.781502928
29517.8083516302
29517.5735952747
29517.2749684659
29516.8930131532
29516.4322887073
29515.8976419643
29515.2903209316
29514.6120586775
29513.8644694001
29513.049118915
29512.1675121481
29511.2210567064
29510.2111068287
29509.1389582785
29508.0058451111
29506.812953309
29505.5614193957
29504.2523298557
29502.8867291497
29501.465613522
29499.989937902
29498.460613694
29496.8785075316
29495.2444731649
29493.5593301402
29491.823856001
29490.0388111839
29488.2049050988
29486.3227922539
29484.3931434318
29482.4166384288
29480.3939088987
29478.3255544756
29476.2121309372
29474.054173369
29471.8522217413
29469.6067954324
29467.3183800183
29464.9874330793
29462.6144171202
29460.1997755375
29457.743924115
29455.2472609686
29452.710165533
29450.1329969538
29447.5160910746
29444.8597507468
29442.1642454241
29439.4298117271
29436.6566959951
29433.8451781572
29430.9955180186
29428.1079689162
29425.1827947902
29422.2202239229
29419.2204543713
29416.183691145
29413.1101273416
29409.999939221
29406.8533122482
29403.6703703249
29400.4512052892
29397.1959793026
29393.9048812104
29390.5780719329
29387.2156898506
29383.8178612636
29380.3847139658
29376.916353003
29373.4128345995
29369.8742411361
29366.3006697226
29362.6921693248
29359.0487473443
29355.3704499964
29351.6573835039
29347.9096017577
29344.1271231058
29340.3100293685
29336.4584058182
29332.572276696
29328.6516261259
29324.6964254403
29320.7066981519
29316.6825060345
29312.6238674788
29308.5307627881
29304.4031897383
29300.2410982984
29296.0444228499
29291.8132211907
29287.5474953017
29283.2472016403
29278.9123493823
29274.5429143462
29270.1388680031
29265.7001600175
29261.2267417629
29256.7186080643
29252.17566344
29247.5977957558
29242.9849849592
29238.3371877653
29233.6543320522
29228.9363232318
29224.1830644227
29219.3944878626
29214.57050995
29209.7110393678
29204.815968968
29199.885156856
29194.9185111048
29189.9158982204
29184.8771318674
29179.8019992875
29174.6903367451
29169.5420290201
29164.3568289677
29159.1344521091
29153.8746314213
29148.5770619629
29143.2414664931
29137.8676123425
29132.4551900276
29127.0037878004
29121.5130179466
29115.9825028791
29110.4117582132
29104.8002441148
29099.1474298745
29093.4527710416
29087.7155442051
29081.9349280123
29076.1102359821
29070.2407341001
29064.3255108516
29058.3636256348
29052.354149452
29046.2960761757
29040.1882706977
29034.0294717971
29027.8182912407
29021.5533139997
29015.2331594026
29008.8564087286
29002.4216157084
28995.9270955602
28989.3710455216
28982.7518455008
28976.0677737761
28969.3170760234
28962.4982282572
28955.60967503
28948.6499573966
28941.6179523017
28934.5130308275
28927.335179463
28920.0850728153
28912.764869025
28905.3787167132
28897.933379796
28890.44161046
28882.9267962803
28875.4285549409
28868.0012518566
28860.6988722609
28853.5632332828
28846.6387642897
28839.9803896647
28833.5815883887
28827.3242779352
28821.0360363111
28814.5278613918
28807.471947382
28799.4147479093
28790.0445580418
28779.2001983491
28767.0979544069
28754.7949669733
28744.6460873846
28741.3514569963
28753.0155053179
28792.8021899485
28881.7048456505
29052.1030778373
29353.7110537307
29864.2224662931
30706.0027340843
32074.0728473819
34292.3436050639
37904.9577734324
44001.8149312076
53840.3451172262
68270.1352609075
89667.1015860117
119073.817534618
158589.955355363
207821.795513247
265165.159268053
327271.422581657
390477.609458509
451000.377977697
506114.393290893
554562.866094673
596336.790317775
632083.073316093
662735.482625234
689212.034880253
712261.654378298
732488.175537448
750400.57510849
766416.174508093
780870.944260508
794036.013627222
806130.735117481
817333.685579805
827790.280596342
837616.044985227
846905.741542294
855738.017239698
864178.042592838
872281.560356584
880093.307272875
887649.141976182
894977.836580893
902102.076816392
909039.356265036
915802.689803245
922401.217453637
928840.715148995
935124.016972114
941251.15329119
947219.778162147
953025.610134511
958662.487582725
964122.613372707
969396.724005307
974474.273253897
979343.557930385
983991.833371736
988405.529207276
992570.413558277
996471.667961616
1000094.15099201
1003421.62443593
1006437.23828715
1009124.56173836
1011467.28559253
1013449.04897057
1015053.11031878
1016262.6211922
1017060.64232074
1017430.2027854
1017353.98916284
1016815.31535202
1015790.95703753
1014277.59356736
1012251.15373828
1009694.9016135
1006591.3194983
1002923.27070636
998673.4265299
993824.341750899
988358.348165663
982257.55748834
975504.154148288
968079.952896485
959965.728512007
951141.54198544
941587.371553377
931282.835245782
920206.096519276
908333.945802646
895641.864550688
882103.944895319
867692.684654212
852378.891615495
836131.363651802
818916.726404375
800698.983916972
781442.432086923
761106.590380034
739641.621208853
716996.800297612
693115.119805513
667927.564249739
641362.770661746
613339.007070779
583755.604751115
552496.707488446
519432.146348005
484390.161798192
447160.871803624
407479.058590904
364967.725940758
319116.794034937
269185.216280192
214178.776037923
)
;

boundaryField
{
    electrode
    {
        type            calculated;
        value           uniform 29517.4638781848;
    }
    ground
    {
        type            calculated;
        value           uniform 183035.123950925;
    }
    otherfaces
    {
        type            empty;
    }
}


// ************************************************************************* //
