/*--------------------------------*- C++ -*----------------------------------*\
| =========                 |                                                 |
| \\      /  F ield         | foam-extend: Open Source CFD                    |
|  \\    /   O peration     | Version:     4.0                                |
|   \\  /    A nd           | Web:         http://www.foam-extend.org         |
|    \\/     M anipulation  |                                                 |
\*---------------------------------------------------------------------------*/
FoamFile
{
    version     2.0;
    format      ascii;
    class       volScalarField;
    location    "2.6e-06";
    object      Arp1;
}
// * * * * * * * * * * * * * * * * * * * * * * * * * * * * * * * * * * * * * //

dimensions      [0 0 0 1 0 0 0];

internalField   nonuniform List<scalar> 
300
(
5.94393140704555e+16
5.94703425506682e+16
5.94512926680202e+16
5.94429025983204e+16
5.94325791691522e+16
5.94182922554183e+16
5.94010654690268e+16
5.93807843723359e+16
5.9357402820539e+16
5.93309463021219e+16
5.93014205889479e+16
5.92688315793428e+16
5.92331875948575e+16
5.91944973698379e+16
5.91527702804039e+16
5.91080164319346e+16
5.90602466063838e+16
5.90094722462668e+16
5.89557054416729e+16
5.88989589120971e+16
5.88392459870586e+16
5.8776580586669e+16
5.87109772003407e+16
5.86424508640482e+16
5.8571017136997e+16
5.84966920767981e+16
5.84194922127466e+16
5.83394345188263e+16
5.82565363848322e+16
5.81708155860359e+16
5.80822902518061e+16
5.79909788331642e+16
5.7896900068236e+16
5.78000729469138e+16
5.77005166743314e+16
5.75982506322075e+16
5.74932943396928e+16
5.73856674126201e+16
5.72753895208192e+16
5.71624803450409e+16
5.70469595322757e+16
5.69288466490611e+16
5.6808161134569e+16
5.668492225203e+16
5.65591490383856e+16
5.6430860253651e+16
5.63000743287775e+16
5.61668093116494e+16
5.60310828132104e+16
5.58929119520104e+16
5.57523132969167e+16
5.56093028103672e+16
5.54638957897627e+16
5.53161068078578e+16
5.51659496529454e+16
5.50134372680623e+16
5.48585816893177e+16
5.47013939837128e+16
5.45418841868054e+16
5.43800612390676e+16
5.42159329226726e+16
5.40495057978381e+16
5.38807851382152e+16
5.37097748670716e+16
5.35364774932553e+16
5.33608940464407e+16
5.31830240134217e+16
5.30028652746788e+16
5.28204140403299e+16
5.26356647874118e+16
5.24486101980492e+16
5.22592410970874e+16
5.20675463915405e+16
5.18735130111673e+16
5.16771258489647e+16
5.14783677039765e+16
5.12772192253021e+16
5.10736588569164e+16
5.08676627845835e+16
5.065920488499e+16
5.04482566758677e+16
5.02347872685465e+16
5.00187633234051e+16
4.98001490066538e+16
4.95789059500615e+16
4.93549932139944e+16
4.91283672524481e+16
4.88989818814265e+16
4.86667882510344e+16
4.84317348202712e+16
4.81937673356926e+16
4.7952828814152e+16
4.77088595291408e+16
4.74617970010821e+16
4.72115759927292e+16
4.69581285083392e+16
4.67013837979247e+16
4.64412683665491e+16
4.6177705988503e+16
4.59106177269676e+16
4.56399219593178e+16
4.53655344081946e+16
4.50873681782131e+16
4.48053337994761e+16
4.45193392771828e+16
4.42292901476379e+16
4.39350895418106e+16
4.3636638255499e+16
4.33338348266682e+16
4.30265756212832e+16
4.27147549259224e+16
4.23982650487208e+16
4.20769964295507e+16
4.17508377574091e+16
4.14196760961587e+16
4.10833970201398e+16
4.07418847640079e+16
4.03950223753335e+16
4.00426918798676e+16
3.9684774456218e+16
3.93211506225118e+16
3.8951700433838e+16
3.85763036900404e+16
3.81948401569364e+16
3.78071897994549e+16
3.74132330267922e+16
3.70128509525203e+16
3.6605925668344e+16
3.61923405324541e+16
3.57719804750072e+16
3.53447323198744e+16
3.49104851250594e+16
3.44691305434777e+16
3.40205632049944e+16
3.35646811228518e+16
3.31013861270408e+16
3.26305843270294e+16
3.21521866088353e+16
3.16661091708038e+16
3.11722741035356e+16
3.06706100218586e+16
3.01610527571168e+16
2.96435461209549e+16
2.91180427539132e+16
2.85845050754175e+16
2.8042906355826e+16
2.74932319364039e+16
2.69354806291495e+16
2.63696663361817e+16
2.57958199392839e+16
2.52139915224246e+16
2.46242530024771e+16
2.40267012833678e+16
2.34214620148118e+16
2.28086941650862e+16
2.21885955377417e+16
2.15614098655032e+16
2.09274336102055e+16
2.02870231137419e+16
1.9640625980944e+16
1.89887858665819e+16
1.83316604265412e+16
1.76711822711114e+16
1.70068526641863e+16
1.63499866002465e+16
1.5699145674406e+16
1.50441815386688e+16
1.43899819264367e+16
1.37482872255446e+16
1.31138355680635e+16
1.25061682042424e+16
1.19072299050543e+16
1.12914542221467e+16
1.07319154849854e+16
1.01946060432376e+16
9.64481667349343e+15
9.15955040025894e+15
8.67470037069194e+15
8.2283333969238e+15
7.83503487124626e+15
7.42531470159653e+15
7.07202286330945e+15
6.78052191694869e+15
6.44733669248184e+15
6.18684436221978e+15
5.96070092622662e+15
5.71971676599851e+15
5.50893865338578e+15
5.34120453636137e+15
5.19613198342704e+15
5.02797158984119e+15
4.88591040757753e+15
4.7686107219707e+15
4.6790535859202e+15
4.63136966692441e+15
4.60074738829637e+15
4.60561022334098e+15
4.62109257693988e+15
4.62311384037269e+15
4.61811560047617e+15
4.607115254516e+15
4.58437232366329e+15
4.53717079858633e+15
4.48865149905861e+15
4.44373432153864e+15
4.40239286757901e+15
4.36543105403767e+15
4.33235015450399e+15
4.30344316350939e+15
4.27825195745774e+15
4.25707173825264e+15
4.22731827429113e+15
4.1937333158583e+15
4.162895761966e+15
4.13558637943979e+15
4.11041155281472e+15
4.08839250016449e+15
4.06798184398617e+15
4.05030244931715e+15
4.03377773340101e+15
4.01967410014945e+15
4.00642326143008e+15
3.99551359066594e+15
3.98524147259136e+15
3.97060373688809e+15
3.9498097662869e+15
3.93126948657563e+15
3.91295437161267e+15
3.89663609329082e+15
3.88022946919786e+15
3.86581189324711e+15
3.85085207885725e+15
3.83802208507354e+15
3.82432840474795e+15
3.81276833107368e+15
3.8003454538367e+15
3.79001100474033e+15
3.77879090938234e+15
3.76978197289682e+15
3.75967712375353e+15
3.75200248413399e+15
3.74285881049603e+15
3.7328308240828e+15
3.71548931593606e+15
3.70107654463981e+15
3.68472155123851e+15
3.67137892306756e+15
3.65596275433936e+15
3.64360319081942e+15
3.62908386228246e+15
3.6176862134951e+15
3.60400410057938e+15
3.59355981905762e+15
3.58066141491748e+15
3.57117303390648e+15
3.55904557460194e+15
3.55040371599513e+15
3.53910038419658e+15
3.53121072410603e+15
3.52071472492691e+15
3.51362294523104e+15
3.50376446628395e+15
3.4974380556375e+15
3.48813799577845e+15
3.4824660018009e+15
3.47368034485494e+15
3.4687027598609e+15
3.45958100079329e+15
3.44909988518391e+15
3.4353388113908e+15
3.42540825962026e+15
3.41223335689348e+15
3.40281561113256e+15
3.39020130436563e+15
3.38129793465079e+15
3.3692331180818e+15
3.36082263048278e+15
3.34925498829356e+15
3.34134763637699e+15
3.33033316295395e+15
3.32295087132663e+15
3.31246310748514e+15
3.30557779639135e+15
3.29548838919019e+15
3.28899449381761e+15
3.27916963274202e+15
3.27303859201365e+15
3.2634088206101e+15
3.25764702535819e+15
3.2482474989949e+15
3.24283046271586e+15
3.23371868705624e+15
3.2286200707624e+15
3.21990102779607e+15
3.21514426582111e+15
3.20684427238693e+15
3.20252990066545e+15
3.19456688648938e+15
3.19065020006874e+15
3.1809079054775e+15
)
;

boundaryField
{
    electrode
    {
        type            driftDiffusionPositiveIonDensity;
        seec            0;
        fieldName       Arp1;
        value           uniform 5.93203417078357e+16;
    }
    ground
    {
        type            driftDiffusionPositiveIonDensity;
        seec            0;
        fieldName       Arp1;
        value           uniform 3.1809079054775e+15;
    }
    otherfaces
    {
        type            empty;
    }
}


// ************************************************************************* //
