/*--------------------------------*- C++ -*----------------------------------*\
| =========                 |                                                 |
| \\      /  F ield         | foam-extend: Open Source CFD                    |
|  \\    /   O peration     | Version:     4.0                                |
|   \\  /    A nd           | Web:         http://www.foam-extend.org         |
|    \\/     M anipulation  |                                                 |
\*---------------------------------------------------------------------------*/
FoamFile
{
    version     2.0;
    format      ascii;
    class       volVectorField;
    location    "2.6e-06";
    object      J_Arp1;
}
// * * * * * * * * * * * * * * * * * * * * * * * * * * * * * * * * * * * * * //

dimensions      [1 -1 -1 0 0 0 0];

internalField   nonuniform List<vector> 
300
(
(1.73697419315232e+16 -0 -0)
(5.84103320350178e+16 -0 -0)
(1.02434496402134e+17 -0 -0)
(1.42955145727393e+17 -0 -0)
(1.83478478981188e+17 -0 -0)
(2.24180989722831e+17 -0 -0)
(2.64775526693781e+17 -0 -0)
(3.05292266399851e+17 -0 -0)
(3.45731868739248e+17 -0 -0)
(3.86079050892381e+17 -0 -0)
(4.26324600659096e+17 -0 -0)
(4.66459324479405e+17 -0 -0)
(5.06473750334868e+17 -0 -0)
(5.46358664638673e+17 -0 -0)
(5.86105039123257e+17 -0 -0)
(6.25704024070587e+17 -0 -0)
(6.6514697363729e+17 -0 -0)
(7.04425460730023e+17 -0 -0)
(7.43531290953e+17 -0 -0)
(7.82456518228771e+17 -0 -0)
(8.21193460052213e+17 -0 -0)
(8.59734713254788e+17 -0 -0)
(8.98073169677774e+17 -0 -0)
(9.36202032336605e+17 -0 -0)
(9.74114831700389e+17 -0 -0)
(1.01180544180879e+18 -0 -0)
(1.04926809718388e+18 -0 -0)
(1.0864974095888e+18 -0 -0)
(1.12348838448618e+18 -0 -0)
(1.16023643863756e+18 -0 -0)
(1.19673741681488e+18 -0 -0)
(1.23298760940998e+18 -0 -0)
(1.26898376918597e+18 -0 -0)
(1.30472312890708e+18 -0 -0)
(1.34020341859171e+18 -0 -0)
(1.37542288275139e+18 -0 -0)
(1.41038029738792e+18 -0 -0)
(1.44507498706728e+18 -0 -0)
(1.47950684217278e+18 -0 -0)
(1.51367633550003e+18 -0 -0)
(1.5475845386027e+18 -0 -0)
(1.58123313834904e+18 -0 -0)
(1.61462445291646e+18 -0 -0)
(1.64776144747624e+18 -0 -0)
(1.68064774949654e+18 -0 -0)
(1.71328766385104e+18 -0 -0)
(1.74568618698103e+18 -0 -0)
(1.77784902122614e+18 -0 -0)
(1.8097825883027e+18 -0 -0)
(1.84149404201643e+18 -0 -0)
(1.87299128083808e+18 -0 -0)
(1.90428295919433e+18 -0 -0)
(1.93537849864608e+18 -0 -0)
(1.96628809812933e+18 -0 -0)
(1.99702274312441e+18 -0 -0)
(2.02759421438124e+18 -0 -0)
(2.05801509552435e+18 -0 -0)
(2.08829877973866e+18 -0 -0)
(2.11845947554549e+18 -0 -0)
(2.14851221145348e+18 -0 -0)
(2.1784728396768e+18 -0 -0)
(2.20835803843764e+18 -0 -0)
(2.2381853134234e+18 -0 -0)
(2.26797299783356e+18 -0 -0)
(2.29774025122672e+18 -0 -0)
(2.32750705676265e+18 -0 -0)
(2.35729421749173e+18 -0 -0)
(2.38712335085381e+18 -0 -0)
(2.41701688197471e+18 -0 -0)
(2.44699803512955e+18 -0 -0)
(2.47709082382525e+18 -0 -0)
(2.50732003913986e+18 -0 -0)
(2.5377112365413e+18 -0 -0)
(2.56829072051121e+18 -0 -0)
(2.59908552800656e+18 -0 -0)
(2.63012340945113e+18 -0 -0)
(2.66143280815611e+18 -0 -0)
(2.69304283792389e+18 -0 -0)
(2.72498325797093e+18 -0 -0)
(2.75728444666272e+18 -0 -0)
(2.78997737234068e+18 -0 -0)
(2.8230935625937e+18 -0 -0)
(2.8566650706587e+18 -0 -0)
(2.89072444023331e+18 -0 -0)
(2.92530466742181e+18 -0 -0)
(2.96043916046212e+18 -0 -0)
(2.99616169708468e+18 -0 -0)
(3.03250637933312e+18 -0 -0)
(3.06950758574229e+18 -0 -0)
(3.10719992113479e+18 -0 -0)
(3.14561816354883e+18 -0 -0)
(3.18479720868445e+18 -0 -0)
(3.22477201150013e+18 -0 -0)
(3.26557752509428e+18 -0 -0)
(3.30724863687304e+18 -0 -0)
(3.34982010135282e+18 -0 -0)
(3.39332647110047e+18 -0 -0)
(3.43780202354356e+18 -0 -0)
(3.48328068581897e+18 -0 -0)
(3.52979595607962e+18 -0 -0)
(3.57738082179975e+18 -0 -0)
(3.62606767545839e+18 -0 -0)
(3.67588822669635e+18 -0 -0)
(3.72687341177417e+18 -0 -0)
(3.7790532995085e+18 -0 -0)
(3.83245699483392e+18 -0 -0)
(3.88711253842402e+18 -0 -0)
(3.94304680390717e+18 -0 -0)
(4.00028539173835e+18 -0 -0)
(4.05885252017307e+18 -0 -0)
(4.11877091303582e+18 -0 -0)
(4.18006168457011e+18 -0 -0)
(4.24274422163231e+18 -0 -0)
(4.30683606251123e+18 -0 -0)
(4.37235277247881e+18 -0 -0)
(4.43930781544552e+18 -0 -0)
(4.50771242469243e+18 -0 -0)
(4.5775754725341e+18 -0 -0)
(4.64890333619623e+18 -0 -0)
(4.72169976145737e+18 -0 -0)
(4.79596572330098e+18 -0 -0)
(4.871699285136e+18 -0 -0)
(4.94889545556784e+18 -0 -0)
(5.02754604350812e+18 -0 -0)
(5.10763951203417e+18 -0 -0)
(5.18916083045467e+18 -0 -0)
(5.27209132569615e+18 -0 -0)
(5.35640853237763e+18 -0 -0)
(5.44208604257162e+18 -0 -0)
(5.52909335495223e+18 -0 -0)
(5.61739572369532e+18 -0 -0)
(5.70695400768324e+18 -0 -0)
(5.79772451994394e+18 -0 -0)
(5.88965887762023e+18 -0 -0)
(5.982703852902e+18 -0 -0)
(6.0768012248944e+18 -0 -0)
(6.17188763285855e+18 -0 -0)
(6.26789443072792e+18 -0 -0)
(6.36474754357293e+18 -0 -0)
(6.46236732522437e+18 -0 -0)
(6.56066841798438e+18 -0 -0)
(6.6595596137076e+18 -0 -0)
(6.75894371666463e+18 -0 -0)
(6.85871740762703e+18 -0 -0)
(6.95877110913046e+18 -0 -0)
(7.05898885163022e+18 -0 -0)
(7.15924813969117e+18 -0 -0)
(7.25941981908534e+18 -0 -0)
(7.35936794283134e+18 -0 -0)
(7.45894963750868e+18 -0 -0)
(7.5580149694056e+18 -0 -0)
(7.65640680973974e+18 -0 -0)
(7.75396070808734e+18 -0 -0)
(7.85050475948272e+18 -0 -0)
(7.94585948673589e+18 -0 -0)
(8.03983773370907e+18 -0 -0)
(8.13224484353473e+18 -0 -0)
(8.22287804404429e+18 -0 -0)
(8.31152458194491e+18 -0 -0)
(8.39797613364768e+18 -0 -0)
(8.48203791081414e+18 -0 -0)
(8.56320906174488e+18 -0 -0)
(8.64204537093396e+18 -0 -0)
(8.71800951085559e+18 -0 -0)
(8.78691194728311e+18 -0 -0)
(8.85299240067306e+18 -0 -0)
(8.91638319066994e+18 -0 -0)
(8.97507009949567e+18 -0 -0)
(9.03134533557413e+18 -0 -0)
(9.07792672407334e+18 -0 -0)
(9.12720725696648e+18 -0 -0)
(9.16753004088601e+18 -0 -0)
(9.20191320592566e+18 -0 -0)
(9.23835409664279e+18 -0 -0)
(9.26664145593387e+18 -0 -0)
(9.29664026669864e+18 -0 -0)
(9.31859665041947e+18 -0 -0)
(9.32947789109085e+18 -0 -0)
(9.35901287620614e+18 -0 -0)
(9.36157029443919e+18 -0 -0)
(9.37664060076589e+18 -0 -0)
(9.38799556829508e+18 -0 -0)
(9.40212853407348e+18 -0 -0)
(9.40195269317436e+18 -0 -0)
(9.42010967231943e+18 -0 -0)
(9.41137256455249e+18 -0 -0)
(9.42121892630121e+18 -0 -0)
(9.42027292265971e+18 -0 -0)
(9.42982784984436e+18 -0 -0)
(9.42839363365051e+18 -0 -0)
(9.43233375699842e+18 -0 -0)
(9.43682028997298e+18 -0 -0)
(9.44742511905915e+18 -0 -0)
(9.47753480181828e+18 -0 -0)
(9.56333283987538e+18 -0 -0)
(9.72890575130686e+18 -0 -0)
(9.96494876169439e+18 -0 -0)
(1.02120549333179e+19 -0 -0)
(1.04162622653247e+19 -0 -0)
(1.05897976362085e+19 -0 -0)
(1.07340426063045e+19 -0 -0)
(1.08347529357834e+19 -0 -0)
(1.09287472569367e+19 -0 -0)
(1.10052297057816e+19 -0 -0)
(1.10753984494296e+19 -0 -0)
(1.11404155975086e+19 -0 -0)
(1.12034470846609e+19 -0 -0)
(1.12642900646639e+19 -0 -0)
(1.13246501500732e+19 -0 -0)
(1.13841761255639e+19 -0 -0)
(1.1444518803191e+19 -0 -0)
(1.15039480155185e+19 -0 -0)
(1.15652234409187e+19 -0 -0)
(1.16254553466699e+19 -0 -0)
(1.16875711144675e+19 -0 -0)
(1.17482492852362e+19 -0 -0)
(1.18109231172222e+19 -0 -0)
(1.1871606351888e+19 -0 -0)
(1.19339622435312e+19 -0 -0)
(1.19937160949252e+19 -0 -0)
(1.20549232160808e+19 -0 -0)
(1.21131687037526e+19 -0 -0)
(1.21731804000971e+19 -0 -0)
(1.2230060239134e+19 -0 -0)
(1.22890280037173e+19 -0 -0)
(1.23447563497119e+19 -0 -0)
(1.24028230151325e+19 -0 -0)
(1.24571527014098e+19 -0 -0)
(1.2513571711783e+19 -0 -0)
(1.25655950464413e+19 -0 -0)
(1.26201003794726e+19 -0 -0)
(1.26689968191029e+19 -0 -0)
(1.27211886893437e+19 -0 -0)
(1.27669110007507e+19 -0 -0)
(1.28162502514527e+19 -0 -0)
(1.28592816375385e+19 -0 -0)
(1.2906062060905e+19 -0 -0)
(1.29465943050144e+19 -0 -0)
(1.29915570190918e+19 -0 -0)
(1.30296696231889e+19 -0 -0)
(1.30732116788855e+19 -0 -0)
(1.31087275501059e+19 -0 -0)
(1.31506160923047e+19 -0 -0)
(1.31834810158509e+19 -0 -0)
(1.32238834859725e+19 -0 -0)
(1.32546148565079e+19 -0 -0)
(1.32935337292501e+19 -0 -0)
(1.33223706922656e+19 -0 -0)
(1.33598459441189e+19 -0 -0)
(1.33869703486889e+19 -0 -0)
(1.34232469368451e+19 -0 -0)
(1.34487450954697e+19 -0 -0)
(1.34840879847628e+19 -0 -0)
(1.35080390745977e+19 -0 -0)
(1.3542731903615e+19 -0 -0)
(1.35653447785381e+19 -0 -0)
(1.35992226794648e+19 -0 -0)
(1.36209364475515e+19 -0 -0)
(1.36538623354694e+19 -0 -0)
(1.36748310579936e+19 -0 -0)
(1.37071861824781e+19 -0 -0)
(1.37269485774985e+19 -0 -0)
(1.37587901855505e+19 -0 -0)
(1.37772066967244e+19 -0 -0)
(1.38082608825838e+19 -0 -0)
(1.38253051871211e+19 -0 -0)
(1.38558812246124e+19 -0 -0)
(1.3871365540028e+19 -0 -0)
(1.39008359509676e+19 -0 -0)
(1.39154301770305e+19 -0 -0)
(1.39439541242767e+19 -0 -0)
(1.39577239650196e+19 -0 -0)
(1.39853481687751e+19 -0 -0)
(1.39983569649498e+19 -0 -0)
(1.40252422173051e+19 -0 -0)
(1.40376022902068e+19 -0 -0)
(1.40638053501755e+19 -0 -0)
(1.40754451198104e+19 -0 -0)
(1.41011440008231e+19 -0 -0)
(1.41124378273172e+19 -0 -0)
(1.41378582149109e+19 -0 -0)
(1.41488295630929e+19 -0 -0)
(1.41739777850291e+19 -0 -0)
(1.41841996888591e+19 -0 -0)
(1.42087319846779e+19 -0 -0)
(1.42177271118954e+19 -0 -0)
(1.42416122574805e+19 -0 -0)
(1.4249163116192e+19 -0 -0)
(1.4272513353071e+19 -0 -0)
(1.42788518131736e+19 -0 -0)
(1.43016415489844e+19 -0 -0)
(1.4307098404336e+19 -0 -0)
(1.43292887730452e+19 -0 -0)
(1.43344084371313e+19 -0 -0)
(1.43561801714578e+19 -0 -0)
(1.43611621994486e+19 -0 -0)
(1.43830422066033e+19 -0 -0)
(1.43875996508704e+19 -0 -0)
(1.44094733143912e+19 -0 -0)
(1.4404060526964e+19 -0 -0)
)
;

boundaryField
{
    electrode
    {
        type            calculated;
        value           uniform (173135053514.76 -0 -0);
    }
    ground
    {
        type            calculated;
        value           uniform (1.44230198298339e+19 -0 -0);
    }
    otherfaces
    {
        type            empty;
    }
}


// ************************************************************************* //
