/*--------------------------------*- C++ -*----------------------------------*\
| =========                 |                                                 |
| \\      /  F ield         | foam-extend: Open Source CFD                    |
|  \\    /   O peration     | Version:     4.0                                |
|   \\  /    A nd           | Web:         http://www.foam-extend.org         |
|    \\/     M anipulation  |                                                 |
\*---------------------------------------------------------------------------*/
FoamFile
{
    version     2.0;
    format      ascii;
    class       volScalarField;
    location    "2.6e-06";
    object      N_electronMean;
}
// * * * * * * * * * * * * * * * * * * * * * * * * * * * * * * * * * * * * * //

dimensions      [0 0 0 1 0 0 0];

internalField   nonuniform List<scalar> 
300
(
6.04807395947923e+16
6.04794461924973e+16
6.04754836695385e+16
6.04682370594202e+16
6.04577180311041e+16
6.04438648219726e+16
6.04266338618869e+16
6.04059957001122e+16
6.03819248215923e+16
6.03544015039013e+16
6.03234109803445e+16
6.02889430137384e+16
6.02509915149656e+16
6.02095541868407e+16
6.01646322762012e+16
6.01162303270302e+16
6.00643559743323e+16
6.00090197695721e+16
5.99502350122309e+16
5.98880175921238e+16
5.98223858526922e+16
5.97533604633405e+16
5.96809642977033e+16
5.96052223093759e+16
5.95261614471834e+16
5.94438105938404e+16
5.93582004370752e+16
5.92693633423234e+16
5.91773332537099e+16
5.90821455532931e+16
5.89838369790242e+16
5.88824456211561e+16
5.87780107983005e+16
5.86705728430318e+16
5.85601729559252e+16
5.84468530948715e+16
5.83306558672918e+16
5.82116244345047e+16
5.80898024051677e+16
5.79652337271978e+16
5.7837962604856e+16
5.77080334131282e+16
5.75754905893188e+16
5.74403785358144e+16
5.73027415398743e+16
5.71626236962971e+16
5.70200688373923e+16
5.68751204740674e+16
5.6727821757609e+16
5.65782154617612e+16
5.64263440125266e+16
5.62722495197344e+16
5.61159737322108e+16
5.59575579285189e+16
5.57970427475897e+16
5.56344680131793e+16
5.54698725865361e+16
5.53032942555627e+16
5.51347696549724e+16
5.49643341891784e+16
5.47920219653987e+16
5.4617865733047e+16
5.44418968135657e+16
5.42641451018802e+16
5.40846391538242e+16
5.39034061166693e+16
5.3720471512585e+16
5.3535859114703e+16
5.3349590893491e+16
5.31616869600669e+16
5.29721655071469e+16
5.27810427869489e+16
5.25883331604852e+16
5.23940490677754e+16
5.21982009068573e+16
5.20007970419086e+16
5.18018438584326e+16
5.16013457002314e+16
5.13993046945364e+16
5.11957206414443e+16
5.09905909948752e+16
5.07839106760791e+16
5.05756718918673e+16
5.03658640649493e+16
5.01544737946157e+16
4.99414848702395e+16
4.97268781747497e+16
4.95106314970272e+16
4.92927194347452e+16
4.90731133629602e+16
4.88517813412811e+16
4.86286881222262e+16
4.84037951859351e+16
4.81770604995188e+16
4.79484382864317e+16
4.77178789389268e+16
4.74853289263305e+16
4.72507307025641e+16
4.70140226121523e+16
4.67751388231487e+16
4.65340092554604e+16
4.62905594507476e+16
4.6044710525229e+16
4.57963791738875e+16
4.55454775160736e+16
4.52919129737997e+16
4.50355882080046e+16
4.47764010200459e+16
4.45142442973518e+16
4.42490058871237e+16
4.39805684434015e+16
4.37088093359455e+16
4.34336005883992e+16
4.31548088621155e+16
4.28722953949857e+16
4.2585915940404e+16
4.22955208344626e+16
4.20009549864457e+16
4.17020577030144e+16
4.13986625377447e+16
4.1090597293932e+16
4.07776840792781e+16
4.0459739340671e+16
4.01365739281445e+16
3.9807993003901e+16
3.94737958439897e+16
3.91337758138538e+16
3.87877204185788e+16
3.84354112602122e+16
3.80766240282776e+16
3.77111285695814e+16
3.73386889629879e+16
3.69590635752519e+16
3.65720051201233e+16
3.6177260893839e+16
3.57745730774953e+16
3.53636787744454e+16
3.49443100033706e+16
3.45161939406913e+16
3.4079053183164e+16
3.36326058444921e+16
3.31765656827372e+16
3.27106423520097e+16
3.2234541722962e+16
3.17479663393158e+16
3.1250615835321e+16
3.07421871478442e+16
3.02223747106495e+16
2.96908706682728e+16
2.9147365297794e+16
2.85915476354742e+16
2.80231058671546e+16
2.74417277885814e+16
2.68471014306371e+16
2.6238915503561e+16
2.56168600032486e+16
2.49806270862711e+16
2.43299120034553e+16
2.36644139813054e+16
2.2983837269228e+16
2.22878925453008e+16
2.15762979873135e+16
2.0848779551054e+16
2.01050701669914e+16
1.93448993871703e+16
1.85679650215072e+16
1.77739059622398e+16
1.69623041526422e+16
1.61327090343254e+16
1.52846743145131e+16
1.4417808987906e+16
1.35318708482722e+16
1.26270063001688e+16
1.17041062997634e+16
1.07651436801685e+16
9.81353080086033e+15
8.85453564219654e+15
7.8956187778862e+15
6.94655362418148e+15
6.01929177374776e+15
5.1274715141944e+15
4.28557407292535e+15
3.50775017212011e+15
2.80642927393745e+15
2.1909845391297e+15
1.66662908953467e+15
1.23383259442283e+15
888407981249797
622199539401785
424274883326061
282343941506965
184127521922920
118434547242449
75908075608540.6
48564339536448.6
31003026529241.4
19817028553552.1
12821513492574
8624470067374.14
6174478748758.18
4776315511873.01
3987992397140.58
3530195718505.43
3245990401910.56
3055749518715.36
2919140833554.71
2814804111112.95
2730655407852.49
2659468693984.04
2596688222863.9
2539397840204.45
2485650241497.57
2434136549019.57
2383960223099.39
2334509723173
2285368913128.64
2236267637528.99
2187042426285.38
2137607141935.95
2087934672373.67
2038041447476.12
1987952578084.59
1937718276410.92
1887426489721.56
1837181129968.41
1787094082414
1737279611577.4
1687848723645.23
1638907493393.32
1590554777187.04
1542880800380.66
1495968077447.47
1449889132186.47
1404707274836.87
1360477387970.75
1317245213284.85
1275047522350.84
1233914054634.28
1193866191289.37
1154918378981.31
1117079496457.65
1080352117210.26
1044734856188.58
1010221895268.78
976803315385.258
944465702883.39
913190306329.433
882955438360.769
853737715868.911
825513215121.137
798258340890.531
771948497861.436
746558229634.364
722060960038.993
698430027973.386
675639118010.917
653662790297.535
632473973312.69
612044059931.896
592347749181.974
573361440331.339
555060145290.868
537419461002.165
520414997337.136
504023083794.131
488221298754.422
472987893186.344
458301232868.705
444139308258.586
430480515391.355
417303661518.663
404589915827.52
392322620612.549
380486979881.019
369069053753.636
358055776266.925
347434739991.575
337193920943.991
327322236777.958
317809567746.716
308646455027.92
299822845012.951
291329113977.221
283145977278.196
275248844156.384
267629151061.572
260290238784.185
253236552281.823
246472694537.201
239985069779.972
233753250519.374
227786949766.424
222117522899.305
216741972163.798
211682654948.916
207006339560.76
202815372340.516
199319514721.593
196861416052.469
196056665557.13
)
;

boundaryField
{
    electrode
    {
        type            calculated;
        value           uniform 6.04807395952458e+16;
    }
    ground
    {
        type            calculated;
        value           uniform 196926626392.352;
    }
    otherfaces
    {
        type            empty;
    }
}


// ************************************************************************* //
