/*--------------------------------*- C++ -*----------------------------------*\
| =========                 |                                                 |
| \\      /  F ield         | foam-extend: Open Source CFD                    |
|  \\    /   O peration     | Version:     4.0                                |
|   \\  /    A nd           | Web:         http://www.foam-extend.org         |
|    \\/     M anipulation  |                                                 |
\*---------------------------------------------------------------------------*/
FoamFile
{
    version     2.0;
    format      ascii;
    class       volScalarField;
    location    "2.6e-06";
    object      PhiMean;
}
// * * * * * * * * * * * * * * * * * * * * * * * * * * * * * * * * * * * * * //

dimensions      [0 0 0 1 0 0 0];

internalField   nonuniform List<scalar> 
300
(
699.971764033438
699.969195369146
699.966382679076
699.963341215184
699.960080342777
699.956590890804
699.952870456882
699.948916645638
699.944727289047
699.940300730839
699.9356356207
699.930730942125
699.925585940385
699.920200104724
699.914573145535
699.908704971926
699.902595674017
699.896245511466
699.889654898773
699.882824391518
699.875754677375
699.868446566492
699.860900982979
699.853118956123
699.84510161061
699.836850180993
699.828365989468
699.819650438878
699.810705012228
699.801531256763
699.79213077297
699.782505242343
699.772656412717
699.762586067601
699.752296021588
699.741788113996
699.731064201429
699.720126155802
699.708975856859
699.697615183129
699.686046009546
699.674270205603
699.662289623543
699.650106093741
699.63772142023
699.625137376195
699.612355699547
699.599378090877
699.586206211433
699.57284168854
699.55928611864
699.545541092962
699.531608180872
699.517488936248
699.503184865198
699.488697415441
699.474027954917
699.459177765131
699.444148035943
699.428939858265
699.413554219899
699.397992000263
699.382253963494
699.366340751037
699.350252920973
699.333990939782
699.317555132347
699.300945677628
699.284162604148
699.26720578342
699.250074923399
699.232769559316
699.215289073109
699.197632695503
699.179799467189
699.161788251261
699.143597755843
699.125226512319
699.106672863148
699.0879349111
699.069010577197
699.049897527012
699.030593154604
699.011094579231
698.991398624907
698.971501845072
698.951400498743
698.931090509664
698.91056745073
698.889826549244
698.868862661403
698.847670252365
698.826243460687
698.804575995704
698.782661111373
698.760491591913
698.738059727397
698.715357296486
698.692375535633
698.669105124844
698.645536167398
698.62165815221
698.59745991559
698.57292967288
698.548054934298
698.522822477613
698.497218333421
698.471227718188
698.444835033711
698.418023801161
698.390776603432
698.363075044969
698.334899696564
698.30623006296
698.27704453173
698.247320292482
698.217033324077
698.186158346073
698.15466870268
698.122536274149
698.089731395038
698.056222817928
698.021977590113
697.986961019347
697.951136532302
697.91446551387
697.876907179281
697.838418480954
697.79895391784
697.758465384494
697.716902001909
697.674209940919
697.630332212208
697.585208430141
697.538774584965
697.49096287242
697.441701337789
697.390913510932
697.338518081199
697.284428548672
697.228552733484
697.170792275317
697.111042098421
697.049189809573
696.985115061144
696.918688849299
696.84977257762
696.778217077893
696.703861448832
696.626531768426
696.546039780035
696.462181159304
696.374733564271
696.283454551483
696.188078860916
696.088315453812
695.983844033577
695.874310943887
695.759324249574
695.638447818157
695.511194478993
695.37701754232
695.235300198475
695.085342853848
694.926346754957
694.757382901425
694.577351489934
694.384946953175
694.178619701715
693.956520626259
693.716435626537
693.455689963124
693.171080239683
692.858874627891
692.514727675752
692.133618279413
691.709886720394
691.237261492617
690.70890477745
690.117581262134
689.455790276634
688.715954244216
687.890811017125
686.973440580491
685.957806646571
684.838819547669
683.612401453624
682.275726692432
680.827162934874
679.266023500748
677.592483852458
675.807340041436
673.91205364301
671.908548865035
669.798464810788
667.583285833203
665.264081227684
662.841737702865
660.317190722098
657.691328316492
654.965076934501
652.13937312232
649.215183565944
646.19367427902
643.076152807472
639.863823400202
636.5578025831
633.159107085009
629.668682278341
626.087387252201
622.416025989261
618.655329776845
614.806092133197
610.869223495388
606.845584553656
602.735970155658
598.541137345883
594.261786757977
589.898591234831
585.452174778803
580.923142094003
576.312055559278
571.619465751991
566.845887819793
561.99183404359
557.057876505575
552.044670212308
546.952832424394
541.782971562122
536.535661019088
531.211469237774
525.810931579386
520.33458411695
514.782937111389
509.156505682048
503.455777098112
497.681245558583
491.833377858793
485.912650370356
479.919512869055
473.85442776831
467.717832902308
461.510187540216
455.231998385441
448.883823868998
442.466179039789
435.979600464032
429.424580580357
422.801635866126
416.111237610871
409.353883848865
402.530025917453
395.640144924152
388.684673226853
381.664076361286
374.578768609686
367.429201074262
360.21577085089
352.938915519341
345.599015956079
338.196496942598
330.731724015715
323.205109977272
315.617005463532
307.967812093775
300.257874165478
292.487604196752
284.657356702778
276.767599756186
268.818725964153
260.811210662972
252.745430731422
244.621851270987
236.44083366797
228.202833476214
219.90819696219
211.55737078251
203.150686539932
194.688582586214
186.171376336588
177.599498405264
168.973252377181
160.293061746311
151.559216593845
142.772134016928
133.932090960572
125.039498739984
116.094621400773
107.097865027456
98.049480984166
88.949870598516
79.7992729737721
70.5980853870188
61.3465349713529
52.0450153754174
42.6937423031856
33.2931066470838
23.8433130908412
14.3447509344668
4.79761455055409
)
;

boundaryField
{
    electrode
    {
        type            calculated;
        value           uniform 700.000000000341;
    }
    ground
    {
        type            calculated;
        value           uniform 0;
    }
    otherfaces
    {
        type            empty;
    }
}


// ************************************************************************* //
