/*--------------------------------*- C++ -*----------------------------------*\
| =========                 |                                                 |
| \\      /  F ield         | foam-extend: Open Source CFD                    |
|  \\    /   O peration     | Version:     4.0                                |
|   \\  /    A nd           | Web:         http://www.foam-extend.org         |
|    \\/     M anipulation  |                                                 |
\*---------------------------------------------------------------------------*/
FoamFile
{
    version     2.0;
    format      ascii;
    class       volScalarField;
    location    "2.6e-06";
    object      Sy_electron;
}
// * * * * * * * * * * * * * * * * * * * * * * * * * * * * * * * * * * * * * //

dimensions      [1 -3 -1 0 0 0 0];

internalField   nonuniform List<scalar> 
300
(
3.81346490040049e-12
3.81434915678188e-12
3.81479017270528e-12
3.81481862517768e-12
3.81487614034711e-12
3.81492709062119e-12
3.81496323544585e-12
3.81499057855613e-12
3.8150086834575e-12
3.81501740442131e-12
3.81501700122203e-12
3.81500765031112e-12
3.81498955503592e-12
3.81496296121766e-12
3.81492814588225e-12
3.81488541842527e-12
3.81483511546017e-12
3.81477761366414e-12
3.81471332168187e-12
3.81464267641405e-12
3.81456614510802e-12
3.81448422445636e-12
3.81439743973001e-12
3.81430634379978e-12
3.81421148713993e-12
3.81411349767225e-12
3.81401300231511e-12
3.81391064820424e-12
3.81380712528805e-12
3.81370312818942e-12
3.81359933688248e-12
3.81349649395797e-12
3.81339536954468e-12
3.81329672461329e-12
3.8132013314975e-12
3.8131099719245e-12
3.81302342717685e-12
3.81294249549053e-12
3.81286797939157e-12
3.81280067606031e-12
3.81274138107813e-12
3.812690888999e-12
3.81264998501992e-12
3.81261944428151e-12
3.8126000289154e-12
3.81259248490349e-12
3.81259753523545e-12
3.81261588158603e-12
3.81264818397317e-12
3.81269508434546e-12
3.81275717237128e-12
3.81283504449925e-12
3.81292922541197e-12
3.81304023476649e-12
3.81316852643829e-12
3.81331451486319e-12
3.81347853404057e-12
3.81366085472569e-12
3.81386167971026e-12
3.8140811358417e-12
3.81431927919121e-12
3.81457607950341e-12
3.8148514094817e-12
3.81514502402225e-12
3.81545661583887e-12
3.81578580864889e-12
3.81613207593515e-12
3.81649477390338e-12
3.81687313521033e-12
3.81726626262732e-12
3.81767311929226e-12
3.81809251537686e-12
3.818523120832e-12
3.81896346381425e-12
3.81941187473088e-12
3.81986653706594e-12
3.82032546459089e-12
3.82078646836197e-12
3.82124720485474e-12
3.82170504808597e-12
3.82215726740708e-12
3.82260086263518e-12
3.82303259993851e-12
3.8234490202525e-12
3.8238463953203e-12
3.8242207817433e-12
3.82456798262193e-12
3.8248835147366e-12
3.82516259851737e-12
3.82540019875924e-12
3.82559096333192e-12
3.82572917513943e-12
3.825808957845e-12
3.825824028138e-12
3.82576776703481e-12
3.82563321262357e-12
3.82541304991468e-12
3.82509960107156e-12
3.82468479998661e-12
3.82416021460426e-12
3.82351702975489e-12
3.82274602009388e-12
3.82183749819109e-12
3.82078144441656e-12
3.81956734825055e-12
3.81818425527158e-12
3.81662079260611e-12
3.8148650715515e-12
3.81290477209838e-12
3.81072708067618e-12
3.80831867626921e-12
3.80566572980992e-12
3.80275388610071e-12
3.79956826875774e-12
3.7913191764104e-12
3.77995371796168e-12
3.76818083606613e-12
3.75598380454522e-12
3.7433453818602e-12
3.73024782828435e-12
3.71667288861445e-12
3.70260186848456e-12
3.68801551663618e-12
3.67289413400704e-12
3.65721751592142e-12
3.6409649280449e-12
3.62411508583705e-12
3.60664624782206e-12
3.58853611027754e-12
3.56976185322632e-12
3.55030010521093e-12
3.53012697211547e-12
3.50921801385055e-12
3.48754821160552e-12
3.46509197523316e-12
3.44182322126461e-12
3.41771527072026e-12
3.39274082109893e-12
3.36687198066382e-12
3.34008028270398e-12
3.31233660169362e-12
3.28361116772566e-12
3.25387352801282e-12
3.22309254439518e-12
3.19123637703989e-12
3.15827250113118e-12
3.12416757551354e-12
3.08888744820019e-12
3.05239710026651e-12
3.0146605959407e-12
2.97564112850405e-12
2.93530084520559e-12
2.8936007875364e-12
2.85050094192838e-12
2.8059600755097e-12
2.75993564982856e-12
2.71238379247634e-12
2.66325929440462e-12
2.61251581440734e-12
2.56010658286845e-12
2.50598359464357e-12
2.45011878925362e-12
2.39251759994513e-12
2.3332914461494e-12
2.27256330280228e-12
2.21006406048557e-12
2.1452831424921e-12
2.07805772946733e-12
2.00839619425249e-12
1.93617486049335e-12
1.86113319532017e-12
1.78219280645937e-12
1.69880790105422e-12
1.61172831299132e-12
1.52060691597077e-12
1.4253301882018e-12
1.32719114198798e-12
1.22739725461088e-12
1.12811203903698e-12
1.03202632856634e-12
9.42120869410794e-13
8.63278735435253e-13
8.00680432486329e-13
7.60666092615131e-13
7.55020081721855e-13
8.05382932071167e-13
9.06334479003322e-13
1.12418324881746e-12
1.70975467295805e-12
3.26184987983359e-12
1.10620778399029e-11
1.17098757390804e-10
4.90910267043762e-10
1.50561271995795e-09
3.39390063219124e-09
5.19766990679307e-09
6.436488266099e-09
6.23452258384709e-09
5.28446378485584e-09
4.20499111396595e-09
3.34577291538217e-09
2.72840582923187e-09
2.3168679321836e-09
2.04889111785245e-09
1.88626168520444e-09
1.7859218483615e-09
1.72969342727485e-09
1.69379177692227e-09
1.67723848959201e-09
1.67247524954814e-09
1.67447931193742e-09
1.67520534530293e-09
1.67686964184106e-09
1.67835687061669e-09
1.67860408986777e-09
1.67691990371753e-09
1.67287044006453e-09
1.66621039747859e-09
1.65683269103543e-09
1.64472981116058e-09
1.62997205459993e-09
1.61264093628424e-09
1.59285336635214e-09
1.5702004678762e-09
1.54489640691045e-09
1.51786277523813e-09
1.48933692811609e-09
1.45955299863149e-09
1.4287370913042e-09
1.39710451637379e-09
1.36485782283442e-09
1.33218551548943e-09
1.29926125057533e-09
1.26624342726429e-09
1.23327512842153e-09
1.20048429690886e-09
1.16798413762413e-09
1.13587369365879e-09
1.10423853634582e-09
1.07315157200099e-09
1.04267391272359e-09
1.01285581155201e-09
9.83737839746416e-10
9.55352359040658e-10
9.27724320996355e-10
9.00871288571415e-10
8.74803763182211e-10
8.49525870643673e-10
8.25034268031674e-10
8.01314913170015e-10
7.78354502294326e-10
7.56144288713516e-10
7.34672514359595e-10
7.13925345494014e-10
6.93886809380316e-10
6.74540279401976e-10
6.55867816388359e-10
6.3784665449092e-10
6.20453370895615e-10
6.03668161689102e-10
5.87471591188866e-10
5.71842386451158e-10
5.56759445482117e-10
5.42201862318861e-10
5.28148918710906e-10
5.14580253252067e-10
5.01471349431958e-10
4.88794469874102e-10
4.76527840867402e-10
4.64655039758523e-10
4.5316090700133e-10
4.42031265338633e-10
4.31252699059042e-10
4.20812559388367e-10
4.10698972881029e-10
4.00900864961679e-10
3.91407985479363e-10
3.82210938212907e-10
3.7330121431817e-10
3.64671177686439e-10
3.56314042843789e-10
3.48062440336908e-10
3.39648708814056e-10
3.31446161592942e-10
3.23426682818454e-10
3.1559879979896e-10
3.0797387454455e-10
3.0056437062294e-10
2.9338268125128e-10
2.85270332116737e-10
2.77277447291062e-10
2.69475894204124e-10
2.61904279618127e-10
2.52683946765434e-10
2.4357769121008e-10
2.3360509635355e-10
2.22109289931911e-10
2.08293442692906e-10
1.9104909341203e-10
1.66962421690021e-10
)
;

boundaryField
{
    electrode
    {
        type            zeroGradient;
    }
    ground
    {
        type            zeroGradient;
    }
    otherfaces
    {
        type            empty;
    }
}


// ************************************************************************* //
