/*--------------------------------*- C++ -*----------------------------------*\
| =========                 |                                                 |
| \\      /  F ield         | foam-extend: Open Source CFD                    |
|  \\    /   O peration     | Version:     4.0                                |
|   \\  /    A nd           | Web:         http://www.foam-extend.org         |
|    \\/     M anipulation  |                                                 |
\*---------------------------------------------------------------------------*/
FoamFile
{
    version     2.0;
    format      ascii;
    class       volScalarField;
    location    "2.6e-06";
    object      Te;
}
// * * * * * * * * * * * * * * * * * * * * * * * * * * * * * * * * * * * * * //

dimensions      [0 0 0 1 0 0 0];

internalField   nonuniform List<scalar> 
300
(
31882.380515796
31882.5862692424
31882.7380752096
31882.8469559663
31883.0023443608
31883.1969714048
31883.4291810084
31883.7001548264
31884.0097696166
31884.3579610319
31884.7447447621
31885.1701167621
31885.6340758969
31886.1366269051
31886.6777781224
31887.2575417551
31887.8759340147
31888.5329750843
31889.228689127
31889.9631043049
31890.7362527941
31891.5481708016
31892.3988985851
31893.2884804757
31894.2169648979
31895.184404397
31896.1908556684
31897.2363795821
31898.3210412181
31899.4449099015
31900.6080592374
31901.8105671496
31903.0525159223
31904.3339922487
31905.6550872758
31907.0158966549
31908.4165205959
31909.8570639285
31911.3376361635
31912.8583515533
31914.419329165
31916.020692956
31917.6625718503
31919.3450998218
31921.0684159846
31922.8326646838
31924.637995597
31926.4845638417
31928.3725300828
31930.3020606526
31932.2733276753
31934.2865091984
31936.3417893359
31938.4393584129
31940.5794131228
31942.7621566933
31944.9877990601
31947.2565570509
31949.5686545806
31951.9243228566
31954.3238005949
31956.7673342494
31959.2551782545
31961.7875952786
31964.3648564906
31966.9872418455
31969.655040382
31972.3685505372
31975.1280804777
31977.9339484483
31980.7864831407
31983.6860240823
31986.6329220422
31989.6275394631
31992.6702509152
31995.7614435713
31998.9015177139
32002.0908872619
32005.3299803291
32008.6192398135
32011.9591240168
32015.3501072958
32018.7926807512
32022.2873529545
32025.8346507096
32029.4351198593
32033.0893261371
32036.7978560609
32040.5613178798
32044.3803425723
32048.2555848991
32052.1877245158
32056.1774671476
32060.2255458319
32064.3327222274
32068.4997880074
32072.7275663262
32077.0169133731
32081.3687200227
32085.7839135764
32090.263459616
32094.808363968
32099.4196747875
32104.0984847727
32108.8459335234
32113.663210046
32118.5515554202
32123.5122656477
32128.5466946849
32133.6562576809
32138.8424344386
32144.1067731194
32149.4508942037
32154.8764947307
32160.3853528431
32165.9793326253
32171.6603894386
32177.4305756155
32183.2920465629
32189.2470673525
32195.2980198472
32201.4474104227
32207.6978783294
32214.0522047779
32220.5133228153
32227.0843280806
32233.7684905342
32240.5692672773
32247.4903165838
32254.5355132809
32261.7089656544
32269.0150340559
32276.4583514233
32284.0438459678
32291.776766302
32299.6627093389
32307.7076513412
32315.9179825569
32324.3005459515
32332.8626806355
32341.6122706894
32350.5578002071
32359.708415528
32369.0739958055
32378.6652332767
32388.4937248446
32398.5720769214
32408.9140258367
32419.5345765845
32430.4501632689
32441.6788352519
32453.2404739136
32465.1570458762
32477.4528998841
32490.1551164575
32503.2939226833
32516.9031842361
32531.0210035684
32545.6905655271
32560.9613356258
32576.8898437445
32593.5503363918
32611.0445133837
32629.541395766
32649.2494526229
32670.2355755621
32692.475004838
32716.1268379247
32741.4696697451
32768.7617006744
32798.2387770581
32829.6798965709
32863.1083558043
32899.3240272317
32938.4369433278
32980.6049121404
33026.923984978
33078.4914755102
33137.3610101638
33206.5437279395
33290.1508938094
33395.7791343204
33533.6263143894
33717.5199384826
33969.5217605046
34320.4192012269
34812.4646959958
35515.9298416371
36522.4290079258
37961.2320142398
40059.100741246
43132.7478196401
47711.3771215306
54878.3252181913
64877.0275134025
77917.9350917888
97690.2725156324
123180.006048859
157071.680072839
200002.093453971
250856.38340848
306377.439861136
362683.51756467
416581.843471958
466146.513555901
510549.16451736
549770.425882546
584192.818757727
614338.622321378
640858.629751401
664323.122120163
685201.62941382
703898.564747658
720789.073313209
736170.301831862
750289.591969043
763350.358954589
775520.967714898
786941.15498329
797726.626972422
807977.353840226
817768.365051329
827160.010083282
836212.053100816
844971.706645771
853477.027186518
861758.851934036
869841.794019912
877745.118262988
885483.518423739
893067.680238094
900504.762974204
907798.801070843
914951.042825775
921960.253176991
928822.967442634
935533.72034863
942085.251803595
948468.685577353
954673.696754736
960688.659712759
966500.754547341
972096.07852847
977459.914537476
982576.899560138
987430.965805994
992005.420046788
996283.414843189
1000248.01325413
1003878.94466508
1007157.07848023
1010065.92294231
1012586.98267593
1014701.73771247
1016391.14112723
1017636.38455216
1018413.68282062
1018706.06390386
1018504.89941923
1017782.5078369
1016519.88997786
1014696.7988961
1012293.34541702
1009289.42728292
1005664.64828663
1001399.68656965
996473.722468615
990863.234448118
984546.930761826
977503.825741464
969710.95337521
961144.515488445
951779.727684191
941590.776894622
930550.682658385
918631.148866056
905802.389762715
892032.93196162
877289.405918949
861536.27153376
844735.927940815
826848.275726743
807838.830647671
787656.099729117
766244.37170993
743553.65673403
719514.741411459
694050.602177052
667090.511187201
638543.25783801
608296.043688255
576230.15833494
542202.496354019
506026.099819502
467479.065449828
426276.9334377
382021.106844201
334164.116381937
281900.294374941
224176.086983251
)
;

boundaryField
{
    electrode
    {
        type            electronTemperature;
        seec            0.05;
        Tse             1000;
        Edepend         1;
        TFN             1000;
        field_emission  0;
        field_enhancement_factor 55;
        work_function   5;
        value           uniform 31882.380515796;
    }
    ground
    {
        type            electronTemperature;
        seec            0.05;
        Tse             1000;
        Edepend         1;
        TFN             1000;
        field_emission  0;
        field_enhancement_factor 55;
        work_function   5;
        value           uniform 191395.664232557;
    }
    otherfaces
    {
        type            empty;
    }
}


// ************************************************************************* //
