/*--------------------------------*- C++ -*----------------------------------*\
| =========                 |                                                 |
| \\      /  F ield         | foam-extend: Open Source CFD                    |
|  \\    /   O peration     | Version:     4.0                                |
|   \\  /    A nd           | Web:         http://www.foam-extend.org         |
|    \\/     M anipulation  |                                                 |
\*---------------------------------------------------------------------------*/
FoamFile
{
    version     2.0;
    format      ascii;
    class       volScalarField;
    location    "6.8e-06";
    object      Arp1;
}
// * * * * * * * * * * * * * * * * * * * * * * * * * * * * * * * * * * * * * //

dimensions      [0 0 0 1 0 0 0];

internalField   nonuniform List<scalar> 
300
(
6.44088592090322e+16
6.4451457890874e+16
6.4425156722667e+16
6.44200070545865e+16
6.44102743225123e+16
6.43965039672757e+16
6.43802908895919e+16
6.43609605626504e+16
6.4338612610828e+16
6.43132603062197e+16
6.42848860559078e+16
6.42534905240045e+16
6.42190701321964e+16
6.4181621044073e+16
6.41411395649799e+16
6.4097621669896e+16
6.40510631378731e+16
6.40014595417463e+16
6.39488062406415e+16
6.38930983831817e+16
6.38343309061804e+16
6.37724985348351e+16
6.37075957825598e+16
6.36396169505497e+16
6.35685561280244e+16
6.34944071923724e+16
6.34171638086757e+16
6.33368194303582e+16
6.32533672993872e+16
6.31668004463016e+16
6.30771116907287e+16
6.29842936422806e+16
6.28883387006695e+16
6.27892390566164e+16
6.26869866930734e+16
6.25815733856801e+16
6.24729907042185e+16
6.23612300141114e+16
6.22462824773224e+16
6.21281390543415e+16
6.2006790506132e+16
6.1882227395518e+16
6.17544400897471e+16
6.16234187628672e+16
6.14891533978041e+16
6.1351633789409e+16
6.12108495475164e+16
6.10667900995264e+16
6.09194446941961e+16
6.07688024052979e+16
6.06148521348052e+16
6.04575826174922e+16
6.0296982425108e+16
6.01330399705213e+16
5.99657435126792e+16
5.97950811617601e+16
5.96210408840608e+16
5.94436105074919e+16
5.92627777276947e+16
5.90785301134192e+16
5.8890855113054e+16
5.86997400612608e+16
5.85051721852433e+16
5.83071386119302e+16
5.81056263754336e+16
5.79006224239686e+16
5.76921136278537e+16
5.7480086787717e+16
5.72645286417528e+16
5.70454258742905e+16
5.68227651258194e+16
5.65965330021331e+16
5.63667160856202e+16
5.61333009348105e+16
5.58962740676789e+16
5.56556219856973e+16
5.54113313264662e+16
5.51633890621284e+16
5.49117821478483e+16
5.46564957901628e+16
5.43975122697174e+16
5.41348179472069e+16
5.38684196045413e+16
5.35983130990612e+16
5.33244510662901e+16
5.30468221825017e+16
5.27654115204494e+16
5.24802032007273e+16
5.21911814245481e+16
5.18983305650287e+16
5.16016352156225e+16
5.13010802072834e+16
5.0996650616477e+16
5.06883317711276e+16
5.03761092566182e+16
5.00599689208477e+16
4.9739896879875e+16
4.94158795236745e+16
4.90879035213837e+16
4.87559558270126e+16
4.84200236852285e+16
4.80800946366826e+16
4.7736156523449e+16
4.73881974948738e+16
4.70362060126863e+16
4.66801708562458e+16
4.63200811281078e+16
4.59559262589356e+16
4.5587696012383e+16
4.5215380490445e+16
4.48389701379515e+16
4.44584557472445e+16
4.40738284631635e+16
4.36850797873354e+16
4.32922015826418e+16
4.28951860780515e+16
4.24940258729125e+16
4.20887139415157e+16
4.1679243638163e+16
4.12656087018032e+16
4.08478032614873e+16
4.04258218421605e+16
3.99996593707497e+16
3.95693111831917e+16
3.91347730325326e+16
3.86960410977274e+16
3.82531119941098e+16
3.78059827857995e+16
3.7354650999651e+16
3.68991146422493e+16
3.64393722199062e+16
3.59754227620869e+16
3.55072658495722e+16
3.5034901648038e+16
3.45583309476471e+16
3.40775552108478e+16
3.35925766287482e+16
3.31033981891305e+16
3.26100237582802e+16
3.21124581724783e+16
3.16107073628647e+16
3.11047784899206e+16
3.05946800905904e+16
3.0080422305825e+16
2.95620171225985e+16
2.90394786662733e+16
2.85128232194747e+16
2.79820704243659e+16
2.74472436746525e+16
2.69083683204636e+16
2.6365473651019e+16
2.5818606593051e+16
2.52678067604076e+16
2.47130765027536e+16
2.41545891259127e+16
2.35923649387192e+16
2.30265406936533e+16
2.24570277453112e+16
2.18842635811537e+16
2.13078969000545e+16
2.07288512404654e+16
2.01462186768239e+16
1.95617654674947e+16
1.89737076518671e+16
1.8383716699473e+16
1.78028317538685e+16
1.72239617076933e+16
1.66380686408495e+16
1.60521195756707e+16
1.54664740622152e+16
1.48897387512936e+16
1.43184475989346e+16
1.3759228545715e+16
1.32101117355237e+16
1.2656156531863e+16
1.2099053579254e+16
1.15903124845142e+16
1.10896413845567e+16
1.05594916868128e+16
1.00939919425441e+16
9.65543520785872e+15
9.17754652574354e+15
8.78029234923563e+15
8.39661042392331e+15
8.00127818981235e+15
7.66650003064442e+15
7.36162738443843e+15
7.03186527023003e+15
6.77280562973332e+15
6.5408040999067e+15
6.28446700562602e+15
6.06738936012839e+15
5.89413142791153e+15
5.73144042748945e+15
5.55725856384633e+15
5.41527472369454e+15
5.29949939300319e+15
5.21583386092121e+15
5.13534238200411e+15
5.07511424609134e+15
5.04126031450987e+15
5.04728818816132e+15
5.06337744945984e+15
5.09852595432691e+15
5.09304603556792e+15
5.07113007960268e+15
5.02754567879934e+15
4.97886981238393e+15
4.92909683257678e+15
4.8811524381841e+15
4.83660047464224e+15
4.79602700335584e+15
4.76019413056482e+15
4.70799005013401e+15
4.65732962357353e+15
4.61005015208554e+15
4.56799419682241e+15
4.52867803246196e+15
4.49408507609191e+15
4.46166495743555e+15
4.43355189627153e+15
4.40710376784816e+15
4.38457122844464e+15
4.36326573817293e+15
4.34558388213318e+15
4.31325448732377e+15
4.28430731793853e+15
4.25541627882074e+15
4.23026365368904e+15
4.20479755873451e+15
4.1828905472643e+15
4.1603700557116e+15
4.14128756925473e+15
4.12133303057417e+15
4.10470509074472e+15
4.08697894960264e+15
4.07250204266917e+15
4.05675513239617e+15
4.04420852270791e+15
4.03024608339954e+15
4.01944094375323e+15
4.00505621577171e+15
3.9853370397647e+15
3.96417927234621e+15
3.94599616158148e+15
3.92626293347731e+15
3.90948099325415e+15
3.8910435767509e+15
3.8755334742006e+15
3.85827155174859e+15
3.84392260718019e+15
3.82773042958425e+15
3.814452521493e+15
3.79925373478227e+15
3.7869794433097e+15
3.7727202092437e+15
3.76139314312095e+15
3.74801783585174e+15
3.73758628062907e+15
3.72504166851103e+15
3.71545031562992e+15
3.70368364951655e+15
3.69488488127657e+15
3.68385229626485e+15
3.67581186555446e+15
3.66203796384072e+15
3.64803988688465e+15
3.63169394110467e+15
3.61845907765042e+15
3.60281856089087e+15
3.59031068917931e+15
3.57534266462855e+15
3.56352653682242e+15
3.54919855730938e+15
3.53804093870408e+15
3.52431717976444e+15
3.51377876661255e+15
3.50062309462592e+15
3.49066633513413e+15
3.47804068212944e+15
3.46862950533338e+15
3.45649760314098e+15
3.44760076703418e+15
3.43593702971027e+15
3.42752092820196e+15
3.41629413141385e+15
3.40833740587011e+15
3.39753083619184e+15
3.39001669174556e+15
3.37962032419703e+15
3.37253262478534e+15
3.36251085887926e+15
3.35582051651985e+15
3.34616038497252e+15
3.33984217872892e+15
3.33049935523699e+15
3.32452637585293e+15
3.3154415246499e+15
3.30973198196723e+15
3.29346439973532e+15
)
;

boundaryField
{
    electrode
    {
        type            driftDiffusionPositiveIonDensity;
        seec            0;
        fieldName       Arp1;
        value           uniform 6.42270094956548e+16;
    }
    ground
    {
        type            driftDiffusionPositiveIonDensity;
        seec            0;
        fieldName       Arp1;
        value           uniform 3.29346439973532e+15;
    }
    otherfaces
    {
        type            empty;
    }
}


// ************************************************************************* //
