/*--------------------------------*- C++ -*----------------------------------*\
| =========                 |                                                 |
| \\      /  F ield         | foam-extend: Open Source CFD                    |
|  \\    /   O peration     | Version:     4.0                                |
|   \\  /    A nd           | Web:         http://www.foam-extend.org         |
|    \\/     M anipulation  |                                                 |
\*---------------------------------------------------------------------------*/
FoamFile
{
    version     2.0;
    format      ascii;
    class       volVectorField;
    location    "6.8e-06";
    object      E;
}
// * * * * * * * * * * * * * * * * * * * * * * * * * * * * * * * * * * * * * //

dimensions      [0 0 0 1 0 0 0];

internalField   nonuniform List<vector> 
300
(
(5.41007383475512 -0 -0)
(10.8130447012966 -0 -0)
(19.0839026623091 -0 -0)
(26.7298942938091 -0 -0)
(34.3298593261092 -0 -0)
(41.996961266944 -0 -0)
(49.6573597075228 -0 -0)
(57.3326569927579 -0 -0)
(65.023645214047 -0 -0)
(72.7306929182443 -0 -0)
(80.4560230771563 -0 -0)
(88.2012328048973 -0 -0)
(95.9680071202516 -0 -0)
(103.75806845375 -0 -0)
(111.573137720479 -0 -0)
(119.414953912712 -0 -0)
(127.285271689368 -0 -0)
(135.185862092104 -0 -0)
(143.118513923347 -0 -0)
(151.085034670592 -0 -0)
(159.087251488945 -0 -0)
(167.12701227939 -0 -0)
(175.206186758811 -0 -0)
(183.326667430041 -0 -0)
(191.490370768379 -0 -0)
(199.699238170865 -0 -0)
(207.955237167825 -0 -0)
(216.260362476131 -0 -0)
(224.616637127523 -0 -0)
(233.026113634352 -0 -0)
(241.490875126119 -0 -0)
(250.013036610879 -0 -0)
(258.594746079002 -0 -0)
(267.238185797131 -0 -0)
(275.945573562031 -0 -0)
(284.719163966303 -0 -0)
(293.561249734038 -0 -0)
(302.474163070492 -0 -0)
(311.460277011043 -0 -0)
(320.522006873357 -0 -0)
(329.661811723714 -0 -0)
(338.882195825875 -0 -0)
(348.185710234739 -0 -0)
(357.574954346004 -0 -0)
(367.052577611472 -0 -0)
(376.621281136842 -0 -0)
(386.283819526967 -0 -0)
(396.043002655371 -0 -0)
(405.90169759079 -0 -0)
(415.862830488362 -0 -0)
(425.92938870466 -0 -0)
(436.104422849068 -0 -0)
(446.391049020633 -0 -0)
(456.792451068768 -0 -0)
(467.311883006795 -0 -0)
(477.952671490329 -0 -0)
(488.718218415221 -0 -0)
(499.612003672428 -0 -0)
(510.637587909545 -0 -0)
(521.798615590925 -0 -0)
(533.098818093821 -0 -0)
(544.542016927997 -0 -0)
(556.132127208015 -0 -0)
(567.873161257171 -0 -0)
(579.769232297738 -0 -0)
(591.82455854351 -0 -0)
(604.04346726585 -0 -0)
(616.430399237464 -0 -0)
(628.989913266434 -0 -0)
(641.726691086368 -0 -0)
(654.64554257059 -0 -0)
(667.751411410973 -0 -0)
(681.049381132181 -0 -0)
(694.544679743918 -0 -0)
(708.242682130672 -0 -0)
(722.14891665291 -0 -0)
(736.269092839334 -0 -0)
(750.609146600648 -0 -0)
(765.175210971988 -0 -0)
(779.973357434133 -0 -0)
(795.009315109151 -0 -0)
(810.289359684606 -0 -0)
(825.823035867205 -0 -0)
(841.623282936492 -0 -0)
(857.701271106487 -0 -0)
(874.065082212369 -0 -0)
(890.722526823805 -0 -0)
(907.681728641673 -0 -0)
(924.951116998232 -0 -0)
(942.539451728822 -0 -0)
(960.455842603889 -0 -0)
(978.709767275409 -0 -0)
(997.311090195171 -0 -0)
(1016.2700825712 -0 -0)
(1035.59744358668 -0 -0)
(1055.30432312772 -0 -0)
(1075.4023459404 -0 -0)
(1095.90363749195 -0 -0)
(1116.82085160308 -0 -0)
(1138.16720000864 -0 -0)
(1159.95648393962 -0 -0)
(1182.20312801272 -0 -0)
(1204.92221650653 -0 -0)
(1228.12953229193 -0 -0)
(1251.8415985195 -0 -0)
(1276.07572350125 -0 -0)
(1300.85004885043 -0 -0)
(1326.18360122751 -0 -0)
(1352.09634812574 -0 -0)
(1378.60925781802 -0 -0)
(1405.74436404291 -0 -0)
(1433.52483577847 -0 -0)
(1461.9750525646 -0 -0)
(1491.12068586769 -0 -0)
(1520.98878712247 -0 -0)
(1551.60788305988 -0 -0)
(1583.00807898293 -0 -0)
(1615.22117089766 -0 -0)
(1648.28076715773 -0 -0)
(1682.22242087085 -0 -0)
(1717.08377396265 -0 -0)
(1752.9047141803 -0 -0)
(1789.72754641418 -0 -0)
(1827.59717997244 -0 -0)
(1866.56133325071 -0 -0)
(1906.67075813271 -0 -0)
(1947.97948612507 -0 -0)
(1990.54509863006 -0 -0)
(2034.42902444888 -0 -0)
(2079.69686746463 -0 -0)
(2126.41876831633 -0 -0)
(2174.66980417543 -0 -0)
(2224.530431415 -0 -0)
(2276.08697648494 -0 -0)
(2329.43218138074 -0 -0)
(2384.66581079251 -0 -0)
(2441.89532916195 -0 -0)
(2501.23665723495 -0 -0)
(2562.81501916117 -0 -0)
(2626.76589246144 -0 -0)
(2693.23607667732 -0 -0)
(2762.3848977715 -0 -0)
(2834.38556576502 -0 -0)
(2909.42671365734 -0 -0)
(2987.71414848381 -0 -0)
(3069.47283612379 -0 -0)
(3154.94913664564 -0 -0)
(3244.41343660972 -0 -0)
(3338.16319557306 -0 -0)
(3436.52608596927 -0 -0)
(3539.86382457716 -0 -0)
(3648.57821191423 -0 -0)
(3763.11485734173 -0 -0)
(3883.96448641649 -0 -0)
(4011.68604855845 -0 -0)
(4146.91669181386 -0 -0)
(4290.36808852099 -0 -0)
(4442.82220039197 -0 -0)
(4605.17271048724 -0 -0)
(4778.41440023521 -0 -0)
(4963.7053435515 -0 -0)
(5162.3282650631 -0 -0)
(5375.81604761527 -0 -0)
(5605.87215900375 -0 -0)
(5854.79232377348 -0 -0)
(6127.46374953673 -0 -0)
(6429.65372370389 -0 -0)
(6764.5934058663 -0 -0)
(7135.10970057829 -0 -0)
(7545.90478950899 -0 -0)
(8004.18316491752 -0 -0)
(8518.92350033597 -0 -0)
(9100.41178645526 -0 -0)
(9759.7169540105 -0 -0)
(10504.3259343181 -0 -0)
(11339.8142372688 -0 -0)
(12282.5516396029 -0 -0)
(13350.0283967455 -0 -0)
(14543.569139551 -0 -0)
(15874.7887794977 -0 -0)
(17364.6830066562 -0 -0)
(19010.360117256 -0 -0)
(20817.1218791133 -0 -0)
(22798.3691796297 -0 -0)
(24943.0026346774 -0 -0)
(27246.1832194565 -0 -0)
(29709.3247851224 -0 -0)
(32308.8654878305 -0 -0)
(35028.5299871727 -0 -0)
(37863.6568351995 -0 -0)
(40782.9626039924 -0 -0)
(43758.3047914205 -0 -0)
(46781.4754527055 -0 -0)
(49839.7762120759 -0 -0)
(52906.8901287994 -0 -0)
(55964.4778097441 -0 -0)
(59011.4747004949 -0 -0)
(62046.867740926 -0 -0)
(65074.2944924009 -0 -0)
(68089.4166868149 -0 -0)
(71089.3719206397 -0 -0)
(74098.0591025735 -0 -0)
(77128.1542370533 -0 -0)
(80179.6270446303 -0 -0)
(83244.5410946917 -0 -0)
(86304.5593916568 -0 -0)
(89346.9626535638 -0 -0)
(92362.8210302349 -0 -0)
(95349.6169338371 -0 -0)
(98307.2357146627 -0 -0)
(101237.100482618 -0 -0)
(104141.369594902 -0 -0)
(107022.644862856 -0 -0)
(109877.397304346 -0 -0)
(112701.143261969 -0 -0)
(115495.362653896 -0 -0)
(118262.647621649 -0 -0)
(121005.396132997 -0 -0)
(123725.853672817 -0 -0)
(126426.099542091 -0 -0)
(129108.089338919 -0 -0)
(131773.622874976 -0 -0)
(134424.384394653 -0 -0)
(137061.926554275 -0 -0)
(139687.712598674 -0 -0)
(142298.419050278 -0 -0)
(144890.649527637 -0 -0)
(147465.441960712 -0 -0)
(150023.941733407 -0 -0)
(152567.182712166 -0 -0)
(155096.144606547 -0 -0)
(157611.716574479 -0 -0)
(160114.751175875 -0 -0)
(162606.022920172 -0 -0)
(165086.272633778 -0 -0)
(167556.172862527 -0 -0)
(170016.372727167 -0 -0)
(172467.469482029 -0 -0)
(174910.045481312 -0 -0)
(177344.639110388 -0 -0)
(179771.775785767 -0 -0)
(182191.328115651 -0 -0)
(184600.607812082 -0 -0)
(186997.572264988 -0 -0)
(189382.68462076 -0 -0)
(191756.374389231 -0 -0)
(194119.063994373 -0 -0)
(196471.144060034 -0 -0)
(198812.997952354 -0 -0)
(201144.979959455 -0 -0)
(203467.440027138 -0 -0)
(205780.700515533 -0 -0)
(208085.084155789 -0 -0)
(210380.890262234 -0 -0)
(212668.421165542 -0 -0)
(214947.960111446 -0 -0)
(217219.792229235 -0 -0)
(219484.183816488 -0 -0)
(221741.404882348 -0 -0)
(223991.705467396 -0 -0)
(226235.338741016 -0 -0)
(228472.539028227 -0 -0)
(230703.545087749 -0 -0)
(232928.578034982 -0 -0)
(235147.866298674 -0 -0)
(237360.582866483 -0 -0)
(239564.930762791 -0 -0)
(241760.134051263 -0 -0)
(243946.422674898 -0 -0)
(246124.009125253 -0 -0)
(248293.112425124 -0 -0)
(250453.935223258 -0 -0)
(252606.685902613 -0 -0)
(254751.557284222 -0 -0)
(256888.7478145 -0 -0)
(259018.439543112 -0 -0)
(261140.819043384 -0 -0)
(263256.057480565 -0 -0)
(265364.330115741 -0 -0)
(267465.796643516 -0 -0)
(269560.621451573 -0 -0)
(271648.953326969 -0 -0)
(273730.947191051 -0 -0)
(275806.744084694 -0 -0)
(277876.488939633 -0 -0)
(279940.313337702 -0 -0)
(281998.355699057 -0 -0)
(284050.742730836 -0 -0)
(286097.607694382 -0 -0)
(288139.074143828 -0 -0)
(290175.27067406 -0 -0)
(292206.310027031 -0 -0)
(294232.311888955 -0 -0)
(296253.385257581 -0 -0)
(298269.642054833 -0 -0)
(300281.177666697 -0 -0)
(302288.095418914 -0 -0)
(304290.472441052 -0 -0)
(306288.39737486 -0 -0)
(308279.691956632 -0 -0)
)
;

boundaryField
{
    electrode
    {
        type            calculated;
        value           uniform (4.39177373891653 -0 -0);
    }
    ground
    {
        type            calculated;
        value           uniform (309272.880347241 -0 -0);
    }
    otherfaces
    {
        type            empty;
    }
}


// ************************************************************************* //
