/*--------------------------------*- C++ -*----------------------------------*\
| =========                 |                                                 |
| \\      /  F ield         | foam-extend: Open Source CFD                    |
|  \\    /   O peration     | Version:     4.0                                |
|   \\  /    A nd           | Web:         http://www.foam-extend.org         |
|    \\/     M anipulation  |                                                 |
\*---------------------------------------------------------------------------*/
FoamFile
{
    version     2.0;
    format      ascii;
    class       volScalarField;
    location    "6.8e-06";
    object      electron;
}
// * * * * * * * * * * * * * * * * * * * * * * * * * * * * * * * * * * * * * //

dimensions      [0 0 0 1 0 0 0];

internalField   nonuniform List<scalar> 
300
(
6.4420829379419e+16
6.44191891832596e+16
6.44148939606093e+16
6.44075563318281e+16
6.43972363022802e+16
6.43839100861761e+16
6.43675722166404e+16
6.43482219808712e+16
6.43258561972571e+16
6.43004721204255e+16
6.427206679969e+16
6.42406370309487e+16
6.42061794172614e+16
6.41686903485082e+16
6.41281660027372e+16
6.40846023467209e+16
6.40379951351095e+16
6.39883399101905e+16
6.39356320015762e+16
6.38798665259016e+16
6.38210383865724e+16
6.37591422735474e+16
6.36941726631541e+16
6.36261238179624e+16
6.35549897867071e+16
6.34807644042737e+16
6.34034412917547e+16
6.33230138565692e+16
6.32394752926735e+16
6.31528185808542e+16
6.30630364891171e+16
6.29701215731706e+16
6.28740661770198e+16
6.27748624336839e+16
6.26725022660247e+16
6.25669773877096e+16
6.24582793043089e+16
6.23463993145331e+16
6.22313285116243e+16
6.21130577849034e+16
6.19915778214742e+16
6.18668791081035e+16
6.17389519332758e+16
6.160778638943e+16
6.14733723753794e+16
6.1335699598929e+16
6.11947575796936e+16
6.10505356521146e+16
6.09030229686865e+16
6.07522085034008e+16
6.05980810554048e+16
6.04406292528788e+16
6.02798415571415e+16
6.01157062669824e+16
5.99482115232244e+16
5.97773453135174e+16
5.96030954773682e+16
5.94254497114011e+16
5.92443955748605e+16
5.9059920495349e+16
5.88720117747914e+16
5.86806565956431e+16
5.84858420273309e+16
5.82875550329153e+16
5.80857824759912e+16
5.78805111278062e+16
5.76717276745941e+16
5.74594187251295e+16
5.72435708184934e+16
5.70241704320446e+16
5.68012039895637e+16
5.65746578695362e+16
5.63445184135557e+16
5.61107719350632e+16
5.58734047288689e+16
5.56324030810534e+16
5.53877532761374e+16
5.51394415979802e+16
5.4887454333777e+16
5.46317778164774e+16
5.4372398520812e+16
5.41093030539431e+16
5.38424776718974e+16
5.35719074468153e+16
5.32975761372734e+16
5.30194669573959e+16
5.27375631487374e+16
5.24518481067763e+16
5.2162305416354e+16
5.18689188641056e+16
5.15716724440818e+16
5.12705503616161e+16
5.09655370367099e+16
5.06566171072413e+16
5.03437754320788e+16
5.00269970940874e+16
4.97062674030011e+16
4.93815718981402e+16
4.90528963509315e+16
4.87202267671964e+16
4.83835493891728e+16
4.80428506972309e+16
4.76981174112339e+16
4.73493364915014e+16
4.69964951393359e+16
4.66395807970567e+16
4.6278581147489e+16
4.59134841128664e+16
4.55442778530804e+16
4.5170950763224e+16
4.47934914703749e+16
4.4411888829545e+16
4.40261319187349e+16
4.36362100330238e+16
4.32421126776224e+16
4.28438295598063e+16
4.24413505796499e+16
4.20346658194683e+16
4.16237655318763e+16
4.12086401263655e+16
4.07892801542817e+16
4.03656762920931e+16
3.99378193228234e+16
3.95057001155036e+16
3.90693096025058e+16
3.86286387546e+16
3.81836785535425e+16
3.77344199620218e+16
3.72808538907493e+16
3.68229711624663e+16
3.63607624726243e+16
3.58942183464656e+16
3.54233290922033e+16
3.49480847499821e+16
3.44684750362657e+16
3.39844892832596e+16
3.34961163729451e+16
3.3003344665268e+16
3.25061619199646e+16
3.20045552115072e+16
3.14985108365702e+16
3.09880142133106e+16
3.04730497719426e+16
2.99536008359159e+16
2.94296494925388e+16
2.89011764522822e+16
2.83681608982225e+16
2.78305803223615e+16
2.72884103413656e+16
2.67416245088235e+16
2.61901941369599e+16
2.56340880278676e+16
2.50732721635643e+16
2.45077097495127e+16
2.39373605475841e+16
2.33621792859183e+16
2.27821148987527e+16
2.219711156789e+16
2.1607108930876e+16
2.10120423678773e+16
2.0411842252659e+16
1.98064341656432e+16
1.91957366956062e+16
1.85796554576248e+16
1.79580662592256e+16
1.73307086549096e+16
1.66970977741167e+16
1.60566709248333e+16
1.54089682656156e+16
1.47536288588884e+16
1.40902987455195e+16
1.34185788850087e+16
1.27380593328444e+16
1.20484190063811e+16
1.1349669849059e+16
1.06424440201647e+16
9.92788225801092e+15
9.2074958856374e+15
8.48368383621606e+15
7.75985318833658e+15
7.04007517238631e+15
6.32942452554218e+15
5.63402384094363e+15
4.96048707258239e+15
4.31581428798789e+15
3.707108886095e+15
3.14089593434779e+15
2.62278760366916e+15
2.15710190177355e+15
1.74636595308518e+15
1.39123104088793e+15
1.09053383849097e+15
841338584362662
639316524996099
478828999907065
353944762292554
258771079620358
187466889755750
134688433889585
94479508214942.4
64627337829495.2
43506727906739
28318431833081.4
17628616261305.8
10631997266868.2
6423923128376.44
4058629984583.92
2767608125021.44
2059299899674.53
1661127053818.9
1431085684824.19
1295837062403.91
1215860473417.13
1169163301495.63
1143012924126.02
1129621230978.63
1123900920906.62
1122458862658.69
1123178069607.87
1124754035318.64
1126146174114.35
1126663007498.95
1125925336864.64
1123632676657.29
1119631994954.49
1113858594558.19
1106314322449.89
1097047739474.95
1086140220820.32
1073696302298.44
1059836298013.1
1044690567122.63
1028394995077.92
1011087424223
992904838680.246
973981164778.738
954445532841.467
934421045246.813
914023171081.565
893360119408.042
872520126314.628
851584457612.688
830640482088.528
809769193912.9
789044076150.94
768530123445.764
748284159885.835
728355224279.268
708785064133.021
689608653592.668
670854725328.549
652546309002.795
634701250583.519
617332823229.833
600450114170.381
584060364574.604
568164754587.165
552758129963.466
537837983856.132
523401171888.604
509440585327.657
495947713905.53
482912724841.558
470324848061.575
458172595469.395
446444068676.282
435127304114.245
424210334027.489
413681092489.07
403526975201.805
393735153717.33
384283779564.446
375148950351.284
366316961637.534
357778050064.119
349523595883.82
341545678914.568
333836965607.909
326390746201.115
319201006575.046
312262458892.223
305570677427.341
299121010013.18
292908977527.995
286905421090.684
281080763998.004
275439023755.787
269994356807.033
264762990726.232
259755601906.252
254938852471.843
250301528454.154
245899709292.344
241752297320.61
237881676299.985
234380520424.756
231384017673.6
229169697487.969
228227642853.146
229390403567.998
)
;

boundaryField
{
    electrode
    {
        type            driftDiffusionElectronDensity;
        seec            0.05;
        Edepend         1;
        field_emission  0;
        field_enhancement_factor 55;
        work_function   5;
        value           uniform 6.4420829379419e+16;
    }
    ground
    {
        type            driftDiffusionElectronDensity;
        seec            0.05;
        Edepend         1;
        field_emission  0;
        field_enhancement_factor 55;
        work_function   5;
        value           uniform 231622757228.53;
    }
    otherfaces
    {
        type            empty;
    }
}


// ************************************************************************* //
