/*--------------------------------*- C++ -*----------------------------------*\
| =========                 |                                                 |
| \\      /  F ield         | foam-extend: Open Source CFD                    |
|  \\    /   O peration     | Version:     4.0                                |
|   \\  /    A nd           | Web:         http://www.foam-extend.org         |
|    \\/     M anipulation  |                                                 |
\*---------------------------------------------------------------------------*/
FoamFile
{
    version     2.0;
    format      ascii;
    class       volScalarField;
    location    "6.8e-06";
    object      PhiMean;
}
// * * * * * * * * * * * * * * * * * * * * * * * * * * * * * * * * * * * * * //

dimensions      [0 0 0 1 0 0 0];

internalField   nonuniform List<scalar> 
300
(
699.989159236409
699.988043646894
699.986656297175
699.985021390504
699.983148174238
699.981030060025
699.978666656443
699.976056927707
699.973199833512
699.970094587032
699.966740480883
699.963136918608
699.959283386786
699.955179446108
699.950824722669
699.946218898787
699.941361705594
699.93625291798
699.9308923483
699.9252798404
699.919415265376
699.913298517018
699.906929507752
699.900308164323
699.893434423137
699.88630823467
699.878929554072
699.871298337213
699.86341453944
699.855278108315
699.846888977981
699.838247078665
699.829352329541
699.820204625702
699.810803834785
699.801149793136
699.791242301236
699.781081121339
699.770665972832
699.759996526942
699.749072404016
699.737893170815
699.726458334106
699.714767337089
699.702819555486
699.690614293969
699.678150782218
699.665428172061
699.652445534324
699.639201858675
699.625696052177
699.611926946682
699.597893289887
699.583593745186
699.569026876555
699.55419114191
699.539084881971
699.523706314915
699.508053531399
699.492124488761
699.475917006318
699.459428760053
699.442657276565
699.425599926858
699.408253937727
699.390616385027
699.372684170875
699.354454018192
699.335922465121
699.317085858601
699.297940347754
699.278481876322
699.258706185732
699.238608811368
699.218185063225
699.197430025865
699.17633856212
699.154905299749
699.133124621467
699.110990640151
699.088497215263
699.065637918659
699.042406022135
699.018794490524
698.994795969318
698.970402788446
698.94560694623
698.920400086777
698.894773486255
698.868718047418
698.842224281483
698.81528229212
698.787881791298
698.760012050636
698.731661881901
698.702819621173
698.673473108989
698.643609672536
698.613216102003
698.582278632971
698.550782925434
698.518714035828
698.486056387662
698.452793768527
698.41890928154
698.384385317688
698.349203532062
698.313344798774
698.276789190273
698.239515930263
698.201503348199
698.162728839243
698.123168816569
698.082798670585
698.041592719224
697.999524144384
697.956564952495
697.912685918421
697.867856501054
697.822044766313
697.775217309363
697.727339190759
697.678373835176
697.628282959851
697.577026457403
697.524562265752
697.470846245057
697.415832061436
697.359471026188
697.30171194277
697.242500937618
697.181781279029
697.119493172126
697.055573532331
696.989955748246
696.922569452648
696.853340202765
696.782189147949
696.70903265517
696.633781930042
696.556342563011
696.476614034742
696.39448917049
696.309853524007
696.222584711868
696.132551673052
696.039613776446
695.94361984514
695.844407033874
695.741799564026
695.635607346078
695.525624318476
695.411626570005
695.293370226966
695.17058893298
695.042990935541
694.910255871505
694.772030683024
694.6279254023
694.477506908511
694.320293874443
694.155744050915
693.983230282716
693.802023288378
693.611281730118
693.410020407988
693.197093582922
692.971184487781
692.730762453569
692.474022301864
692.198830151273
691.90269232069
691.582752773013
691.23569743546
690.857763828624
690.444820971846
689.992174038353
689.494618187177
688.946743008771
688.34271877837
687.67642503997
686.941857772698
686.133053934734
685.244148446131
684.270011682269
683.205958359909
682.047894785121
680.792708572558
679.438083306463
677.982296117951
676.424409568264
674.764125661693
673.001660380973
671.1376054076
669.172748733113
667.107835053989
664.943485607762
662.680094401494
660.318033503122
657.857618346842
655.299143090685
652.642675185226
649.888272199971
647.036212957729
644.087062543106
641.041590837727
637.900696135667
634.665319194195
631.336389676021
627.914774132266
624.401287584293
620.79666093018
617.101645422062
613.317087897924
609.443900477768
605.482911300926
601.434900990125
597.300570815111
593.08058554094
588.77553877573
584.385997248741
579.912463458924
575.355421523852
570.71529769474
565.99250821561
561.187502257915
556.300887126606
551.333212213572
546.28502571235
541.156820809379
535.949094936511
530.662292846764
525.296869102784
519.853229453691
514.331793981588
508.732933849574
503.057037917482
497.304446613314
491.47552135463
485.570575462759
479.589946455573
473.533924327923
467.402834601014
461.197072716219
454.917098687176
448.563318607867
442.13616900317
435.636031945828
429.063322531195
422.418400623179
415.70166166682
408.913444820665
402.054127421496
395.124029172911
388.123510631225
381.052873137061
373.912461581773
366.702559924679
359.423498339026
352.075544298979
344.659014062261
337.174159429654
329.621283497743
322.000622980504
314.312468510368
306.557045358692
298.734647140259
290.845531197484
282.890051295402
274.868509877843
266.781279466379
258.628648747841
250.410978936013
242.128544578522
233.781696273704
225.370694969165
216.89588128878
208.357503115973
199.755891684344
191.091282325714
182.363997425175
173.57426019536
164.722384703425
155.808582453026
146.833159807919
137.796317066966
128.698353445436
119.53945838113
110.319924397414
101.039930388015
91.6997625781985
82.2995898322211
72.8396927951047
63.3202306854847
53.7414788980412
44.1035876661287
34.4068280239656
24.6513417510781
14.8373966796603
4.96512713710697
)
;

boundaryField
{
    electrode
    {
        type            calculated;
        value           uniform 699.999999999703;
    }
    ground
    {
        type            calculated;
        value           uniform 0;
    }
    otherfaces
    {
        type            empty;
    }
}


// ************************************************************************* //
