/*--------------------------------*- C++ -*----------------------------------*\
| =========                 |                                                 |
| \\      /  F ield         | foam-extend: Open Source CFD                    |
|  \\    /   O peration     | Version:     4.0                                |
|   \\  /    A nd           | Web:         http://www.foam-extend.org         |
|    \\/     M anipulation  |                                                 |
\*---------------------------------------------------------------------------*/
FoamFile
{
    version     2.0;
    format      ascii;
    class       volScalarField;
    location    "6.8e-06";
    object      Te;
}
// * * * * * * * * * * * * * * * * * * * * * * * * * * * * * * * * * * * * * //

dimensions      [0 0 0 1 0 0 0];

internalField   nonuniform List<scalar> 
300
(
40189.1700893133
40189.4639044454
40189.6421250427
40189.7495747722
40189.9186581019
40190.1238841849
40190.3686099509
40190.654619337
40190.9811746472
40191.3484288442
40191.7563924889
40192.2050546119
40192.6944301154
40193.2245341442
40193.7953877181
40194.4070179033
40195.0594573322
40195.7527443973
40196.4869232598
40197.2620438715
40198.0781620144
40198.93533934
40199.8336434067
40200.7731477273
40201.753931816
40202.7760812408
40203.8396876825
40204.94484899
40206.0916692476
40207.2802588412
40208.5107345329
40209.7832195338
40211.0978435838
40212.4547430405
40213.8540609654
40215.2959472187
40216.7805585586
40218.3080587428
40219.8786186378
40221.492416335
40223.1496372651
40224.8504743246
40226.5951280057
40228.3838065336
40230.2167260049
40232.0941105366
40234.016192422
40235.9832122896
40237.9954192705
40240.0530711744
40242.1564346721
40244.3057854829
40246.5014085737
40248.7435983639
40251.0326589411
40253.3689042822
40255.7526584881
40258.184256022
40260.6640419636
40263.1923722733
40265.7696140604
40268.3961458698
40271.0723579804
40273.7986527082
40276.5754447323
40279.4031614283
40282.2822432145
40285.2131439164
40288.1963311447
40291.2322866975
40294.3215069792
40297.4645034322
40300.6618029217
40303.9139480698
40307.2214978508
40310.5850289961
40314.0051375767
40317.4824368737
40321.0175475551
40324.6110934346
40328.2637487097
40331.9763495418
40335.7498621186
40339.5850698696
40343.4825267761
40347.4428683196
40351.4668874201
40355.5554300206
40359.7093757864
40363.9296342839
40368.2171445222
40372.5728756827
40376.9978281965
40381.4930349496
40386.0595625797
40390.6985128445
40395.4110240629
40400.1982726367
40405.0614746544
40410.00188758
40415.0208120403
40420.1195937112
40425.2996253119
40430.5623487112
40435.9092571614
40441.3418976642
40446.8618734717
40452.4708467489
40458.1705413942
40463.9627460357
40469.8493172217
40475.8321828125
40481.9133455932
40488.0948871252
40494.3789718587
40500.7678515215
40507.2638698141
40513.8694674308
40520.5871874394
40527.4196810557
40534.3697138344
40541.4401723279
40548.6340712531
40555.9545612057
40563.4049369849
40570.9886465912
40578.709300945
40586.5706844187
40594.576766259
40602.7317129879
40611.0399018961
40619.505935744
40628.1346587993
40636.9311743689
40645.9008639996
40655.0494085366
40664.3828112692
40673.907423423
40683.6299722724
40693.5575922427
40703.6978594083
40714.0588296915
40724.6490814535
40735.4777632668
40746.5546471361
40757.8901869497
40769.4955868915
40781.3828811893
40793.565009844
40806.0559067369
40818.8706701452
40832.0256657824
40845.5384178081
40859.4284408888
40873.7176691823
40888.4295531547
40903.5885838197
40919.2222843632
40935.361058298
40952.0393549917
40969.2948948015
40987.1716987631
41005.7227306558
41025.0173500743
41045.21602164
41066.4924298006
41088.8191964498
41112.1206692891
41136.5046561379
41162.2010565592
41189.4435977911
41218.4118038637
41249.2419559084
41281.9087554207
41316.296223046
41352.8425406037
41392.2026178517
41434.0492075258
41478.5118842493
41526.8098810754
41578.9772973843
41635.3755536646
41698.1918300732
41769.0374658405
41850.1776106441
41946.5043010119
42063.5358081631
42208.9324318791
42395.1259227121
42637.7974302066
42957.9170444362
43386.9723045366
43967.1881656952
44765.1186057785
45861.7789601899
47365.4577618974
49480.1404535512
52468.5286027901
56876.1657212448
62598.5873192652
69902.9328855811
81588.4046445933
97930.0851197634
120241.042459383
151238.92463393
193053.421630054
246142.513730763
307987.410759159
373919.552436172
439157.50269753
500201.679662417
555330.937152478
603998.710203435
646452.665743776
683362.32330618
715395.283278447
743311.234539989
767827.778934227
789519.182231693
808848.413382752
826179.332585771
841815.047129738
856026.299409555
869034.486881663
881024.255136469
892144.618259347
902519.182637586
912250.118383013
921421.963474036
930104.771858667
938356.512553044
946224.995476723
953749.419521655
960961.629243603
967887.140638849
974545.991708115
980953.42031478
987120.580256779
993054.634012166
998761.796184411
1004240.14902144
1009484.69462353
1014494.19850176
1019263.1046808
1023783.88475989
1028046.96101548
1032041.13940831
1035753.75800361
1039170.85138247
1042277.28521416
1045056.87933212
1047492.52428439
1049566.25390679
1051259.41677037
1052552.16198726
1053425.01184866
1053847.11675525
1053819.88883228
1053309.70743585
1052296.17501009
1050756.51394999
1048668.45320957
1046009.28201744
1042756.01909735
1038885.31008939
1034373.42091048
1029196.34244893
1023329.73875271
1016748.98318661
1009428.67623874
1001346.52182598
992475.24060633
982784.778762654
972250.593643425
960844.863611915
948537.406623773
935296.425344391
921088.389720067
905877.861604393
889627.259452151
872296.478226474
853843.098329565
834220.727391152
813390.123401316
791296.581234251
767876.242374962
743070.820198804
716802.949099011
688985.114647017
659534.049324787
628339.65269255
595267.904424557
560183.280916201
522896.456415345
483174.744858927
440731.151854819
395168.034948392
345921.144315459
292172.44430715
232849.805756634
)
;

boundaryField
{
    electrode
    {
        type            electronTemperature;
        seec            0.05;
        Tse             1000;
        Edepend         1;
        TFN             1000;
        field_emission  0;
        field_enhancement_factor 55;
        work_function   5;
        value           uniform 40189.1700893133;
    }
    ground
    {
        type            electronTemperature;
        seec            0.05;
        Tse             1000;
        Edepend         1;
        TFN             1000;
        field_emission  0;
        field_enhancement_factor 55;
        work_function   5;
        value           uniform 199205.791417405;
    }
    otherfaces
    {
        type            empty;
    }
}


// ************************************************************************* //
