/*--------------------------------*- C++ -*----------------------------------*\
| =========                 |                                                 |
| \\      /  F ield         | foam-extend: Open Source CFD                    |
|  \\    /   O peration     | Version:     4.0                                |
|   \\  /    A nd           | Web:         http://www.foam-extend.org         |
|    \\/     M anipulation  |                                                 |
\*---------------------------------------------------------------------------*/
FoamFile
{
    version     2.0;
    format      ascii;
    class       volScalarField;
    location    "6.8e-06";
    object      TeMean;
}
// * * * * * * * * * * * * * * * * * * * * * * * * * * * * * * * * * * * * * //

dimensions      [0 0 0 1 0 0 0];

internalField   nonuniform List<scalar> 
300
(
35549.737519458
35550.0304388301
35550.1609792794
35550.1638363788
35550.187565849
35550.2112663464
35550.2378525471
35550.2700764405
35550.3079281087
35550.3520343998
35550.4029279618
35550.4611082384
35550.5270695116
35550.601275949
35550.684178056
35550.7762113334
35550.8777949808
35550.9893364016
35551.1112307709
35551.243860866
35551.3875996873
35551.5428084893
35551.7098390324
35551.8890329149
35552.0807211955
35552.2852347559
35552.5028974423
35552.73402359
35552.9789261192
35553.2379056174
35553.5112491415
35553.7992533009
35554.1022219789
35554.4204478975
35554.7542179131
35555.1038092627
35555.4694971364
35555.8515630341
35556.2502865964
35556.6659413914
35557.098796801
35557.5491287247
35558.0172119429
35558.5033175176
35559.0077161421
35559.5306779287
35560.072472026
35560.6333657955
35561.213621832
35561.8134979273
35562.4332473276
35563.0731326089
35563.7334335577
35564.414429974
35565.1164062797
35565.8396572017
35566.5844729579
35567.3511412136
35568.139959357
35568.9512286524
35569.7852528637
35570.6423468866
35571.522814058
35572.4269558923
35573.3551053995
35574.3076132416
35575.2848303908
35576.2871101371
35577.3148117294
35578.3683051285
35579.4479635768
35580.5541555383
35581.6872692949
35582.8477095974
35584.0358777252
35585.2521740372
35586.4970244027
35587.7708875121
35589.0742190631
35590.4074777878
35591.7711580195
35593.1657701312
35594.591818889
35596.0498111073
35597.5402674185
35599.0637447339
35600.6208314912
35602.2121213755
35603.838215673
35605.4997419917
35607.1973339837
35608.9316426348
35610.7033821714
35612.5132730434
35614.3620462879
35616.2504763957
35618.1793546046
35620.149499492
35622.1617526074
35624.2169874171
35626.316124239
35628.4600884748
35630.6498360287
35632.8863901825
35635.1708060713
35637.5041707803
35639.8876074136
35642.3222837736
35644.8094247992
35647.3503004535
35649.9462309288
35652.598586791
35655.3087857918
35658.0783234312
35660.9087466983
35663.8016540218
35666.7587076861
35669.7816623633
35672.8723694046
35676.0327232372
35679.2646971022
35682.5703663392
35685.9518964447
35689.4115707706
35692.9518029703
35696.5751053224
35700.2840887079
35704.081512424
35707.9702894167
35711.9534590499
35716.0342153365
35720.2159404529
35724.5022114644
35728.8967615773
35733.4035251871
35738.0267284949
35742.770864569
35747.6406832494
35752.6412279916
35757.7778724607
35763.0563496405
35768.4827747127
35774.0636786515
35779.8060408025
35785.7173739491
35791.8058079852
35798.0801280482
35804.5498509371
35811.2252413166
35818.1174434822
35825.2386816094
35832.6023001715
35840.2229250528
35848.1167399002
35856.3015377527
35864.7970740056
35873.6253210647
35882.8112356596
35892.3832688442
35902.3759004721
35912.8397455923
35923.840643735
35935.4395397784
35947.6969765807
35960.6863869235
35974.4735501067
35989.1275190429
36004.7620362367
36021.5238377517
36039.5474348494
36058.9175922388
36079.7141445046
36102.0560207214
36125.9758152243
36151.5380066464
36179.016506702
36208.5453325658
36240.2929558819
36275.0259217765
36313.796286423
36358.1576560099
36411.152766496
36477.3513205866
36563.4508881643
36680.0840516286
36842.7908424516
37073.9982985666
37407.2601957989
37892.3455099032
38604.0293860189
39657.4201652461
41233.758746848
43625.4337646741
47391.852566281
53099.4308987061
61143.9377610815
72838.4389516169
88829.9226760438
110320.106492466
137692.868492546
171046.573653373
209743.682763873
252632.837743116
298745.601172272
347247.171209445
397227.880273207
447443.097791083
496289.078255827
542249.168063514
584292.594474621
621971.38432059
655320.529669176
684674.996566081
710511.101297485
733311.070965352
753527.971118334
771590.027735219
787859.925181284
802630.304056122
816141.260100688
828583.85790759
840114.792211607
850874.694363603
860979.539977246
870523.726584706
879584.584583439
888225.866504199
896499.872351956
904449.285567236
912108.746594196
919506.0603122
926663.18766673
933597.052870977
940320.139179364
946841.083315702
953165.198503663
959294.811341684
965229.619305347
970966.962735246
976502.237378345
981828.843327773
986937.980910852
991819.50305594
996462.410878832
1000854.59657512
1004982.94646762
1008833.19015045
1012390.22884274
1015638.35867329
1018561.0131906
1021141.49259003
1023362.80912836
1025207.29224536
1026656.91255119
1027693.06420453
1028296.83439268
1028444.35267978
1028125.60436471
1027321.13213806
1026008.62743148
1024168.25801589
1021780.02965838
1018823.91973338
1015279.69620887
1011126.88275667
1006345.07089583
1000913.18674996
994809.612224483
988013.019119947
980501.559630116
972252.625712404
963242.396277753
953446.906788303
942841.632991675
931400.167970099
919094.800273219
905896.346377905
891773.991415189
876695.108876645
860624.9852884
843526.697308133
825360.885665134
806089.319463759
785668.129047788
764043.320220539
741160.723723277
716958.900963883
691362.832790354
664297.536171296
635676.931392729
605393.057815772
573324.035813362
539333.643889401
503239.491619471
464820.978249729
423800.041064388
379785.179733903
332237.67575709
280370.936977705
223147.348954918
)
;

boundaryField
{
    electrode
    {
        type            calculated;
        value           uniform 35549.7375194597;
    }
    ground
    {
        type            calculated;
        value           uniform 190696.684642685;
    }
    otherfaces
    {
        type            empty;
    }
}


// ************************************************************************* //
