/*--------------------------------*- C++ -*----------------------------------*\
| =========                 |                                                 |
| \\      /  F ield         | foam-extend: Open Source CFD                    |
|  \\    /   O peration     | Version:     4.0                                |
|   \\  /    A nd           | Web:         http://www.foam-extend.org         |
|    \\/     M anipulation  |                                                 |
\*---------------------------------------------------------------------------*/
FoamFile
{
    version     2.0;
    format      ascii;
    class       volVectorField;
    location    "5e-10";
    object      E;
}
// * * * * * * * * * * * * * * * * * * * * * * * * * * * * * * * * * * * * * //

dimensions      [0 0 0 1 0 0 0];

internalField   nonuniform List<vector> 
249
(
(-0 11327.2390954756 -0)
(-0 7551.50614480754 -0)
(-0 7551.5061110667 -0)
(-0 7551.50613099273 -0)
(-0 7551.50615075344 -0)
(-0 7551.50616727403 -0)
(-0 7551.50617526226 -0)
(-0 7551.50617663779 -0)
(-0 7551.50619451151 -0)
(-0 7551.5062131603 -0)
(-0 7551.50621982129 -0)
(-0 7551.50622036263 -0)
(-0 7551.50622684724 -0)
(-0 7551.50623593168 -0)
(-0 7551.50624312822 -0)
(-0 7551.50625404893 -0)
(-0 7551.50627550035 -0)
(-0 7551.5062923434 -0)
(-0 7551.50630840924 -0)
(-0 7551.50632330484 -0)
(-0 7551.50632274353 -0)
(-0 7551.50633144657 -0)
(-0 7551.50635241546 -0)
(-0 7551.50635690754 -0)
(-0 7551.50635351382 -0)
(-0 7551.50636435113 -0)
(-0 7551.50637663723 -0)
(-0 7551.50637861027 -0)
(-0 7551.50638278836 -0)
(-0 7551.5063984775 -0)
(-0 7551.5064084715 -0)
(-0 7551.50642567905 -0)
(-0 7551.50644417694 -0)
(-0 7551.50645110983 -0)
(-0 7551.5064579817 -0)
(-0 7551.50646558487 -0)
(-0 7551.50648324772 -0)
(-0 7551.50650071936 -0)
(-0 7551.50651314265 -0)
(-0 7551.50652858522 -0)
(-0 7551.50654184506 -0)
(-0 7551.50655137563 -0)
(-0 7551.5065624766 -0)
(-0 7551.50657453192 -0)
(-0 7551.50658484543 -0)
(-0 7551.50658950742 -0)
(-0 7551.50659855077 -0)
(-0 7551.50661380344 -0)
(-0 7551.50662138999 -0)
(-0 7551.506637804 -0)
(-0 7551.50665871844 -0)
(-0 7551.50666980197 -0)
(-0 7551.50668685445 -0)
(-0 7551.50669654376 -0)
(-0 7551.50670312907 -0)
(-0 7551.50672180172 -0)
(-0 7551.50674240617 -0)
(-0 7551.50675129492 -0)
(-0 7551.50675757101 -0)
(-0 7551.50676627061 -0)
(-0 7551.50677582956 -0)
(-0 7551.5067959908 -0)
(-0 7551.50681676123 -0)
(-0 7551.50682384982 -0)
(-0 7551.50683128824 -0)
(-0 7551.50684638883 -0)
(-0 7551.5068638134 -0)
(-0 7551.50688388541 -0)
(-0 7551.50689377912 -0)
(-0 7551.50690477787 -0)
(-0 7551.50691591165 -0)
(-0 7551.50692122834 -0)
(-0 7551.50693650906 -0)
(-0 7551.50695545473 -0)
(-0 7551.50697507416 -0)
(-0 7551.50699620503 -0)
(-0 7551.50700825601 -0)
(-0 7551.50701996738 -0)
(-0 7551.50703780974 -0)
(-0 7551.50705212272 -0)
(-0 7551.50706002712 -0)
(-0 7551.5070738227 -0)
(-0 7551.50709134989 -0)
(-0 7551.5071011007 -0)
(-0 7551.5071152282 -0)
(-0 7551.50712788136 -0)
(-0 7551.50713490613 -0)
(-0 7551.50714832472 -0)
(-0 7551.5071651595 -0)
(-0 7551.50717801947 -0)
(-0 7551.50719216516 -0)
(-0 7551.50720739541 -0)
(-0 7551.50722601656 -0)
(-0 7551.50724285077 -0)
(-0 7551.50725625014 -0)
(-0 7551.50727328779 -0)
(-0 7551.50728942856 -0)
(-0 7551.50730734302 -0)
(-0 7551.50732487098 -0)
(-0 7551.50733706299 -0)
(-0 7551.50734834968 -0)
(-0 7551.5073653279 -0)
(-0 7551.50737970664 -0)
(-0 7551.50739477043 -0)
(-0 7551.50741067793 -0)
(-0 7551.50742704199 -0)
(-0 7551.50744786267 -0)
(-0 7551.50746948807 -0)
(-0 7551.50748885161 -0)
(-0 7551.50750032068 -0)
(-0 7551.50750895539 -0)
(-0 7551.50752786689 -0)
(-0 7551.50754836381 -0)
(-0 7551.50756125294 -0)
(-0 7551.5075764022 -0)
(-0 7551.50759183228 -0)
(-0 7551.50760731096 -0)
(-0 7551.50762443216 -0)
(-0 7551.50763826751 -0)
(-0 7551.5076515131 -0)
(-0 7551.50766797413 -0)
(-0 7551.50768899146 -0)
(-0 7551.50770870636 -0)
(-0 7551.50772657222 -0)
(-0 7551.50774123634 -0)
(-0 7551.50775345476 -0)
(-0 7551.50777184754 -0)
(-0 7551.507793867 -0)
(-0 7551.50781691303 -0)
(-0 7551.50783700766 -0)
(-0 7551.50785084639 -0)
(-0 7551.50787319115 -0)
(-0 7551.50789488141 -0)
(-0 7551.50790715278 -0)
(-0 7551.50792613203 -0)
(-0 7551.50794063677 -0)
(-0 7551.50796062822 -0)
(-0 7551.50798304308 -0)
(-0 7551.50799372356 -0)
(-0 7551.5080078044 -0)
(-0 7551.50802280558 -0)
(-0 7551.50803513465 -0)
(-0 7551.50805122924 -0)
(-0 7551.50806847815 -0)
(-0 7551.50808631686 -0)
(-0 7551.50810553264 -0)
(-0 7551.50812362198 -0)
(-0 7551.50814786702 -0)
(-0 7551.50817438351 -0)
(-0 7551.50819098756 -0)
(-0 7551.50820547053 -0)
(-0 7551.50822412099 -0)
(-0 7551.50823899775 -0)
(-0 7551.50825482855 -0)
(-0 7551.50827463317 -0)
(-0 7551.50829385396 -0)
(-0 7551.50831439378 -0)
(-0 7551.50833600209 -0)
(-0 7551.50835498902 -0)
(-0 7551.5083748874 -0)
(-0 7551.50839557521 -0)
(-0 7551.50841669762 -0)
(-0 7551.50843900558 -0)
(-0 7551.50845763 -0)
(-0 7551.50847707839 -0)
(-0 7551.50850108507 -0)
(-0 7551.50852563851 -0)
(-0 7551.50854625468 -0)
(-0 7551.50856457101 -0)
(-0 7551.50858408403 -0)
(-0 7551.50860386382 -0)
(-0 7551.50862446033 -0)
(-0 7551.50864588735 -0)
(-0 7551.50866614609 -0)
(-0 7551.50868831034 -0)
(-0 7551.5087112322 -0)
(-0 7551.50873414955 -0)
(-0 7551.50876049835 -0)
(-0 7551.50878540335 -0)
(-0 7551.5088048837 -0)
(-0 7551.50882244167 -0)
(-0 7551.50884379376 -0)
(-0 7551.50886533631 -0)
(-0 7551.50888607458 -0)
(-0 7551.50891028784 -0)
(-0 7551.50893457576 -0)
(-0 7551.50895688899 -0)
(-0 7551.50898012238 -0)
(-0 7551.50900352204 -0)
(-0 7551.50902743282 -0)
(-0 7551.50905331071 -0)
(-0 7551.50907728413 -0)
(-0 7551.50909798646 -0)
(-0 7551.509118756 -0)
(-0 7551.50914160517 -0)
(-0 7551.50916846249 -0)
(-0 7551.50919463104 -0)
(-0 7551.50921861631 -0)
(-0 7551.50924225616 -0)
(-0 7551.50926276393 -0)
(-0 7551.50928506184 -0)
(-0 7551.50930876356 -0)
(-0 7551.50933209156 -0)
(-0 7551.50935694087 -0)
(-0 7551.50938135472 -0)
(-0 7551.50940600528 -0)
(-0 7551.50943017879 -0)
(-0 7551.5094543151 -0)
(-0 7551.50947935791 -0)
(-0 7551.50950418281 -0)
(-0 7551.50952849528 -0)
(-0 7551.50955338599 -0)
(-0 7551.50957745228 -0)
(-0 7551.50960118721 -0)
(-0 7551.50962764237 -0)
(-0 7551.50965405605 -0)
(-0 7551.50967784392 -0)
(-0 7551.50970169788 -0)
(-0 7551.50972698765 -0)
(-0 7551.5097517189 -0)
(-0 7551.50977750977 -0)
(-0 7551.50980337659 -0)
(-0 7551.50982718117 -0)
(-0 7551.50985215485 -0)
(-0 7551.50987983738 -0)
(-0 7551.50990673757 -0)
(-0 7551.50993185959 -0)
(-0 7551.50995712132 -0)
(-0 7551.50998270067 -0)
(-0 7551.51000841929 -0)
(-0 7551.51003430733 -0)
(-0 7551.51006041045 -0)
(-0 7551.51008643292 -0)
(-0 7551.51011290287 -0)
(-0 7551.51013939229 -0)
(-0 7551.51016591435 -0)
(-0 7551.51019263987 -0)
(-0 7551.51021929937 -0)
(-0 7551.51024613145 -0)
(-0 7551.51027278411 -0)
(-0 7551.51030024309 -0)
(-0 7551.51032811399 -0)
(-0 7551.51035526843 -0)
(-0 7551.51038229793 -0)
(-0 7551.5104100872 -0)
(-0 7551.51043790468 -0)
(-0 7551.51046559149 -0)
(-0 7551.51049353542 -0)
(-0 7551.50220150305 -0)
)
;

boundaryField
{
    dielectric_2
    {
        type            calculated;
        value           uniform (-0 7551.49389547421 -0);
    }
    dielectric_1
    {
        type            calculated;
        value           nonuniform 0();
    }
    otherfaces
    {
        type            empty;
    }
    procBoundary3to2
    {
        type            processor;
        value           uniform (-0 11327.2192283604 -0);
    }
}


// ************************************************************************* //
