/*--------------------------------*- C++ -*----------------------------------*\
| =========                 |                                                 |
| \\      /  F ield         | foam-extend: Open Source CFD                    |
|  \\    /   O peration     | Version:     4.0                                |
|   \\  /    A nd           | Web:         http://www.foam-extend.org         |
|    \\/     M anipulation  |                                                 |
\*---------------------------------------------------------------------------*/
FoamFile
{
    version     2.0;
    format      ascii;
    class       volScalarField;
    location    "5.5e-06";
    object      Ar;
}
// * * * * * * * * * * * * * * * * * * * * * * * * * * * * * * * * * * * * * //

dimensions      [0 0 0 1 0 0 0];

internalField   nonuniform List<scalar> 
300
(
3.21880292456031e+22
3.21880292030013e+22
3.21880292307495e+22
3.21880292412377e+22
3.21880292594667e+22
3.21880292848729e+22
3.21880293158713e+22
3.21880293530838e+22
3.21880293963899e+22
3.21880294457561e+22
3.21880295011849e+22
3.2188029562663e+22
3.2188029630183e+22
3.21880297037397e+22
3.21880297833286e+22
3.21880298689468e+22
3.21880299605952e+22
3.21880300582713e+22
3.21880301619733e+22
3.21880302717013e+22
3.21880303874563e+22
3.21880305092397e+22
3.21880306370538e+22
3.2188030770901e+22
3.21880309108008e+22
3.21880310567443e+22
3.21880312087371e+22
3.21880313667871e+22
3.21880315308907e+22
3.21880317010539e+22
3.21880318773014e+22
3.21880320596335e+22
3.21880322480442e+22
3.21880324425407e+22
3.2188032643131e+22
3.2188032849824e+22
3.21880330626337e+22
3.21880332815682e+22
3.21880335066358e+22
3.21880337378489e+22
3.21880339752204e+22
3.21880342187621e+22
3.21880344684878e+22
3.21880347244122e+22
3.21880349865507e+22
3.21880352549195e+22
3.2188035529538e+22
3.21880358104256e+22
3.21880360976116e+22
3.21880363911196e+22
3.21880366909847e+22
3.21880369972183e+22
3.21880373098512e+22
3.21880376288923e+22
3.21880379543575e+22
3.21880382862456e+22
3.21880386245796e+22
3.21880389694047e+22
3.21880393207485e+22
3.21880396786435e+22
3.21880400431193e+22
3.21880404142086e+22
3.21880407919498e+22
3.21880411763966e+22
3.21880415675812e+22
3.21880419655149e+22
3.21880423702327e+22
3.21880427817704e+22
3.21880432001648e+22
3.2188043625453e+22
3.2188044057675e+22
3.21880444968775e+22
3.21880449431018e+22
3.2188045396381e+22
3.21880458567691e+22
3.21880463243062e+22
3.21880467990272e+22
3.21880472809779e+22
3.21880477701801e+22
3.21880482667066e+22
3.21880487705649e+22
3.21880492817954e+22
3.21880498004437e+22
3.21880503265501e+22
3.21880508601722e+22
3.21880514013448e+22
3.21880519500988e+22
3.21880525064764e+22
3.21880530705319e+22
3.21880536422997e+22
3.21880542218278e+22
3.2188054809203e+22
3.21880554044114e+22
3.21880560074924e+22
3.21880566184864e+22
3.21880572374337e+22
3.21880578643741e+22
3.2188058499347e+22
3.21880591424019e+22
3.21880597935766e+22
3.2188060452902e+22
3.2188061120413e+22
3.2188061796177e+22
3.21880624801994e+22
3.21880631725233e+22
3.21880638731908e+22
3.21880645822188e+22
3.21880652996578e+22
3.21880660255271e+22
3.218806675985e+22
3.21880675026559e+22
3.21880682539735e+22
3.21880690138358e+22
3.21880697822688e+22
3.21880705592975e+22
3.21880713449609e+22
3.2188072139298e+22
3.21880729423029e+22
3.21880737539919e+22
3.21880745743894e+22
3.21880754035363e+22
3.21880762414329e+22
3.21880770881203e+22
3.21880779435984e+22
3.2188078807865e+22
3.21880796809302e+22
3.21880805628283e+22
3.21880814535469e+22
3.21880823531006e+22
3.21880832614937e+22
3.21880841787429e+22
3.21880851048516e+22
3.21880860398235e+22
3.21880869836817e+22
3.21880879364586e+22
3.21880888981301e+22
3.21880898686856e+22
3.21880908481428e+22
3.21880918365116e+22
3.21880928337722e+22
3.21880938399297e+22
3.21880948549907e+22
3.21880958789688e+22
3.21880969118754e+22
3.21880979537512e+22
3.21880990045376e+22
3.21881000641484e+22
3.21881011326611e+22
3.21881022100912e+22
3.21881032964639e+22
3.21881043917394e+22
3.21881054959229e+22
3.21881066090293e+22
3.21881077310375e+22
3.21881088619082e+22
3.2188110001601e+22
3.21881111502275e+22
3.21881123073255e+22
3.2188113473604e+22
3.21881146475456e+22
3.2188115831232e+22
3.21881170215882e+22
3.21881182219711e+22
3.2188119429416e+22
3.21881206327524e+22
3.21881218426962e+22
3.21881230664228e+22
3.21881242972328e+22
3.21881255354222e+22
3.21881267726104e+22
3.21881280129659e+22
3.21881292505169e+22
3.21881304861396e+22
3.21881317365913e+22
3.21881329981343e+22
3.21881342170964e+22
3.21881354328035e+22
3.21881366834843e+22
3.21881378688003e+22
3.21881390165857e+22
3.21881402043519e+22
3.21881412923525e+22
3.21881423386091e+22
3.21881433793586e+22
3.21881443220434e+22
3.21881451836304e+22
3.21881460344095e+22
3.21881467682989e+22
3.21881474116619e+22
3.21881480222839e+22
3.21881485518005e+22
3.2188148988568e+22
3.21881493484423e+22
3.21881496951319e+22
3.21881499349582e+22
3.21881500879846e+22
3.21881501653043e+22
3.21881502306723e+22
3.21881502925664e+22
3.21881503360723e+22
3.21881503403115e+22
3.21881503481312e+22
3.21881503455611e+22
3.2188150384869e+22
3.21881504392459e+22
3.21881505072425e+22
3.21881505798081e+22
3.21881506473777e+22
3.21881507081339e+22
3.21881507623228e+22
3.21881508101133e+22
3.21881508524754e+22
3.21881508940007e+22
3.21881509500783e+22
3.21881510005811e+22
3.2188151047909e+22
3.21881510902125e+22
3.21881511303374e+22
3.21881511661533e+22
3.21881512005215e+22
3.21881512310319e+22
3.21881512607519e+22
3.21881512871803e+22
3.21881513132937e+22
3.21881513381563e+22
3.2188151376452e+22
3.2188151410934e+22
3.21881514459521e+22
3.21881514772949e+22
3.21881515094649e+22
3.2188151538049e+22
3.21881515677278e+22
3.21881515938581e+22
3.21881516212689e+22
3.21881516451443e+22
3.21881516704454e+22
3.2188151692199e+22
3.21881517155136e+22
3.21881517352524e+22
3.21881517566999e+22
3.21881517745331e+22
3.2188151794898e+22
3.21881518211054e+22
3.21881518490625e+22
3.21881518735262e+22
3.21881518998749e+22
3.21881519227033e+22
3.21881519475605e+22
3.21881519688586e+22
3.21881519923169e+22
3.21881520121721e+22
3.21881520343113e+22
3.21881520528132e+22
3.21881520737385e+22
3.21881520909705e+22
3.21881521107668e+22
3.21881521267841e+22
3.21881521455111e+22
3.2188152160364e+22
3.21881521780465e+22
3.21881521917503e+22
3.21881522084171e+22
3.21881522210229e+22
3.21881522367301e+22
3.21881522483114e+22
3.21881522631234e+22
3.2188152279975e+22
3.21881523002659e+22
3.21881523164918e+22
3.21881523359334e+22
3.21881523512491e+22
3.21881523698845e+22
3.21881523843293e+22
3.21881524022025e+22
3.2188152415807e+22
3.21881524329541e+22
3.21881524457586e+22
3.21881524622067e+22
3.21881524742412e+22
3.21881524900229e+22
3.21881525013319e+22
3.21881525165278e+22
3.2188152527356e+22
3.21881525422e+22
3.21881525524317e+22
3.21881525667339e+22
3.21881525763374e+22
3.21881525901039e+22
3.21881525990996e+22
3.21881526126994e+22
3.21881526215599e+22
3.2188152634781e+22
3.21881526430888e+22
3.21881526563269e+22
3.21881526646917e+22
3.21881526777926e+22
3.2188152686351e+22
3.21881527000285e+22
3.21881527092482e+22
3.21881527267186e+22
)
;

boundaryField
{
    electrode
    {
        type            zeroGradient;
    }
    ground
    {
        type            zeroGradient;
    }
    otherfaces
    {
        type            empty;
    }
}


// ************************************************************************* //
