/*--------------------------------*- C++ -*----------------------------------*\
| =========                 |                                                 |
| \\      /  F ield         | foam-extend: Open Source CFD                    |
|  \\    /   O peration     | Version:     4.0                                |
|   \\  /    A nd           | Web:         http://www.foam-extend.org         |
|    \\/     M anipulation  |                                                 |
\*---------------------------------------------------------------------------*/
FoamFile
{
    version     2.0;
    format      ascii;
    class       volScalarField;
    location    "5.5e-06";
    object      Arm;
}
// * * * * * * * * * * * * * * * * * * * * * * * * * * * * * * * * * * * * * //

dimensions      [0 0 0 1 0 0 0];

internalField   nonuniform List<scalar> 
300
(
3.57413163421346e+15
3.57600794039398e+15
3.57795635547797e+15
3.57926240557892e+15
3.5800786511315e+15
3.58045719591289e+15
3.58044224475488e+15
3.58006523855923e+15
3.57935183647866e+15
3.57832402170585e+15
3.57699756976009e+15
3.57538656663096e+15
3.57350306570118e+15
3.57135766966946e+15
3.5689598356441e+15
3.56631810768387e+15
3.56343731097952e+15
3.56032603121544e+15
3.55699260944716e+15
3.55344352554991e+15
3.54968498098143e+15
3.54572289742027e+15
3.54156296488649e+15
3.53721062663571e+15
3.53265521865498e+15
3.52791446762057e+15
3.52299208005143e+15
3.51789007467197e+15
3.51262203894538e+15
3.50719285154781e+15
3.50158876465069e+15
3.49582114801009e+15
3.48990810337579e+15
3.48385501699302e+15
3.47766697511907e+15
3.47134877819155e+15
3.4649006028489e+15
3.45832896384912e+15
3.45164092917289e+15
3.44484003511881e+15
3.43792978579096e+15
3.43091545661301e+15
3.42380092879117e+15
3.41658989389747e+15
3.40928585210969e+15
3.40189206661236e+15
3.39440948274193e+15
3.38683954635779e+15
3.37917449788158e+15
3.37141292294936e+15
3.36354222714296e+15
3.35557490521391e+15
3.34750557372369e+15
3.33935194386507e+15
3.33112215329948e+15
3.32283256782846e+15
3.31448649143789e+15
3.30608684028178e+15
3.29763618597873e+15
3.2891349479395e+15
3.28058744014312e+15
3.27199577295145e+15
3.26335659924275e+15
3.25465196441428e+15
3.24588584666227e+15
3.23708382160528e+15
3.22824798789576e+15
3.21938018527372e+15
3.21048199957551e+15
3.20155478990024e+15
3.19259770980229e+15
3.18360361066254e+15
3.17457095631344e+15
3.16550718629102e+15
3.15639876551887e+15
3.14724675080516e+15
3.13805748239859e+15
3.12882683728668e+15
3.1195747801063e+15
3.11027077375628e+15
3.1009493855424e+15
3.09161274715916e+15
3.08225777659417e+15
3.07288672994781e+15
3.06348479547605e+15
3.05405971138821e+15
3.04462318026531e+15
3.03517552226588e+15
3.02570483304856e+15
3.01621886043021e+15
3.00671158469583e+15
2.99713797776618e+15
2.98755328291921e+15
2.97795914852749e+15
2.96835560384345e+15
2.95874267495293e+15
2.94912014355662e+15
2.93948757509045e+15
2.92983403746686e+15
2.92015946876e+15
2.91047013000884e+15
2.90076729578343e+15
2.89101921832003e+15
2.88125510631361e+15
2.87146574747648e+15
2.86164180117878e+15
2.85179827986187e+15
2.84191558210093e+15
2.83200412589517e+15
2.82206936250244e+15
2.81210942307937e+15
2.80212202020733e+15
2.79209941533769e+15
2.78203939522802e+15
2.77193973646359e+15
2.76178278942354e+15
2.75154967559944e+15
2.74126518266785e+15
2.73093018668474e+15
2.7205366062296e+15
2.71005806315841e+15
2.69950750517764e+15
2.68885595833419e+15
2.67811380998917e+15
2.66729248847594e+15
2.6563897908208e+15
2.64537761843234e+15
2.63427339308654e+15
2.62306629374455e+15
2.6117542753101e+15
2.60032169910671e+15
2.5887646928338e+15
2.57707825497745e+15
2.56523630047018e+15
2.55320237728942e+15
2.54099532784482e+15
2.52861907291753e+15
2.51604857574541e+15
2.50326498199538e+15
2.49027740308991e+15
2.47706985658936e+15
2.46362568465791e+15
2.44991274502406e+15
2.4358989403782e+15
2.42155966466173e+15
2.4069147034652e+15
2.39194919555795e+15
2.37664677472044e+15
2.36097690287536e+15
2.34489070462745e+15
2.32840059146109e+15
2.31148181511577e+15
2.29407212597818e+15
2.276170321861e+15
2.25775814370739e+15
2.23878586924556e+15
2.21921025464541e+15
2.19903073699615e+15
2.17822816939534e+15
2.15675759815137e+15
2.13458341901504e+15
2.11169053274242e+15
2.08804070042927e+15
2.06364645150377e+15
2.03849478829486e+15
2.01253116304602e+15
1.98577638746637e+15
1.95827502320154e+15
1.93005604331105e+15
1.90116141956161e+15
1.871659742553e+15
1.84158435660138e+15
1.81102764833823e+15
1.78016111880782e+15
1.74917870739358e+15
1.71825026832989e+15
1.6875549891949e+15
1.65729187346466e+15
1.62769970056911e+15
1.59893405531725e+15
1.57114921450773e+15
1.54449221301638e+15
1.51904442595508e+15
1.49492061897829e+15
1.47212066126863e+15
1.45055435674113e+15
1.43026148324812e+15
1.41119144894882e+15
1.39325817670904e+15
1.37638054539066e+15
1.36046306010368e+15
1.34555212894513e+15
1.33212111881922e+15
1.32518470526951e+15
1.35084842127511e+15
1.41595060170342e+15
1.49333199673374e+15
1.5519128937239e+15
1.59222927830289e+15
1.61893245191774e+15
1.63202172357905e+15
1.62482172996571e+15
1.60010295810838e+15
1.56587959161695e+15
1.53081149476922e+15
1.50060802850925e+15
1.47700918879971e+15
1.45991183670733e+15
1.44806240894315e+15
1.43991715981659e+15
1.43406860653496e+15
1.42936374575096e+15
1.42583094808767e+15
1.42260946779879e+15
1.41932618675698e+15
1.41617801440396e+15
1.41293532678802e+15
1.40948866014337e+15
1.40573834471644e+15
1.40163012689624e+15
1.39714330127894e+15
1.39214798462022e+15
1.38655235024598e+15
1.38041426251206e+15
1.37382492268402e+15
1.36694686871788e+15
1.35982402002867e+15
1.3524795510961e+15
1.34495201505709e+15
1.33728542306027e+15
1.32950050886948e+15
1.32163290957804e+15
1.31372197891868e+15
1.30578900673062e+15
1.29785731604393e+15
1.28996531523424e+15
1.28211685487919e+15
1.27434859995376e+15
1.26666494466947e+15
1.25909004958338e+15
1.25163612624528e+15
1.24430541641546e+15
1.23712084076188e+15
1.23007492258057e+15
1.22317926882616e+15
1.21645356268071e+15
1.20988706542122e+15
1.20348945716755e+15
1.1972643387513e+15
1.1912041104931e+15
1.1853157081697e+15
1.17959460768428e+15
1.17403720560486e+15
1.16864764459682e+15
1.1634180823527e+15
1.15834654527472e+15
1.15343143286592e+15
1.14865722776435e+15
1.14403235478059e+15
1.13954889197114e+15
1.13521222768241e+15
1.13100936280875e+15
1.12694268672106e+15
1.12300350604314e+15
1.11918910992168e+15
1.11549529842562e+15
1.11191399315436e+15
1.10844160639392e+15
1.10506708927893e+15
1.10179587417874e+15
1.09861970760999e+15
1.09554363293355e+15
1.09255453270218e+15
1.08965807526887e+15
1.08684209973917e+15
1.0841050506355e+15
1.08144507811203e+15
1.07886204584219e+15
1.07635777161319e+15
1.07392571279958e+15
1.07156451413812e+15
1.06923366217553e+15
1.06679587779511e+15
1.06436036940815e+15
1.0619839622404e+15
1.05965688482923e+15
1.05738736413697e+15
1.05517711328745e+15
1.05301586939802e+15
1.05057065214509e+15
1.04807955535088e+15
1.04564989653489e+15
1.04328538459709e+15
1.04049432507363e+15
1.03768421685924e+15
1.0347386083579e+15
1.03137454233756e+15
1.02762862086865e+15
1.0233250295654e+15
1.01810289583033e+15
)
;

boundaryField
{
    electrode
    {
        type            zeroGradient;
    }
    ground
    {
        type            zeroGradient;
    }
    otherfaces
    {
        type            empty;
    }
}


// ************************************************************************* //
