/*--------------------------------*- C++ -*----------------------------------*\
| =========                 |                                                 |
| \\      /  F ield         | foam-extend: Open Source CFD                    |
|  \\    /   O peration     | Version:     4.0                                |
|   \\  /    A nd           | Web:         http://www.foam-extend.org         |
|    \\/     M anipulation  |                                                 |
\*---------------------------------------------------------------------------*/
FoamFile
{
    version     2.0;
    format      ascii;
    class       volVectorField;
    location    "5.5e-06";
    object      J_Arp1;
}
// * * * * * * * * * * * * * * * * * * * * * * * * * * * * * * * * * * * * * //

dimensions      [1 -1 -1 0 0 0 0];

internalField   nonuniform List<vector> 
300
(
(1.82773968549984e+16 -0 -0)
(6.62766374612445e+16 -0 -0)
(1.18780553788492e+17 -0 -0)
(1.65114100316009e+17 -0 -0)
(2.12145437052951e+17 -0 -0)
(2.59460463573143e+17 -0 -0)
(3.0664234906179e+17 -0 -0)
(3.53871503898145e+17 -0 -0)
(4.01119036667906e+17 -0 -0)
(4.48383606940531e+17 -0 -0)
(4.95671177925558e+17 -0 -0)
(5.42982937300849e+17 -0 -0)
(5.90321266269794e+17 -0 -0)
(6.37688588505284e+17 -0 -0)
(6.85087301286672e+17 -0 -0)
(7.32519899806072e+17 -0 -0)
(7.79988945067334e+17 -0 -0)
(8.2749707076063e+17 -0 -0)
(8.75046989202092e+17 -0 -0)
(9.22641493732712e+17 -0 -0)
(9.70283462261212e+17 -0 -0)
(1.01797586039214e+18 -0 -0)
(1.06572174411878e+18 -0 -0)
(1.1135242621172e+18 -0 -0)
(1.16138665795736e+18 -0 -0)
(1.20931227200538e+18 -0 -0)
(1.2573045425726e+18 -0 -0)
(1.30536700740677e+18 -0 -0)
(1.35350330404966e+18 -0 -0)
(1.40171717043157e+18 -0 -0)
(1.45001244493488e+18 -0 -0)
(1.49839306580926e+18 -0 -0)
(1.54686307036775e+18 -0 -0)
(1.59542659384036e+18 -0 -0)
(1.64408786796469e+18 -0 -0)
(1.69285121865585e+18 -0 -0)
(1.74172106359554e+18 -0 -0)
(1.79070190951844e+18 -0 -0)
(1.83979834881721e+18 -0 -0)
(1.88901505577748e+18 -0 -0)
(1.93835678246133e+18 -0 -0)
(1.98782835374567e+18 -0 -0)
(2.03743466302032e+18 -0 -0)
(2.08718066777224e+18 -0 -0)
(2.13707138365269e+18 -0 -0)
(2.18711187318401e+18 -0 -0)
(2.23730723075604e+18 -0 -0)
(2.28766257848779e+18 -0 -0)
(2.33818309957837e+18 -0 -0)
(2.38887411504291e+18 -0 -0)
(2.43974107297843e+18 -0 -0)
(2.4907891252259e+18 -0 -0)
(2.54202224240132e+18 -0 -0)
(2.59344312661727e+18 -0 -0)
(2.6450571890417e+18 -0 -0)
(2.69688115072948e+18 -0 -0)
(2.74894025596026e+18 -0 -0)
(2.80124980852106e+18 -0 -0)
(2.85381493498145e+18 -0 -0)
(2.90663951296172e+18 -0 -0)
(2.95972721776471e+18 -0 -0)
(3.0130816233739e+18 -0 -0)
(3.06670625614368e+18 -0 -0)
(3.12060459477113e+18 -0 -0)
(3.17478005608344e+18 -0 -0)
(3.22923597743215e+18 -0 -0)
(3.28397559879536e+18 -0 -0)
(3.33900204360278e+18 -0 -0)
(3.39431830074215e+18 -0 -0)
(3.44992720634992e+18 -0 -0)
(3.50583142585463e+18 -0 -0)
(3.5620334360728e+18 -0 -0)
(3.6185355080624e+18 -0 -0)
(3.6753396897358e+18 -0 -0)
(3.7324477889993e+18 -0 -0)
(3.78986135759745e+18 -0 -0)
(3.84758167449929e+18 -0 -0)
(3.90560973052631e+18 -0 -0)
(3.96394621273984e+18 -0 -0)
(4.02259148962192e+18 -0 -0)
(4.08154559673878e+18 -0 -0)
(4.14080822253405e+18 -0 -0)
(4.20037869501741e+18 -0 -0)
(4.26025596890034e+18 -0 -0)
(4.32043861304594e+18 -0 -0)
(4.38092479895536e+18 -0 -0)
(4.44171228943668e+18 -0 -0)
(4.50279842838595e+18 -0 -0)
(4.56418013085181e+18 -0 -0)
(4.62585387393896e+18 -0 -0)
(4.68781568858745e+18 -0 -0)
(4.75006115198978e+18 -0 -0)
(4.81258538067511e+18 -0 -0)
(4.87538302478414e+18 -0 -0)
(4.93844826283932e+18 -0 -0)
(5.00177479734825e+18 -0 -0)
(5.065355851799e+18 -0 -0)
(5.12918416782701e+18 -0 -0)
(5.19325200379537e+18 -0 -0)
(5.25755113426973e+18 -0 -0)
(5.32207285017217e+18 -0 -0)
(5.3868079602838e+18 -0 -0)
(5.4517467933167e+18 -0 -0)
(5.51687920133084e+18 -0 -0)
(5.58219456382775e+18 -0 -0)
(5.64768179303171e+18 -0 -0)
(5.71332933998663e+18 -0 -0)
(5.77912520182074e+18 -0 -0)
(5.84505692976755e+18 -0 -0)
(5.91111163836283e+18 -0 -0)
(5.97727601533628e+18 -0 -0)
(6.04353633268792e+18 -0 -0)
(6.10987845842909e+18 -0 -0)
(6.17628786934091e+18 -0 -0)
(6.24274966444746e+18 -0 -0)
(6.3092485795574e+18 -0 -0)
(6.37576900220957e+18 -0 -0)
(6.44229498762664e+18 -0 -0)
(6.50881027531388e+18 -0 -0)
(6.57529830601274e+18 -0 -0)
(6.64174223977462e+18 -0 -0)
(6.70812497399769e+18 -0 -0)
(6.77442916223131e+18 -0 -0)
(6.84063723328962e+18 -0 -0)
(6.90673141063441e+18 -0 -0)
(6.97269373212651e+18 -0 -0)
(7.038506069654e+18 -0 -0)
(7.10415014966218e+18 -0 -0)
(7.16960757178628e+18 -0 -0)
(7.23485983071136e+18 -0 -0)
(7.29988833333005e+18 -0 -0)
(7.36467442020322e+18 -0 -0)
(7.42919938228481e+18 -0 -0)
(7.49344448619898e+18 -0 -0)
(7.55739097893354e+18 -0 -0)
(7.62102010199985e+18 -0 -0)
(7.68431319026832e+18 -0 -0)
(7.74725150251662e+18 -0 -0)
(7.80981631428187e+18 -0 -0)
(7.87198935327613e+18 -0 -0)
(7.93375226333599e+18 -0 -0)
(7.99508507081588e+18 -0 -0)
(8.05597106188613e+18 -0 -0)
(8.1163973665098e+18 -0 -0)
(8.17632994249526e+18 -0 -0)
(8.23574982767829e+18 -0 -0)
(8.29470106443161e+18 -0 -0)
(8.35318079650976e+18 -0 -0)
(8.41117285300656e+18 -0 -0)
(8.46865919386588e+18 -0 -0)
(8.52562428320082e+18 -0 -0)
(8.58204701740765e+18 -0 -0)
(8.6379163356338e+18 -0 -0)
(8.6932087425092e+18 -0 -0)
(8.74790830234926e+18 -0 -0)
(8.80202021586221e+18 -0 -0)
(8.8554496340342e+18 -0 -0)
(8.90838071421417e+18 -0 -0)
(8.96038427802027e+18 -0 -0)
(9.01217304311275e+18 -0 -0)
(9.06263894525611e+18 -0 -0)
(9.11320689400874e+18 -0 -0)
(9.16218096094157e+18 -0 -0)
(9.21078365484485e+18 -0 -0)
(9.26009391348724e+18 -0 -0)
(9.30761873258779e+18 -0 -0)
(9.35427654001848e+18 -0 -0)
(9.40085637885022e+18 -0 -0)
(9.44568906467783e+18 -0 -0)
(9.49170055351756e+18 -0 -0)
(9.53497240358843e+18 -0 -0)
(9.57981864003758e+18 -0 -0)
(9.62270885517116e+18 -0 -0)
(9.66417880615612e+18 -0 -0)
(9.70097385368645e+18 -0 -0)
(9.74930801910641e+18 -0 -0)
(9.78122179820902e+18 -0 -0)
(9.81682435697458e+18 -0 -0)
(9.86103924911677e+18 -0 -0)
(9.89240447915741e+18 -0 -0)
(9.9183912333794e+18 -0 -0)
(9.96554374401257e+18 -0 -0)
(9.98325191892466e+18 -0 -0)
(1.00146104039102e+19 -0 -0)
(1.00445631203902e+19 -0 -0)
(1.00689108795542e+19 -0 -0)
(1.00864188294277e+19 -0 -0)
(1.01195748618773e+19 -0 -0)
(1.01347637734519e+19 -0 -0)
(1.01616127499152e+19 -0 -0)
(1.01820416620457e+19 -0 -0)
(1.02104913761971e+19 -0 -0)
(1.02362059645787e+19 -0 -0)
(1.02598413699925e+19 -0 -0)
(1.03060657344369e+19 -0 -0)
(1.03426771887811e+19 -0 -0)
(1.04188642612363e+19 -0 -0)
(1.04954793494339e+19 -0 -0)
(1.06443103286389e+19 -0 -0)
(1.0814147547993e+19 -0 -0)
(1.10611103250295e+19 -0 -0)
(1.13163342729667e+19 -0 -0)
(1.16107748151714e+19 -0 -0)
(1.18060189471746e+19 -0 -0)
(1.20004784142566e+19 -0 -0)
(1.21546928734817e+19 -0 -0)
(1.22602846393222e+19 -0 -0)
(1.23418609895749e+19 -0 -0)
(1.24086740622569e+19 -0 -0)
(1.24655186992339e+19 -0 -0)
(1.25170113014697e+19 -0 -0)
(1.25649830555268e+19 -0 -0)
(1.26108833961496e+19 -0 -0)
(1.26544897042588e+19 -0 -0)
(1.27006705011331e+19 -0 -0)
(1.27435800786859e+19 -0 -0)
(1.27900786083359e+19 -0 -0)
(1.28332964105363e+19 -0 -0)
(1.28804417962866e+19 -0 -0)
(1.29240533914645e+19 -0 -0)
(1.29718958530982e+19 -0 -0)
(1.30157971626462e+19 -0 -0)
(1.30640065543906e+19 -0 -0)
(1.31077914051211e+19 -0 -0)
(1.31559909519349e+19 -0 -0)
(1.31984775036527e+19 -0 -0)
(1.32471000063972e+19 -0 -0)
(1.32886717539392e+19 -0 -0)
(1.33367604518853e+19 -0 -0)
(1.33771670269656e+19 -0 -0)
(1.34243476961155e+19 -0 -0)
(1.34632306255588e+19 -0 -0)
(1.35091558620985e+19 -0 -0)
(1.35463101014008e+19 -0 -0)
(1.35908619724354e+19 -0 -0)
(1.36262184038555e+19 -0 -0)
(1.36693463413193e+19 -0 -0)
(1.37028951397693e+19 -0 -0)
(1.37445888228475e+19 -0 -0)
(1.37762658029634e+19 -0 -0)
(1.3816465281712e+19 -0 -0)
(1.38462434341558e+19 -0 -0)
(1.38846228136254e+19 -0 -0)
(1.39127544027993e+19 -0 -0)
(1.39494451408996e+19 -0 -0)
(1.39754933098922e+19 -0 -0)
(1.40105521934688e+19 -0 -0)
(1.40345518944494e+19 -0 -0)
(1.40680113853655e+19 -0 -0)
(1.40900203842684e+19 -0 -0)
(1.41219840085074e+19 -0 -0)
(1.41420859453927e+19 -0 -0)
(1.41726073858411e+19 -0 -0)
(1.41907812024564e+19 -0 -0)
(1.42198849555671e+19 -0 -0)
(1.42361680345513e+19 -0 -0)
(1.42639894277866e+19 -0 -0)
(1.42785111053188e+19 -0 -0)
(1.43052193370116e+19 -0 -0)
(1.4318166731379e+19 -0 -0)
(1.43439584884813e+19 -0 -0)
(1.4355494903462e+19 -0 -0)
(1.43804695317567e+19 -0 -0)
(1.43906572215264e+19 -0 -0)
(1.44148000931861e+19 -0 -0)
(1.44236929132057e+19 -0 -0)
(1.44467621034752e+19 -0 -0)
(1.44548788033147e+19 -0 -0)
(1.44771439153823e+19 -0 -0)
(1.44840397137464e+19 -0 -0)
(1.4505607186528e+19 -0 -0)
(1.45113491120603e+19 -0 -0)
(1.45323146596241e+19 -0 -0)
(1.45369855034439e+19 -0 -0)
(1.45574748479834e+19 -0 -0)
(1.45611960697875e+19 -0 -0)
(1.45812944664651e+19 -0 -0)
(1.45841499468805e+19 -0 -0)
(1.46039028651274e+19 -0 -0)
(1.46059288216252e+19 -0 -0)
(1.46253570900708e+19 -0 -0)
(1.46265722365395e+19 -0 -0)
(1.46457129654316e+19 -0 -0)
(1.46461354512589e+19 -0 -0)
(1.46650270851719e+19 -0 -0)
(1.46646849270437e+19 -0 -0)
(1.46833925865028e+19 -0 -0)
(1.46823425955508e+19 -0 -0)
(1.47008873851403e+19 -0 -0)
(1.46991654212196e+19 -0 -0)
(1.47175027381802e+19 -0 -0)
(1.47150421752864e+19 -0 -0)
(1.47330966584777e+19 -0 -0)
(1.47299074183701e+19 -0 -0)
(1.47476009429375e+19 -0 -0)
(1.47435330212389e+19 -0 -0)
(1.47608175826473e+19 -0 -0)
(1.47556384938878e+19 -0 -0)
(1.47722236650148e+19 -0 -0)
(1.47543619117195e+19 -0 -0)
)
;

boundaryField
{
    electrode
    {
        type            calculated;
        value           uniform (-10339185991.7394 -0 -0);
    }
    ground
    {
        type            calculated;
        value           uniform (1.47729345956351e+19 -0 -0);
    }
    otherfaces
    {
        type            empty;
    }
}


// ************************************************************************* //
