/*--------------------------------*- C++ -*----------------------------------*\
| =========                 |                                                 |
| \\      /  F ield         | foam-extend: Open Source CFD                    |
|  \\    /   O peration     | Version:     4.0                                |
|   \\  /    A nd           | Web:         http://www.foam-extend.org         |
|    \\/     M anipulation  |                                                 |
\*---------------------------------------------------------------------------*/
FoamFile
{
    version     2.0;
    format      ascii;
    class       volScalarField;
    location    "5.5e-06";
    object      N_electronMean;
}
// * * * * * * * * * * * * * * * * * * * * * * * * * * * * * * * * * * * * * //

dimensions      [0 0 0 1 0 0 0];

internalField   nonuniform List<scalar> 
300
(
6.01455209667453e+16
6.01440454970705e+16
6.01399548334111e+16
6.01327660334526e+16
6.01225130125745e+16
6.01091577553769e+16
6.0092677965213e+16
6.0073060946364e+16
6.00502949926494e+16
6.0024371500047e+16
5.99952843623232e+16
5.99630297197161e+16
5.99276058010968e+16
5.9889012744219e+16
5.98472524729444e+16
5.98023285751409e+16
5.9754246198795e+16
5.97030119627725e+16
5.96486338700674e+16
5.95911212256971e+16
5.9530484564126e+16
5.94667355805522e+16
5.93998870646011e+16
5.93299528324427e+16
5.92569476771989e+16
5.91808873300423e+16
5.91017883889942e+16
5.90196682480742e+16
5.89345450394858e+16
5.88464375556968e+16
5.87553651989211e+16
5.86613479673451e+16
5.85644063840794e+16
5.84645613830024e+16
5.83618342265855e+16
5.82562464400178e+16
5.81478197463092e+16
5.80365760067449e+16
5.7922537155789e+16
5.78057251349457e+16
5.76861618383424e+16
5.7563869057268e+16
5.74388684143506e+16
5.73111813032942e+16
5.71808288366971e+16
5.70478317951627e+16
5.69122105797904e+16
5.67739851697529e+16
5.66331750893753e+16
5.64897993844624e+16
5.63438766210181e+16
5.61954248849605e+16
5.60444617458979e+16
5.58910041904524e+16
5.57350685274632e+16
5.55766702920885e+16
5.54158241671338e+16
5.52525439241448e+16
5.5086842377321e+16
5.49187313357556e+16
5.47482215594306e+16
5.45753227182293e+16
5.44000433467534e+16
5.42223908334407e+16
5.40423714508234e+16
5.38599903121703e+16
5.36752512591387e+16
5.34881567938462e+16
5.32987080447941e+16
5.31069047320207e+16
5.29127451318395e+16
5.27162260597847e+16
5.25173428880652e+16
5.23160895264491e+16
5.21124583608647e+16
5.19064402539004e+16
5.16980245684589e+16
5.14871991364564e+16
5.12739501756224e+16
5.10582622376867e+16
5.08401182008739e+16
5.06194991842663e+16
5.03963844655186e+16
5.01707514526653e+16
4.99425756714209e+16
4.97118307786228e+16
4.94784885248415e+16
4.92425186751684e+16
4.90038889739896e+16
4.87625651421078e+16
4.85185108461131e+16
4.82716877168708e+16
4.80220553818033e+16
4.77695713683021e+16
4.75141910132396e+16
4.72558674414541e+16
4.69945515436041e+16
4.67301919550439e+16
4.64627350353294e+16
4.61921248617951e+16
4.59183032223196e+16
4.56412095818123e+16
4.53607810892091e+16
4.50769526100847e+16
4.4789656685578e+16
4.4498823508041e+16
4.42043809253217e+16
4.39062544298123e+16
4.36043671695514e+16
4.32986399264124e+16
4.2988991082774e+16
4.26753366184299e+16
4.23575901222918e+16
4.2035662826557e+16
4.17094636204009e+16
4.13788990644678e+16
4.10438734666027e+16
4.07042889218454e+16
4.03600452742409e+16
4.0011040090918e+16
3.96571687088029e+16
3.92983243058968e+16
3.89343979630186e+16
3.85652787390588e+16
3.81908536725361e+16
3.78110077317696e+16
3.74256238463857e+16
3.70345829730786e+16
3.66377641161362e+16
3.62350443620862e+16
3.58262989500318e+16
3.5411401342176e+16
3.49902232830668e+16
3.456263485717e+16
3.41285046276796e+16
3.36876997993058e+16
3.32400862560268e+16
3.27855285449867e+16
3.23238899270607e+16
3.18550324749134e+16
3.13788171351463e+16
3.08951037848739e+16
3.04037513174022e+16
2.99046177492044e+16
2.93975604031771e+16
2.88824360709485e+16
2.83591010797994e+16
2.78274113784935e+16
2.72872226273229e+16
2.67383903495681e+16
2.61807701545023e+16
2.56142178466698e+16
2.50385895569532e+16
2.44537419738693e+16
2.38595324618598e+16
2.3255819331512e+16
2.26424621483117e+16
2.20193221967206e+16
2.13862625283634e+16
2.07431474613386e+16
2.00898393996492e+16
1.94261798526198e+16
1.87519624424297e+16
1.80669240042932e+16
1.73707564369522e+16
1.66631362168154e+16
1.59437471138558e+16
1.52122751789477e+16
1.44684032733704e+16
1.37118356904512e+16
1.29423770081781e+16
1.21600787469799e+16
1.13654216122882e+16
1.055950166952e+16
9.74425907452832e+15
8.92270491992338e+15
8.09911786146025e+15
7.27926147963781e+15
6.47042498011786e+15
5.6812365465894e+15
4.92136969518768e+15
4.20100059030987e+15
3.53001807113413e+15
2.91719550487737e+15
2.36936245971729e+15
1.89068610423572e+15
1.48229974902272e+15
1.14229340206836e+15
866050844036910
646918626914479
477001100841288
347970480838388
251788337503234
181249169654503
129785496533036
92307759614667.5
65126029066815.2
45448067112655.6
31269914066089.1
21294566903730.2
14414475974495.4
9710967117015.21
6604482378074.67
4658814115237.63
3500369704831.24
2830054907548.35
2440753172757.99
2207741369283.18
2061871938199.03
1965792548114.83
1899081406874.72
1850095130998
1811952921246.19
1780425059147.25
1752810386248.41
1727336918163.96
1702828085822.75
1678501315048.83
1653876641506.32
1628640772801.7
1602592452010.71
1575596723374.63
1547611613071.06
1518663436134.78
1488818238810.3
1458168951012.84
1426825824368.43
1394908031186.08
1362538705525.59
1329840983986.59
1296935110337.3
1263937157248.37
1230956625349.69
1198095803037.99
1165449387233.73
1133103606670.72
1101135937095.95
1069615795566.77
1038603808471.4
1008152473254.73
978306846387.85
949104240105.856
920574898245.202
892742729175.853
865626654358.177
839240725749.293
813593220457.994
788687840430.89
764524279629.97
741098971858.625
718406794708.968
696440657849.146
675191025185.906
654646080999.881
634792440291.608
615616237913.066
597101600900.35
579229363331.707
561980905491.121
545339379137.325
529287337837.896
513806171395.689
498877199415.472
484481544880.848
470600497044.978
457215823805.906
444308396234.462
431858727596.606
419848005214.776
408257608604.859
397069064877.202
386266270980.639
375835541236.848
365764475210.35
356041419832.986
346655438724.087
337596229481.684
328854015297.048
320419835332.125
312285568192.069
304443778588.338
296886761083.014
289605957689.306
282579288564.994
275781707291.579
269208524955.694
262866848025.708
256765317583.61
250912817470.212
245291964510.236
239880310613.879
234695868157.612
229777234978.939
225121219711.879
220757343483.487
216763721461.327
213261012667.845
210499167887.903
208876080406.277
209116208101.789
)
;

boundaryField
{
    electrode
    {
        type            calculated;
        value           uniform 6.01455209669603e+16;
    }
    ground
    {
        type            calculated;
        value           uniform 210684873518.936;
    }
    otherfaces
    {
        type            empty;
    }
}


// ************************************************************************* //
