/*--------------------------------*- C++ -*----------------------------------*\
| =========                 |                                                 |
| \\      /  F ield         | foam-extend: Open Source CFD                    |
|  \\    /   O peration     | Version:     4.0                                |
|   \\  /    A nd           | Web:         http://www.foam-extend.org         |
|    \\/     M anipulation  |                                                 |
\*---------------------------------------------------------------------------*/
FoamFile
{
    version     2.0;
    format      ascii;
    class       volScalarField;
    location    "5.5e-06";
    object      Phi;
}
// * * * * * * * * * * * * * * * * * * * * * * * * * * * * * * * * * * * * * //

dimensions      [0 0 0 1 0 0 0];

internalField   nonuniform List<scalar> 
300
(
699.999925124559
699.999713415904
699.999210839126
699.998451070048
699.997442681042
699.996180323171
699.994664932696
699.992896124856
699.990873400821
699.988596340943
699.98606443676
699.983277135283
699.980233836106
699.976933887925
699.973376589053
699.969561186465
699.965486874966
699.961152796356
699.956558038504
699.951701634383
699.946582561044
699.941199738538
699.935552028784
699.929638234383
699.923457097379
699.917007297964
699.910287453133
699.903296115282
699.896031770756
699.888492838343
699.880677667711
699.8725845378
699.864211655152
699.855557152195
699.846619085473
699.837395433816
699.82788409647
699.818082891161
699.807989552114
699.797601728012
699.786916979908
699.77593277908
699.764646504829
699.75305544222
699.741156779757
699.728947607017
699.716424912264
699.703585580049
699.690426388668
699.676944007157
699.663134991705
699.648995782747
699.6345227061
699.619711979518
699.604559712792
699.589061867086
699.573214166697
699.557012086628
699.540450948455
699.523525938363
699.506232103709
699.4885643495
699.470517434337
699.452085966136
699.433264397742
699.414047022442
699.394427969391
699.374401198925
699.353960497777
699.333099474161
699.31181155274
699.290089969442
699.267927766141
699.245317785161
699.222252663619
699.198724827575
699.174726485981
699.150249624421
699.125285998611
699.099827127658
699.07386428705
699.047388501363
699.020390536666
698.992860892587
698.964789794048
698.936167182607
698.906982707414
698.877225715726
698.846885242967
698.815950002297
698.784408373649
698.752248392206
698.719457736266
698.686023714469
698.65193325232
698.617172877968
698.581728707195
698.545586427539
698.508731281505
698.471148048784
698.432821027427
698.393734013862
698.353870281713
698.313212559288
698.271743005664
698.229443185254
698.186294040733
698.142275864205
698.097368266471
698.051550144248
698.00479964517
697.957094130403
697.90841013468
697.858723323528
697.808008447478
697.756239292985
697.703388629787
697.6494281544
697.594328429402
697.538058818143
697.480587414471
697.421880967014
697.361904797534
697.300622712775
697.237996909219
697.173987870044
697.108554253531
697.04165277208
696.973238060872
696.903262535146
696.831676234858
696.758426655453
696.683458563185
696.60671379334
696.528131029395
696.447645561153
696.365189019097
696.280689081764
696.194069155599
696.105248019656
696.014139429127
695.920651686832
695.824687175317
695.726141773835
695.624904261356
695.520855877913
695.413869256827
695.303806893102
695.190520767435
695.073851474397
694.953626994169
694.82966129389
694.701752812404
694.569682589435
694.433212361903
694.29208210621
694.146007302603
693.994676458573
693.837745506568
693.674838414254
693.505533027504
693.32937034844
693.145826385129
692.954330007366
692.754203363304
692.544532902888
692.324270097795
692.092312775753
691.847424673556
691.588189588004
691.312896302289
691.019543994133
690.70576026781
690.368821940481
690.005889699105
689.613910464983
689.188957945913
688.726815427301
688.223538689107
687.674194895734
687.073364673381
686.416396666462
685.697626680714
684.911355456529
684.052726466726
683.116478162935
682.097411121704
680.991798559509
679.795738008424
678.505643163716
677.119371456216
675.635296284599
674.051990713136
672.368279093486
670.584515550276
668.700990800001
666.71814103414
664.636304717562
662.455419644866
660.176074822007
657.798690824587
655.322453459876
652.746739678537
650.070611818213
647.293867923828
644.416707264698
641.439773056979
638.363984770133
635.190324221585
631.919757667667
628.553201440715
625.091493260553
621.535386872012
617.885644256424
614.143326885869
610.309383491035
606.384701987621
602.370067452873
598.266217381745
594.073796520302
589.793413306877
585.425590972668
580.970826587013
576.429538907159
571.802129380383
567.088965174032
562.290677646973
557.407816504623
552.440937698576
547.39051955192
542.257054155352
537.040959081692
531.742672191306
526.362559100838
520.901010679037
515.358346721138
509.734916447193
504.030998620812
498.246904976215
492.382877055012
486.439192921342
480.416060412675
474.313740731661
468.132615500401
461.873104304229
455.535559529677
449.120374879407
442.627876502385
436.058434737229
429.4123518579
422.689976894269
415.891589915098
409.017520283783
402.06802755329
395.043423383985
387.943948430605
380.769898076006
373.521494931394
366.199018899401
358.802675042383
351.33272815715
343.789366032994
336.172838726747
328.483317415842
320.721038201945
312.886156770778
304.978896191918
296.999522836427
288.948374413844
280.82570890256
272.631851010989
264.367044432499
256.031601619512
247.625752540826
239.149797960121
230.603954456827
221.988511423418
213.30367251653
204.549716191192
195.726833772016
186.835293373546
177.875274629749
168.847035930424
159.750745726845
150.586653246055
141.35491619372
132.055775105151
122.689377217397
113.255954655656
103.755644634659
94.1886712211404
84.555162290648
74.8553346290265
65.0893075626454
55.2572909690413
45.3593963915009
35.395827871541
25.3666897796468
15.2721817255285
5.1124022490182
)
;

boundaryField
{
    electrode
    {
        type            fixedValue;
        value           uniform 700;
    }
    ground
    {
        type            fixedValue;
        value           uniform 0;
    }
    otherfaces
    {
        type            empty;
    }
}


// ************************************************************************* //
