/*--------------------------------*- C++ -*----------------------------------*\
| =========                 |                                                 |
| \\      /  F ield         | foam-extend: Open Source CFD                    |
|  \\    /   O peration     | Version:     4.0                                |
|   \\  /    A nd           | Web:         http://www.foam-extend.org         |
|    \\/     M anipulation  |                                                 |
\*---------------------------------------------------------------------------*/
FoamFile
{
    version     2.0;
    format      ascii;
    class       volScalarField;
    location    "5.5e-06";
    object      Te;
}
// * * * * * * * * * * * * * * * * * * * * * * * * * * * * * * * * * * * * * //

dimensions      [0 0 0 1 0 0 0];

internalField   nonuniform List<scalar> 
300
(
40269.0296437959
40269.3304459447
40269.5144688286
40269.6270867681
40269.8033000699
40270.0173405416
40270.2726463287
40270.5710009345
40270.9116645871
40271.2947920984
40271.7203941689
40272.1884605661
40272.6990070361
40273.2520497362
40273.8476108873
40274.4857189446
40275.1664081221
40275.8897185904
40276.6556964919
40277.4643939687
40278.3158692095
40279.2101864915
40280.1474162272
40281.1276350163
40282.1509257037
40283.2173774357
40284.3270857267
40285.4801525257
40286.6766862877
40287.9168020532
40289.2006215264
40290.5282731599
40291.899892247
40293.3156210171
40294.7756087335
40296.2800117974
40297.8289938602
40299.422725938
40301.0613865311
40302.745161751
40304.4742454505
40306.2488393666
40308.0691532717
40309.9354051145
40311.8478211393
40313.8066360126
40315.8120930791
40317.8644448676
40319.9639536509
40322.1108909775
40324.3055345246
40326.5481640988
40328.8390679956
40331.1785768703
40333.5671115028
40336.0051367172
40338.4929987701
40341.0309316104
40343.6192210578
40346.2582362663
40348.9483750514
40351.6900524138
40354.4836976174
40357.3297535251
40360.2286766898
40363.1809376756
40366.1870214455
40369.2474277863
40372.3626717617
40375.5332841754
40378.759812056
40382.0428191663
40385.3828865289
40388.7806129736
40392.2366157141
40395.7515309413
40399.3260144464
40402.9607422721
40406.6564113892
40410.4137404076
40414.2334703153
40418.1163652518
40422.0632133209
40426.0748274357
40430.1520462071
40434.2957348731
40438.5067862739
40442.7861218731
40447.1346928266
40451.55348111
40456.0435006986
40460.6057988062
40465.2414571913
40469.9515935285
40474.7373628491
40479.5999590643
40484.5406165646
40489.5606119048
40494.6612655893
40499.8439439473
40505.1100611183
40510.4610811498
40515.898520215
40521.4239489591
40527.0389949858
40532.7453454907
40538.5447500552
40544.4390236128
40550.4300495981
40556.519783295
40562.7102554
40569.0035758158
40575.4019376929
40581.9076217443
40588.5230008514
40595.2505449848
40602.0928264701
40609.0525256288
40616.1324368209
40623.3354749362
40630.6646823642
40638.1232364891
40645.7144577677
40653.4418184331
40661.3089518947
40669.3196628995
40677.4779385307
40685.7879601287
40694.2541162353
40702.8810166647
40711.6735078207
40720.6366894134
40729.7759327376
40739.0969005996
40748.6055691493
40758.3082524278
40768.2116281116
40778.3227660386
40788.6491643103
40799.1987827006
40809.9800687101
40821.0020296852
40832.2743110823
40843.8070825704
40855.6112523615
40867.6992325251
40880.0843150493
40892.7796887705
40905.7994142855
40919.1591998633
40932.8761528274
40946.9688538122
40961.4575083467
40976.3640825235
40991.712771994
41007.5296519884
41023.8442809483
41040.6877703568
41058.0966091689
41076.1098049609
41094.7723658945
41114.1405448273
41134.2860496242
41155.3815866665
41177.5952725946
41200.8764568718
41225.1608460119
41250.5769818306
41277.3567263558
41305.7313607597
41335.8754085815
41367.9312792945
41401.8835826162
41437.6120309136
41475.6452414077
41516.6634266627
41560.2197491879
41606.3366508454
41656.4011217531
41710.6290909955
41769.2291953004
41834.4944454428
41908.0645823415
41991.9849186058
42091.2088400753
42211.1945970992
42359.0475887862
42546.7913663328
42789.7274923631
43107.6937981048
43530.2329924399
44098.1941876018
44873.3086592317
45929.0244797177
47368.8572347252
49378.4486960265
52199.5185867233
56323.5190547842
61734.4924488903
68573.7952273155
79156.1562502186
94264.4761379885
114694.695116375
142957.930695341
181228.966069367
230438.103419101
288900.003841103
352531.341355472
416634.042417909
477524.360018676
533067.27728531
582435.100648234
625678.20100185
663382.971185804
696188.97095942
724758.775711935
749815.258885926
771959.871581967
791673.74305775
809351.145894981
825298.727302944
839773.277974446
853014.597988795
865211.462634979
876519.061871055
887065.103317254
896955.597622588
906278.39114593
915106.196171857
923499.24584254
931507.287817001
939171.205236875
946524.324394759
953593.481338802
960399.897849362
966959.904586244
973285.546586955
979385.081908883
985263.459908402
990922.568813146
996362.560564677
1001579.93719305
1006566.10600438
1011313.67930949
1015815.53268424
1020061.26687476
1024039.11435879
1027735.87480108
1031137.16178892
1034227.51734944
1036990.53390999
1039408.96121793
1041464.78045068
1043139.33079552
1044412.93280614
1045265.68610291
1045668.48150172
1045621.48569204
1045091.97960682
1044059.84393811
1042502.74393838
1040398.845332
1037725.91377022
1034461.46566827
1030582.70121689
1026066.43221785
1020889.09449502
1015027.04729984
1008455.99782492
1001154.39500401
993096.119740263
984252.5197175
974600.062037889
964112.365197178
952760.972820418
940516.024057048
927346.150262445
913218.329219733
898097.661889957
881947.120532775
864727.279697537
846396.2549141
826910.277982578
806229.782118894
784297.858368468
761053.484319232
736438.5926377
710373.939036836
682777.218929179
653562.898265569
622620.460790026
589819.34318559
555023.749222353
518045.343689085
478654.447947295
436566.355504885
391382.305532063
342544.195417252
289239.199929695
230402.281655869
)
;

boundaryField
{
    electrode
    {
        type            electronTemperature;
        seec            0.05;
        Tse             1000;
        Edepend         1;
        TFN             1000;
        field_emission  0;
        field_enhancement_factor 55;
        work_function   5;
        value           uniform 40269.0296437959;
    }
    ground
    {
        type            electronTemperature;
        seec            0.05;
        Tse             1000;
        Edepend         1;
        TFN             1000;
        field_emission  0;
        field_enhancement_factor 55;
        work_function   5;
        value           uniform 197026.746492132;
    }
    otherfaces
    {
        type            empty;
    }
}


// ************************************************************************* //
