/*--------------------------------*- C++ -*----------------------------------*\
| =========                 |                                                 |
| \\      /  F ield         | foam-extend: Open Source CFD                    |
|  \\    /   O peration     | Version:     4.0                                |
|   \\  /    A nd           | Web:         http://www.foam-extend.org         |
|    \\/     M anipulation  |                                                 |
\*---------------------------------------------------------------------------*/
FoamFile
{
    version     2.0;
    format      ascii;
    class       volScalarField;
    location    "5.5e-06";
    object      TeMean;
}
// * * * * * * * * * * * * * * * * * * * * * * * * * * * * * * * * * * * * * //

dimensions      [0 0 0 1 0 0 0];

internalField   nonuniform List<scalar> 
300
(
34443.4241847313
34443.7160303782
34443.8345988926
34443.8121215551
34443.8006497425
34443.7804001551
34443.7541713743
34443.724945664
34443.6928851194
34443.6587283301
34443.6231313172
34443.586714029
34443.5500839107
34443.5138110941
34443.4784474074
34443.4445246725
34443.4125532197
34443.3830274045
34443.3564250772
34443.3332073611
34443.3138218911
34443.2987003588
34443.2882612989
34443.2829092411
34443.2830342365
34443.2890246564
34443.3012586967
34443.320101303
34443.3459141646
34443.379042198
34443.4198120489
34443.4685606154
34443.5256322022
34443.5913557141
34443.6660511831
34443.750025093
34443.8435797305
34443.9470234812
34444.0606607105
34444.1847865174
34444.3196890445
34444.4656626828
34444.6229985865
34444.7919814371
34444.9728935422
34445.166014544
34445.3716209015
34445.5899848348
34445.8213705941
34446.06603437
34446.3242245739
34446.5961989901
34446.8822345198
34447.1826057715
34447.4975902533
34447.8274747791
34448.1725375075
34448.5330514578
34448.9092998266
34449.3015681187
34449.7101420596
34450.1353181441
34450.5773755181
34451.0365879849
34451.5132651886
34452.0077354011
34452.5203239215
34453.0513554925
34453.6011587582
34454.1700719783
34454.7584336289
34455.3665722857
34455.9948369416
34456.6435927737
34457.3131963598
34458.0039986737
34458.716377636
34459.4507469973
34460.2075118372
34460.9870757221
34461.7898807946
34462.6163842477
34463.4670330609
34464.3422729013
34465.2425596337
34466.1683859096
34467.1202762202
34468.0987549075
34469.104348986
34470.1376110818
34471.1990941085
34472.2893649535
34473.4090609386
34474.558819025
34475.7392808804
34476.9511331746
34478.1950742023
34479.4718266008
34480.7821315527
34482.1267594209
34483.5065277741
34484.9222492738
34486.3747626074
34487.8649775517
34489.3938305008
34490.9622839933
34492.5713311214
34494.2220055974
34495.9153964315
34497.6526322062
34499.4348867229
34501.2633783244
34503.1393650649
34505.0641815228
34507.0392053177
34509.0658559541
34511.1456089874
34513.2800300613
34515.4707788598
34517.7195413916
34520.0280726297
34522.3982236305
34524.8319249813
34527.3312191062
34529.8982735783
34532.5353396935
34535.2447500129
34538.0289773028
34540.8906381455
34543.8324561531
34546.8572934894
34549.9681886056
34553.1683605256
34556.4611565326
34559.8501030332
34563.3390122856
34566.9319457317
34570.633195116
34574.4473209227
34578.3791896879
34582.4340014652
34586.6173086034
34590.9350453354
34595.3935567973
34599.99969419
34604.7608913064
34609.6851811936
34614.781287627
34620.0586403016
34625.527510301
34631.199223419
34637.0861766242
34643.2019878607
34649.5618035159
34656.1823208304
34663.0821895444
34670.2822329753
34677.8062491058
34685.681741675
34693.9424823376
34702.641686713
34711.8487419283
34721.6255781223
34732.0226245841
34743.0830056693
34754.8679232383
34767.4861050226
34781.0748338253
34795.771913528
34811.6859976048
34828.8724170819
34847.3936590852
34867.3713726353
34888.8794487629
34911.9789059427
34936.8329487969
34963.5579530208
34992.4416618568
35024.2635099943
35060.1393399494
35101.9731252925
35153.214246939
35219.0621108487
35307.4147922707
35430.5570513146
35606.48643235
35861.5130088309
36234.8279844964
36784.7159110463
37599.5203414526
38815.7099414668
40649.0449260694
43448.9106429759
47890.4520101057
54653.5362736405
64192.74313849
78079.0092726147
97032.8781301017
122445.63377025
154813.41520565
194026.055677262
238747.621972129
287522.085100572
338676.794878587
390587.515657432
441734.92128015
490685.896645199
536231.430518402
577623.519099312
614611.786947257
647329.925850069
676130.946086923
701486.527258739
723890.934567083
743784.229066248
761569.574019806
777600.603288759
792168.180772411
805508.356164334
817815.455061726
829245.507656944
839926.398048967
849971.073660053
859473.510302744
868510.130061058
877143.52388866
885425.151691956
893397.018650143
901093.148366924
908540.831080183
915761.594447943
922772.006265617
929584.332095185
936206.9948032
942645.082737564
948900.809147399
954973.774590642
960861.270055095
966558.522230514
972058.924808326
977354.231505296
982434.801461932
987289.385745831
991905.521689713
996270.103259106
1000369.24045629
1004187.99898227
1007710.75451451
1010921.43237594
1013803.15717802
1016339.12606082
1018512.3909716
1020305.35291955
1021700.12807592
1022678.38101779
1023221.39294893
1023306.70591523
1022921.78693635
1022050.4081643
1020669.78151232
1018760.72155751
1016303.72521928
1013279.35402418
1009667.97264746
1005449.72562609
1000604.93329735
995113.169070285
988953.389017498
982104.995266348
974546.682710179
966255.909329858
957209.979081218
947385.859052537
936758.918113225
925303.29318966
912991.807117902
899795.859354426
885685.223808767
870627.884056161
854589.746614935
837534.576425419
819423.666801354
800220.572309059
779880.079874274
758348.731468617
735574.511046804
711494.917139652
686035.863157246
659124.755028941
630675.101969926
600579.492473607
568718.547369965
534955.909159317
499110.720240221
460964.913826769
420242.293370599
376552.928788563
329363.479172027
277894.225610491
221114.9510117
)
;

boundaryField
{
    electrode
    {
        type            calculated;
        value           uniform 34443.4241847335;
    }
    ground
    {
        type            calculated;
        value           uniform 188917.70367134;
    }
    otherfaces
    {
        type            empty;
    }
}


// ************************************************************************* //
