/*--------------------------------*- C++ -*----------------------------------*\
| =========                 |                                                 |
| \\      /  F ield         | foam-extend: Open Source CFD                    |
|  \\    /   O peration     | Version:     4.0                                |
|   \\  /    A nd           | Web:         http://www.foam-extend.org         |
|    \\/     M anipulation  |                                                 |
\*---------------------------------------------------------------------------*/
FoamFile
{
    version     2.0;
    format      ascii;
    class       volVectorField;
    location    "8e-10";
    object      E;
}
// * * * * * * * * * * * * * * * * * * * * * * * * * * * * * * * * * * * * * //

dimensions      [0 0 0 1 0 0 0];

internalField   nonuniform List<vector> 
249
(
(-0 18123.6100136812 -0)
(-0 12081.9147279541 -0)
(-0 12081.9146035464 -0)
(-0 12081.9146120745 -0)
(-0 12081.9146238221 -0)
(-0 12081.9146399039 -0)
(-0 12081.9146561308 -0)
(-0 12081.9146735717 -0)
(-0 12081.9146911269 -0)
(-0 12081.9147081631 -0)
(-0 12081.9147251672 -0)
(-0 12081.9147425576 -0)
(-0 12081.9147604492 -0)
(-0 12081.9147782408 -0)
(-0 12081.9147951912 -0)
(-0 12081.9148123939 -0)
(-0 12081.914830207 -0)
(-0 12081.9148475009 -0)
(-0 12081.9148646418 -0)
(-0 12081.914881624 -0)
(-0 12081.9148987592 -0)
(-0 12081.914916275 -0)
(-0 12081.914933606 -0)
(-0 12081.9149514841 -0)
(-0 12081.9149694765 -0)
(-0 12081.9149871418 -0)
(-0 12081.9150051677 -0)
(-0 12081.9150230877 -0)
(-0 12081.9150411935 -0)
(-0 12081.9150592773 -0)
(-0 12081.9150778231 -0)
(-0 12081.9150965026 -0)
(-0 12081.9151146347 -0)
(-0 12081.915133156 -0)
(-0 12081.9151520288 -0)
(-0 12081.9151711385 -0)
(-0 12081.9151899087 -0)
(-0 12081.9152076175 -0)
(-0 12081.9152259862 -0)
(-0 12081.9152449147 -0)
(-0 12081.9152636277 -0)
(-0 12081.9152827302 -0)
(-0 12081.9153019022 -0)
(-0 12081.9153211391 -0)
(-0 12081.9153404836 -0)
(-0 12081.9153591596 -0)
(-0 12081.9153776207 -0)
(-0 12081.9153971991 -0)
(-0 12081.9154166497 -0)
(-0 12081.9154362607 -0)
(-0 12081.9154562487 -0)
(-0 12081.9154761773 -0)
(-0 12081.9154959524 -0)
(-0 12081.91551568 -0)
(-0 12081.9155355072 -0)
(-0 12081.9155558016 -0)
(-0 12081.9155764645 -0)
(-0 12081.9155969888 -0)
(-0 12081.9156165155 -0)
(-0 12081.9156361753 -0)
(-0 12081.9156564675 -0)
(-0 12081.9156767534 -0)
(-0 12081.9156973408 -0)
(-0 12081.9157174515 -0)
(-0 12081.9157375657 -0)
(-0 12081.9157577977 -0)
(-0 12081.9157780429 -0)
(-0 12081.9157987446 -0)
(-0 12081.9158195855 -0)
(-0 12081.9158402006 -0)
(-0 12081.9158607103 -0)
(-0 12081.9158813405 -0)
(-0 12081.9159023534 -0)
(-0 12081.9159229504 -0)
(-0 12081.9159437214 -0)
(-0 12081.9159646327 -0)
(-0 12081.9159853779 -0)
(-0 12081.9160066366 -0)
(-0 12081.9160275803 -0)
(-0 12081.9160486567 -0)
(-0 12081.9160700872 -0)
(-0 12081.9160915073 -0)
(-0 12081.9161130788 -0)
(-0 12081.9161346322 -0)
(-0 12081.9161562745 -0)
(-0 12081.9161777931 -0)
(-0 12081.9161992727 -0)
(-0 12081.9162209289 -0)
(-0 12081.9162424687 -0)
(-0 12081.9162641098 -0)
(-0 12081.9162860825 -0)
(-0 12081.9163083242 -0)
(-0 12081.9163309656 -0)
(-0 12081.9163537307 -0)
(-0 12081.9163762762 -0)
(-0 12081.9163984591 -0)
(-0 12081.9164204497 -0)
(-0 12081.9164426707 -0)
(-0 12081.9164655559 -0)
(-0 12081.9164882219 -0)
(-0 12081.9165106827 -0)
(-0 12081.9165334485 -0)
(-0 12081.9165560362 -0)
(-0 12081.9165787961 -0)
(-0 12081.9166015766 -0)
(-0 12081.9166242606 -0)
(-0 12081.9166476203 -0)
(-0 12081.9166710601 -0)
(-0 12081.9166943149 -0)
(-0 12081.916717813 -0)
(-0 12081.9167415188 -0)
(-0 12081.9167651549 -0)
(-0 12081.9167888326 -0)
(-0 12081.9168128121 -0)
(-0 12081.9168364307 -0)
(-0 12081.9168599667 -0)
(-0 12081.916883619 -0)
(-0 12081.9169075445 -0)
(-0 12081.9169313778 -0)
(-0 12081.9169551735 -0)
(-0 12081.9169795018 -0)
(-0 12081.9170042994 -0)
(-0 12081.9170292468 -0)
(-0 12081.9170539754 -0)
(-0 12081.9170786244 -0)
(-0 12081.9171029815 -0)
(-0 12081.9171273848 -0)
(-0 12081.9171521261 -0)
(-0 12081.9171767148 -0)
(-0 12081.9172016128 -0)
(-0 12081.9172266609 -0)
(-0 12081.9172513034 -0)
(-0 12081.9172763888 -0)
(-0 12081.9173015834 -0)
(-0 12081.9173261505 -0)
(-0 12081.9173514162 -0)
(-0 12081.9173770528 -0)
(-0 12081.9174020317 -0)
(-0 12081.9174274116 -0)
(-0 12081.9174527722 -0)
(-0 12081.9174777439 -0)
(-0 12081.917502662 -0)
(-0 12081.91752788 -0)
(-0 12081.9175538039 -0)
(-0 12081.9175793888 -0)
(-0 12081.9176048379 -0)
(-0 12081.9176307745 -0)
(-0 12081.9176564717 -0)
(-0 12081.9176818416 -0)
(-0 12081.9177078323 -0)
(-0 12081.91773409 -0)
(-0 12081.9177600877 -0)
(-0 12081.9177864288 -0)
(-0 12081.917812779 -0)
(-0 12081.917838833 -0)
(-0 12081.917864829 -0)
(-0 12081.9178910446 -0)
(-0 12081.9179174157 -0)
(-0 12081.9179438016 -0)
(-0 12081.9179702916 -0)
(-0 12081.917996821 -0)
(-0 12081.9180236175 -0)
(-0 12081.9180506017 -0)
(-0 12081.9180776387 -0)
(-0 12081.9181049019 -0)
(-0 12081.9181317252 -0)
(-0 12081.9181582447 -0)
(-0 12081.9181851003 -0)
(-0 12081.9182120497 -0)
(-0 12081.9182395758 -0)
(-0 12081.9182673336 -0)
(-0 12081.9182944448 -0)
(-0 12081.9183215913 -0)
(-0 12081.9183492126 -0)
(-0 12081.9183770478 -0)
(-0 12081.9184047903 -0)
(-0 12081.918432146 -0)
(-0 12081.9184595945 -0)
(-0 12081.9184874805 -0)
(-0 12081.9185155668 -0)
(-0 12081.9185436218 -0)
(-0 12081.918571557 -0)
(-0 12081.9185994044 -0)
(-0 12081.918627741 -0)
(-0 12081.9186562389 -0)
(-0 12081.9186844581 -0)
(-0 12081.9187130694 -0)
(-0 12081.9187417588 -0)
(-0 12081.9187703098 -0)
(-0 12081.9187988304 -0)
(-0 12081.9188275275 -0)
(-0 12081.9188564205 -0)
(-0 12081.9188851633 -0)
(-0 12081.9189142107 -0)
(-0 12081.918943135 -0)
(-0 12081.9189717646 -0)
(-0 12081.9190007932 -0)
(-0 12081.9190298392 -0)
(-0 12081.919058986 -0)
(-0 12081.9190883602 -0)
(-0 12081.9191175868 -0)
(-0 12081.9191470009 -0)
(-0 12081.9191765506 -0)
(-0 12081.9192058612 -0)
(-0 12081.9192355814 -0)
(-0 12081.9192654913 -0)
(-0 12081.9192950204 -0)
(-0 12081.9193248303 -0)
(-0 12081.9193550555 -0)
(-0 12081.919385219 -0)
(-0 12081.9194154962 -0)
(-0 12081.9194459396 -0)
(-0 12081.919475982 -0)
(-0 12081.919505874 -0)
(-0 12081.9195363281 -0)
(-0 12081.9195666361 -0)
(-0 12081.9195969356 -0)
(-0 12081.9196275764 -0)
(-0 12081.9196578707 -0)
(-0 12081.9196881226 -0)
(-0 12081.9197186484 -0)
(-0 12081.9197493339 -0)
(-0 12081.9197799821 -0)
(-0 12081.9198104228 -0)
(-0 12081.9198409746 -0)
(-0 12081.9198718888 -0)
(-0 12081.9199030809 -0)
(-0 12081.9199341677 -0)
(-0 12081.9199651168 -0)
(-0 12081.9199961649 -0)
(-0 12081.9200272288 -0)
(-0 12081.9200582232 -0)
(-0 12081.920089427 -0)
(-0 12081.9201209622 -0)
(-0 12081.9201521603 -0)
(-0 12081.9201833334 -0)
(-0 12081.9202147586 -0)
(-0 12081.9202460972 -0)
(-0 12081.9202777212 -0)
(-0 12081.9203094288 -0)
(-0 12081.9203412186 -0)
(-0 12081.9203729408 -0)
(-0 12081.9204046789 -0)
(-0 12081.9204366645 -0)
(-0 12081.9204683029 -0)
(-0 12081.9205001595 -0)
(-0 12081.920532208 -0)
(-0 12081.9205643318 -0)
(-0 12081.004838679 -0)
)
;

boundaryField
{
    dielectric_2
    {
        type            calculated;
        value           uniform (-0 12080.0890968283 -0);
    }
    dielectric_1
    {
        type            calculated;
        value           nonuniform 0();
    }
    otherfaces
    {
        type            empty;
    }
    procBoundary3to2
    {
        type            processor;
        value           uniform (-0 18124.4409179114 -0);
    }
}


// ************************************************************************* //
