/*--------------------------------*- C++ -*----------------------------------*\
| =========                 |                                                 |
| \\      /  F ield         | foam-extend: Open Source CFD                    |
|  \\    /   O peration     | Version:     4.0                                |
|   \\  /    A nd           | Web:         http://www.foam-extend.org         |
|    \\/     M anipulation  |                                                 |
\*---------------------------------------------------------------------------*/
FoamFile
{
    version     2.0;
    format      ascii;
    class       volScalarField;
    location    "2.3e-06";
    object      Ar;
}
// * * * * * * * * * * * * * * * * * * * * * * * * * * * * * * * * * * * * * //

dimensions      [0 0 0 1 0 0 0];

internalField   nonuniform List<scalar> 
300
(
3.21880339427298e+22
3.21880339139939e+22
3.21880339349531e+22
3.21880339509338e+22
3.21880339722207e+22
3.21880340010025e+22
3.2188034036448e+22
3.21880340785329e+22
3.21880341272756e+22
3.21880341826292e+22
3.21880342445617e+22
3.21880343130439e+22
3.21880343880457e+22
3.2188034469537e+22
3.21880345574872e+22
3.2188034651865e+22
3.21880347526413e+22
3.21880348597817e+22
3.21880349732507e+22
3.21880350930128e+22
3.21880352190317e+22
3.21880353512699e+22
3.21880354896887e+22
3.21880356342483e+22
3.21880357849238e+22
3.21880359416606e+22
3.21880361044171e+22
3.21880362731521e+22
3.21880364478117e+22
3.21880366283498e+22
3.21880368147381e+22
3.2188037006922e+22
3.21880372048394e+22
3.21880374084404e+22
3.21880376176745e+22
3.21880378324909e+22
3.21880380528428e+22
3.2188038278677e+22
3.21880385099389e+22
3.21880387465774e+22
3.21880389885413e+22
3.21880392357775e+22
3.21880394882342e+22
3.21880397458601e+22
3.21880400086041e+22
3.21880402764159e+22
3.21880405492478e+22
3.21880408270521e+22
3.21880411097912e+22
3.21880413974217e+22
3.21880416899125e+22
3.21880419872084e+22
3.21880422892731e+22
3.21880425960486e+22
3.21880429074879e+22
3.21880432235374e+22
3.2188043544158e+22
3.21880438693132e+22
3.21880441989685e+22
3.21880445330939e+22
3.21880448716575e+22
3.21880452146322e+22
3.21880455619988e+22
3.21880459137555e+22
3.21880462698814e+22
3.21880466303367e+22
3.21880469951086e+22
3.21880473641876e+22
3.2188047737568e+22
3.21880481152477e+22
3.21880484972308e+22
3.21880488835315e+22
3.21880492741622e+22
3.21880496691306e+22
3.21880500684698e+22
3.21880504722025e+22
3.2188050880351e+22
3.21880512929526e+22
3.21880517100251e+22
3.21880521316425e+22
3.21880525578181e+22
3.21880529886033e+22
3.21880534240598e+22
3.21880538642496e+22
3.21880543092575e+22
3.21880547591512e+22
3.21880552140004e+22
3.2188055673892e+22
3.21880561389311e+22
3.21880566092095e+22
3.21880570848386e+22
3.21880575659755e+22
3.21880580526828e+22
3.21880585450834e+22
3.21880590433083e+22
3.21880595474948e+22
3.21880600577871e+22
3.21880605743361e+22
3.21880610973098e+22
3.21880616268718e+22
3.2188062163186e+22
3.21880627064279e+22
3.21880632568126e+22
3.21880638145004e+22
3.21880643796969e+22
3.2188064952614e+22
3.21880655334456e+22
3.21880661224264e+22
3.21880667197673e+22
3.218806732569e+22
3.21880679404297e+22
3.21880685642276e+22
3.21880691973359e+22
3.21880698400068e+22
3.21880704924975e+22
3.2188071155086e+22
3.21880718280562e+22
3.21880725116526e+22
3.21880732061482e+22
3.21880739118288e+22
3.21880746290024e+22
3.21880753579408e+22
3.21880760989608e+22
3.21880768523428e+22
3.2188077618368e+22
3.21880783973333e+22
3.21880791895632e+22
3.21880799953372e+22
3.2188080814964e+22
3.21880816487431e+22
3.21880824969875e+22
3.2188083359997e+22
3.2188084238071e+22
3.21880851315276e+22
3.21880860406926e+22
3.21880869658323e+22
3.21880879072241e+22
3.21880888651688e+22
3.21880898399555e+22
3.2188090831838e+22
3.21880918410879e+22
3.21880928679683e+22
3.21880939127483e+22
3.2188094975686e+22
3.21880960570197e+22
3.21880971569295e+22
3.21880982756153e+22
3.21880994132613e+22
3.21881005700473e+22
3.21881017461503e+22
3.21881029416621e+22
3.2188104156685e+22
3.21881053913286e+22
3.21881066456067e+22
3.218810791951e+22
3.2188109213015e+22
3.21881105260373e+22
3.21881118583865e+22
3.2188113209817e+22
3.21881145800155e+22
3.21881159685461e+22
3.21881173749182e+22
3.21881187983714e+22
3.21881202373765e+22
3.21881216950322e+22
3.21881231552825e+22
3.21881246185911e+22
3.21881260977519e+22
3.21881275879376e+22
3.21881290758565e+22
3.21881305638862e+22
3.21881320403471e+22
3.21881335142139e+22
3.21881349908919e+22
3.21881364289174e+22
3.21881378672248e+22
3.21881392364745e+22
3.21881405591678e+22
3.21881418713604e+22
3.21881430699893e+22
3.21881442004272e+22
3.21881452517949e+22
3.21881461687006e+22
3.21881470340339e+22
3.21881477650809e+22
3.21881483866643e+22
3.21881489310769e+22
3.2188149402587e+22
3.21881497659095e+22
3.2188150065017e+22
3.21881503385673e+22
3.21881505700041e+22
3.21881507484323e+22
3.21881508875849e+22
3.21881509490159e+22
3.21881509561654e+22
3.21881509347656e+22
3.21881509349057e+22
3.21881509520309e+22
3.21881509815209e+22
3.21881510213918e+22
3.21881510641947e+22
3.2188151129519e+22
3.21881511909659e+22
3.21881512457673e+22
3.21881512946188e+22
3.21881513375031e+22
3.2188151375142e+22
3.21881514074792e+22
3.21881514357516e+22
3.21881514602568e+22
3.2188151492594e+22
3.21881515297247e+22
3.21881515646633e+22
3.2188151596048e+22
3.21881516254817e+22
3.21881516519385e+22
3.21881516766784e+22
3.21881516987262e+22
3.2188151719504e+22
3.21881517379076e+22
3.21881517553704e+22
3.2188151770794e+22
3.21881517854256e+22
3.21881518042822e+22
3.21881518295753e+22
3.21881518531241e+22
3.21881518759652e+22
3.21881518972797e+22
3.21881519179554e+22
3.21881519371865e+22
3.21881519559201e+22
3.2188151973151e+22
3.21881519901183e+22
3.2188152005581e+22
3.21881520210115e+22
3.21881520348006e+22
3.2188152048831e+22
3.21881520611932e+22
3.21881520739347e+22
3.21881520850625e+22
3.21881520965916e+22
3.2188152110359e+22
3.2188152130028e+22
3.2188152147798e+22
3.21881521663857e+22
3.21881521828788e+22
3.21881522003753e+22
3.21881522158238e+22
3.21881522321249e+22
3.21881522465102e+22
3.21881522617765e+22
3.21881522750276e+22
3.21881522894133e+22
3.2188152301486e+22
3.21881523151326e+22
3.21881523262201e+22
3.21881523392216e+22
3.2188152349644e+22
3.21881523619965e+22
3.21881523717991e+22
3.21881523834397e+22
3.21881523923986e+22
3.21881524032767e+22
3.21881524112222e+22
3.21881524213821e+22
3.21881524282398e+22
3.21881524402998e+22
3.21881524522962e+22
3.21881524671937e+22
3.21881524784029e+22
3.2188152492694e+22
3.21881525033565e+22
3.21881525173034e+22
3.21881525275118e+22
3.21881525412247e+22
3.21881525508252e+22
3.21881525641584e+22
3.21881525729586e+22
3.21881525857075e+22
3.21881525937126e+22
3.21881526057437e+22
3.2188152613294e+22
3.21881526248644e+22
3.21881526321437e+22
3.21881526434803e+22
3.21881526505231e+22
3.21881526616297e+22
3.21881526684895e+22
3.21881526795025e+22
3.21881526863207e+22
3.21881526972885e+22
3.21881527038303e+22
3.21881527148343e+22
3.21881527211926e+22
3.21881527322344e+22
3.21881527385201e+22
3.21881527498233e+22
3.21881527562615e+22
3.21881527703373e+22
)
;

boundaryField
{
    electrode
    {
        type            zeroGradient;
    }
    ground
    {
        type            zeroGradient;
    }
    otherfaces
    {
        type            empty;
    }
}


// ************************************************************************* //
