/*--------------------------------*- C++ -*----------------------------------*\
| =========                 |                                                 |
| \\      /  F ield         | foam-extend: Open Source CFD                    |
|  \\    /   O peration     | Version:     4.0                                |
|   \\  /    A nd           | Web:         http://www.foam-extend.org         |
|    \\/     M anipulation  |                                                 |
\*---------------------------------------------------------------------------*/
FoamFile
{
    version     2.0;
    format      ascii;
    class       volScalarField;
    location    "2.3e-06";
    object      Arm;
}
// * * * * * * * * * * * * * * * * * * * * * * * * * * * * * * * * * * * * * //

dimensions      [0 0 0 1 0 0 0];

internalField   nonuniform List<scalar> 
300
(
3.57415499127388e+15
3.57603415958309e+15
3.57798371455653e+15
3.57928953100171e+15
3.58010569835498e+15
3.58048417334373e+15
3.58046916897538e+15
3.58009211535702e+15
3.57937866847385e+15
3.57835081572836e+15
3.57702432562622e+15
3.57541328476379e+15
3.57352974574547e+15
3.57138431086958e+15
3.56898643690183e+15
3.56634467245797e+15
3.56346383094093e+15
3.56035250440406e+15
3.55701903654723e+15
3.55346990480728e+15
3.54971131065143e+15
3.54574917579154e+15
3.54158919025186e+15
3.53723682243829e+15
3.53268133795201e+15
3.52794053064306e+15
3.5230180875217e+15
3.5179160064266e+15
3.51264790694894e+15
3.507218683471e+15
3.50161451899427e+15
3.49584681238408e+15
3.48993369626645e+15
3.48388053730192e+15
3.47769242175688e+15
3.47137415700335e+15
3.46492590233708e+15
3.45835418172794e+15
3.45166606967766e+15
3.44486509695879e+15
3.43795476487698e+15
3.43094035391052e+15
3.4238257433696e+15
3.416614624888e+15
3.40931049873147e+15
3.40191663140895e+15
3.39443396381482e+15
3.38686395715773e+15
3.37919882723083e+15
3.37143718739554e+15
3.36356638580592e+15
3.35559898524441e+15
3.34752953746898e+15
3.33937580545068e+15
3.33114589873219e+15
3.32285621691967e+15
3.31451004395319e+15
3.30611029598726e+15
3.29765954751399e+15
3.28915820838284e+15
3.28061060225763e+15
3.2720188446342e+15
3.263379602859e+15
3.25467486449086e+15
3.24590860827531e+15
3.23710648122897e+15
3.22827054530489e+15
3.21940264026589e+15
3.21050435192215e+15
3.2015770425148e+15
3.19261987208106e+15
3.18362567310686e+15
3.17459290410762e+15
3.16552905201675e+15
3.15642052544695e+15
3.14726839592617e+15
3.13807902868342e+15
3.12884824595877e+15
3.11959613055287e+15
3.11029196233566e+15
3.10097046309392e+15
3.09163372143231e+15
3.08227863865109e+15
3.07290750631243e+15
3.06350544996448e+15
3.0540802372416e+15
3.0446435950297e+15
3.03519584482858e+15
3.02572503183267e+15
3.01623895669678e+15
3.00673163966845e+15
2.9971578321548e+15
2.98757302107636e+15
2.97797877252005e+15
2.96837511325929e+15
2.95876206974436e+15
2.94913942363261e+15
2.939506756612e+15
2.92985310276584e+15
2.92017840735011e+15
2.91048894927446e+15
2.9007860474791e+15
2.8910378054243e+15
2.88127358911792e+15
2.87148412562404e+15
2.86166003556581e+15
2.85181642472821e+15
2.84193358936299e+15
2.83202200287204e+15
2.82208712022247e+15
2.81212706164621e+15
2.8021395476921e+15
2.79211682241446e+15
2.7820566812929e+15
2.77195692525759e+15
2.76179988219161e+15
2.75156660249275e+15
2.74128198083169e+15
2.73094686952456e+15
2.72055320196725e+15
2.71007450872725e+15
2.69952386610046e+15
2.68887217144119e+15
2.67812987276661e+15
2.66730842163073e+15
2.65640563447004e+15
2.6453932996489e+15
2.63428895568239e+15
2.62308172291234e+15
2.61176959162405e+15
2.60033688298776e+15
2.58877974505941e+15
2.57709320782098e+15
2.56525116922223e+15
2.55321707325696e+15
2.54100987344077e+15
2.5286335127046e+15
2.51606289869323e+15
2.50327914256755e+15
2.49029143968534e+15
2.47708376889559e+15
2.46363949573916e+15
2.44992645326957e+15
2.43591253234048e+15
2.42157306843368e+15
2.4069279722141e+15
2.39196232994887e+15
2.37665979540845e+15
2.36098983708998e+15
2.34490345348018e+15
2.32841321178877e+15
2.31149436421285e+15
2.29408450512181e+15
2.27618255587316e+15
2.25777028005378e+15
2.23879789533958e+15
2.21922210052669e+15
2.19904242957551e+15
2.17823974694621e+15
2.15676904325632e+15
2.13459469653842e+15
2.11170167655682e+15
2.08805162737793e+15
2.06365719907928e+15
2.0385054193666e+15
2.01254155555558e+15
1.98578650102494e+15
1.95828487969955e+15
1.93006561953268e+15
1.9011706707835e+15
1.87166872202965e+15
1.84159296854055e+15
1.81103576542611e+15
1.78016870337318e+15
1.74918579533935e+15
1.71825684282728e+15
1.6875610182967e+15
1.65729729266417e+15
1.62770463901959e+15
1.5989385094377e+15
1.57115318202821e+15
1.5444957685606e+15
1.5190474794827e+15
1.49492327248236e+15
1.47212288319246e+15
1.45055560722045e+15
1.43026112877124e+15
1.41118774881046e+15
1.39324642677276e+15
1.37634781999573e+15
1.36037000558905e+15
1.3452658991343e+15
1.33103726066021e+15
1.31949096642941e+15
1.32705510408962e+15
1.35726449178761e+15
1.38556455358325e+15
1.3918959618635e+15
1.3840784916789e+15
1.36991859774448e+15
1.3526712326029e+15
1.33571137692955e+15
1.321079238494e+15
1.3091971502086e+15
1.29970628853366e+15
1.29201933764528e+15
1.28508976983361e+15
1.27918017775987e+15
1.27398810006031e+15
1.26918657699505e+15
1.26421363278345e+15
1.25925856397908e+15
1.25440452609153e+15
1.24956696418127e+15
1.24474004257204e+15
1.23988224637765e+15
1.23495793693596e+15
1.22999151150323e+15
1.22496401452666e+15
1.21987471838435e+15
1.21473949396162e+15
1.20955147085103e+15
1.20431893461971e+15
1.19899019448298e+15
1.19356983101419e+15
1.18815993029207e+15
1.18278393871476e+15
1.17744240934602e+15
1.17215013309661e+15
1.1669268665684e+15
1.16176900388709e+15
1.15668835817188e+15
1.15170123534287e+15
1.14680681405653e+15
1.14200749941218e+15
1.13732218910421e+15
1.13273642769872e+15
1.12827021868475e+15
1.12391255968402e+15
1.11967378833366e+15
1.11555365863966e+15
1.11154329858668e+15
1.10765618322788e+15
1.10387646803109e+15
1.10020834728485e+15
1.09666507760798e+15
1.09323030847064e+15
1.0899091585321e+15
1.08670162245774e+15
1.08359740556077e+15
1.08060123373151e+15
1.07770665838881e+15
1.0749087825747e+15
1.07221101124586e+15
1.06960517498837e+15
1.06708920884107e+15
1.06466236791024e+15
1.06230986241913e+15
1.06004144703536e+15
1.0578501406776e+15
1.05574273696788e+15
1.0537077151296e+15
1.05174915000646e+15
1.04986003764799e+15
1.04803946105945e+15
1.04628503329101e+15
1.0445908717827e+15
1.0429558397379e+15
1.04137097941456e+15
1.03984381871118e+15
1.03836814862339e+15
1.03695078983306e+15
1.03557990836574e+15
1.03426249403732e+15
1.0329875256412e+15
1.03175458348628e+15
1.03056286235485e+15
1.02941319900923e+15
1.02830832201799e+15
1.02724248324469e+15
1.0262151211747e+15
1.02521915950836e+15
1.02420258652479e+15
1.02319395816288e+15
1.02222056494722e+15
1.02127225221059e+15
1.02035573018155e+15
1.01947119508889e+15
1.01861127641777e+15
1.01768772346712e+15
1.01674629516856e+15
1.01583287644341e+15
1.01494687603114e+15
1.01394943635886e+15
1.01293806620484e+15
1.01189958837792e+15
1.01071855704315e+15
1.00942568950619e+15
1.00794671904108e+15
1.00615587704607e+15
)
;

boundaryField
{
    electrode
    {
        type            zeroGradient;
    }
    ground
    {
        type            zeroGradient;
    }
    otherfaces
    {
        type            empty;
    }
}


// ************************************************************************* //
