/*--------------------------------*- C++ -*----------------------------------*\
| =========                 |                                                 |
| \\      /  F ield         | foam-extend: Open Source CFD                    |
|  \\    /   O peration     | Version:     4.0                                |
|   \\  /    A nd           | Web:         http://www.foam-extend.org         |
|    \\/     M anipulation  |                                                 |
\*---------------------------------------------------------------------------*/
FoamFile
{
    version     2.0;
    format      ascii;
    class       volScalarField;
    location    "2.3e-06";
    object      Arp1;
}
// * * * * * * * * * * * * * * * * * * * * * * * * * * * * * * * * * * * * * //

dimensions      [0 0 0 1 0 0 0];

internalField   nonuniform List<scalar> 
300
(
5.97277021345701e+16
5.97566904378829e+16
5.97387766897221e+16
5.9729686369469e+16
5.97189504073599e+16
5.97043222704257e+16
5.96865887021372e+16
5.96657373218346e+16
5.96417183638787e+16
5.96145502700839e+16
5.95842420548245e+16
5.95508006230672e+16
5.9514235035627e+16
5.94745551441139e+16
5.94317715060907e+16
5.93858954892676e+16
5.93369392456098e+16
5.92849156913794e+16
5.92298384957505e+16
5.91717220657372e+16
5.91105815289773e+16
5.90464327165826e+16
5.89792921440942e+16
5.89091769908095e+16
5.88361050784948e+16
5.87600948485115e+16
5.86811653367713e+16
5.8599336148412e+16
5.85146274304598e+16
5.84270598426797e+16
5.83366545273621e+16
5.8243433077838e+16
5.81474175045654e+16
5.8048630200258e+16
5.79470939037526e+16
5.78428316612894e+16
5.77358667870253e+16
5.76262228220239e+16
5.75139234906928e+16
5.73989926566312e+16
5.7281454276783e+16
5.71613323531009e+16
5.70386508837687e+16
5.69134338125001e+16
5.67857049756917e+16
5.66554880490512e+16
5.65228064924103e+16
5.63876834924053e+16
5.62501419048499e+16
5.61102041952708e+16
5.59678923775118e+16
5.5823227952195e+16
5.5676231843213e+16
5.55269243329935e+16
5.53753249969086e+16
5.52214526368272e+16
5.50653252130924e+16
5.4906959775681e+16
5.47463723952825e+16
5.45835780922668e+16
5.44185907658472e+16
5.42514231227177e+16
5.40820866041462e+16
5.3910591313559e+16
5.37369459435881e+16
5.35611577020233e+16
5.33832322386033e+16
5.32031735714011e+16
5.30209840124341e+16
5.28366640944703e+16
5.26502124977775e+16
5.24616259763326e+16
5.22708992856858e+16
5.20780251109211e+16
5.18829939946933e+16
5.16857942671434e+16
5.14864119762128e+16
5.12848308188209e+16
5.10810320736457e+16
5.08749945354455e+16
5.06666944503124e+16
5.04561054528959e+16
5.02431985058791e+16
5.00279418406044e+16
4.98103009003588e+16
4.95902382863191e+16
4.93677137050784e+16
4.91426839194782e+16
4.8915102702548e+16
4.86849207934925e+16
4.84520858577603e+16
4.82165424504111e+16
4.79782319827178e+16
4.77370926926657e+16
4.74930596198367e+16
4.72460645839749e+16
4.69960361683009e+16
4.67428997074211e+16
4.6486577279787e+16
4.62269877055842e+16
4.59640465498399e+16
4.56976661307627e+16
4.54277555339784e+16
4.51542206330722e+16
4.48769641157553e+16
4.45958855167568e+16
4.43108812578316e+16
4.40218446939777e+16
4.37286661670638e+16
4.34312330679745e+16
4.31294299051387e+16
4.28231383816516e+16
4.25122374813621e+16
4.21966035625844e+16
4.18761104612117e+16
4.15506296037777e+16
4.12200301291825e+16
4.08841790208551e+16
4.05429412496933e+16
4.01961799271046e+16
3.98437564698823e+16
3.94855307765283e+16
3.91213614156094e+16
3.87511058272426e+16
3.83746205377984e+16
3.799176138817e+16
3.76023837773808e+16
3.72063429215715e+16
3.68034941288014e+16
3.6393693092279e+16
3.59767962019621e+16
3.55526608758861e+16
3.51211459136031e+16
3.46821118737105e+16
3.42354214764861e+16
3.37809400358083e+16
3.33185359232565e+16
3.2848081067519e+16
3.23694514952368e+16
3.18825279180064e+16
3.13871963732408e+16
3.08833489277506e+16
3.03708844542004e+16
2.98497094943872e+16
2.93197392256428e+16
2.87808985507152e+16
2.82331233366001e+16
2.76763618346471e+16
2.71105763213433e+16
2.65357450102096e+16
2.59518642978064e+16
2.53589514240416e+16
2.47570476457074e+16
2.41462220439542e+16
2.35265761864589e+16
2.28982495759299e+16
2.22614269203104e+16
2.16163461056071e+16
2.09633071427674e+16
2.03026901640159e+16
1.9634972915717e+16
1.89606480741615e+16
1.82804809986789e+16
1.75959400952789e+16
1.6903878415979e+16
1.62204527609865e+16
1.55454751000121e+16
1.48665097974094e+16
1.41885871129971e+16
1.35249492368193e+16
1.28729130557155e+16
1.22435303881621e+16
1.16264900046627e+16
1.10138657704901e+16
1.04432408841003e+16
9.87036764391709e+15
9.3577331370983e+15
8.87460002786101e+15
8.37521317182792e+15
7.95199898304466e+15
7.54893537859259e+15
7.16700493034594e+15
6.85340881139655e+15
6.51949548442039e+15
6.24531059919125e+15
6.00677398008581e+15
5.77531887667623e+15
5.55312554133247e+15
5.38396238409116e+15
5.23282790865816e+15
5.07002566740092e+15
4.92042765845478e+15
4.8021309298139e+15
4.70549070723113e+15
4.65817042188037e+15
4.63620631497672e+15
4.64003435393725e+15
4.64078939397299e+15
4.6359086599385e+15
4.62311890299034e+15
4.60191433341676e+15
4.57686996466341e+15
4.52663790021144e+15
4.47734466581332e+15
4.43219742108618e+15
4.39113162164108e+15
4.35523620958791e+15
4.32354208764854e+15
4.29641704339637e+15
4.27295725284397e+15
4.25343095729619e+15
4.22605231138918e+15
4.19377859525851e+15
4.16368109957758e+15
4.13712814360968e+15
4.11255885034282e+15
4.09103505256935e+15
4.07127251507786e+15
4.05426544905661e+15
4.03859245001086e+15
4.02534174820468e+15
4.01308656657214e+15
4.00291708642733e+15
3.99363760103878e+15
3.98022620622425e+15
3.96036918327914e+15
3.94222372649253e+15
3.92475237860088e+15
3.90875903863804e+15
3.89333609410391e+15
3.87929272290084e+15
3.8656697819211e+15
3.85345610271933e+15
3.84141319852441e+15
3.83077963744138e+15
3.82006388611518e+15
3.81088975280829e+15
3.80135418991393e+15
3.79337773182088e+15
3.78490253265888e+15
3.77792177761993e+15
3.7704292514668e+15
3.76057449863155e+15
3.74471006243044e+15
3.73063221124222e+15
3.71561121937778e+15
3.7025754620913e+15
3.68842197135498e+15
3.6762021484972e+15
3.66302571783219e+15
3.65165639265278e+15
3.63930369338491e+15
3.6288687808947e+15
3.61719856142906e+15
3.60774883686404e+15
3.59663470485006e+15
3.58798989275918e+15
3.57735615633988e+15
3.5692168495238e+15
3.55906981409947e+15
3.5513882941097e+15
3.54179582431955e+15
3.53480815763889e+15
3.52583131274491e+15
3.51971818492661e+15
3.51132395181065e+15
3.50617133990977e+15
3.49575696839522e+15
3.48535549045848e+15
3.47199507139479e+15
3.4622709334416e+15
3.44940639481452e+15
3.44012356644681e+15
3.42750270848677e+15
3.41857751938984e+15
3.40610556873501e+15
3.3977045015068e+15
3.3855284231374e+15
3.37784026652091e+15
3.36616419507066e+15
3.35919319935423e+15
3.34816451978186e+15
3.34163707241575e+15
3.33108136258057e+15
3.32478138148372e+15
3.31439876710257e+15
3.30827808116851e+15
3.29806127736452e+15
3.29206651069003e+15
3.28198199816609e+15
3.27611002403902e+15
3.26606016918229e+15
3.26040862169339e+15
3.25040618391565e+15
3.24506311360171e+15
3.23506313745517e+15
3.22996148304087e+15
3.21995330875507e+15
3.21499498114202e+15
3.2027088166433e+15
)
;

boundaryField
{
    electrode
    {
        type            driftDiffusionPositiveIonDensity;
        seec            0;
        fieldName       Arp1;
        value           uniform 5.96202641347326e+16;
    }
    ground
    {
        type            driftDiffusionPositiveIonDensity;
        seec            0;
        fieldName       Arp1;
        value           uniform 3.2027088166433e+15;
    }
    otherfaces
    {
        type            empty;
    }
}


// ************************************************************************* //
