/*--------------------------------*- C++ -*----------------------------------*\
| =========                 |                                                 |
| \\      /  F ield         | foam-extend: Open Source CFD                    |
|  \\    /   O peration     | Version:     4.0                                |
|   \\  /    A nd           | Web:         http://www.foam-extend.org         |
|    \\/     M anipulation  |                                                 |
\*---------------------------------------------------------------------------*/
FoamFile
{
    version     2.0;
    format      ascii;
    class       volScalarField;
    location    "2.3e-06";
    object      electron;
}
// * * * * * * * * * * * * * * * * * * * * * * * * * * * * * * * * * * * * * //

dimensions      [0 0 0 1 0 0 0];

internalField   nonuniform List<scalar> 
300
(
5.97347451610163e+16
5.97326135810188e+16
5.97276186186627e+16
5.971942255788e+16
5.97080555720273e+16
5.96935235384196e+16
5.96758268130123e+16
5.96549705305837e+16
5.96309604735796e+16
5.96038030449981e+16
5.95735055483633e+16
5.95400761187634e+16
5.95035237039936e+16
5.94638580623138e+16
5.94210897521968e+16
5.93752301209873e+16
5.93262912930218e+16
5.92742861565456e+16
5.9219228349435e+16
5.91611322437562e+16
5.91000129291084e+16
5.90358861947081e+16
5.89687685101952e+16
5.88986770051286e+16
5.88256294471229e+16
5.87496442186061e+16
5.86707402921764e+16
5.8588937204513e+16
5.85042550288206e+16
5.84167143457919e+16
5.83263362130561e+16
5.82331421330869e+16
5.81371540195663e+16
5.80383941621893e+16
5.79368851898823e+16
5.78326500324399e+16
5.77257118805686e+16
5.76160941443315e+16
5.7503820410011e+16
5.73889143953686e+16
5.72713999033177e+16
5.7151300774037e+16
5.70286408355135e+16
5.69034438525376e+16
5.67757334741842e+16
5.6645533179797e+16
5.65128662234971e+16
5.63777555772538e+16
5.62402238725501e+16
5.61002933406804e+16
5.59579857517278e+16
5.58133223522532e+16
5.5666323801756e+16
5.55170101079544e+16
5.5365400560934e+16
5.52115136662352e+16
5.50553670769349e+16
5.48969775247765e+16
5.47363607504364e+16
5.45735314329887e+16
5.4408503118633e+16
5.42412881487751e+16
5.40718975875462e+16
5.39003411488272e+16
5.37266271228795e+16
5.35507623026765e+16
5.33727519100123e+16
5.31925995215018e+16
5.30103069945666e+16
5.2825874393509e+16
5.26392999157844e+16
5.24505798185917e+16
5.22597083458812e+16
5.20666776559007e+16
5.18714777494157e+16
5.16740963987117e+16
5.14745190775188e+16
5.12727288919839e+16
5.10687065128285e+16
5.08624301088362e+16
5.06538752818028e+16
5.0443015003103e+16
5.02298195520261e+16
5.00142564560222e+16
4.9796290433022e+16
4.95758833359893e+16
4.93529940998735e+16
4.91275786911195e+16
4.88995900599038e+16
4.86689780952764e+16
4.84356895833778e+16
4.81996681689019e+16
4.79608543199911e+16
4.77191852967469e+16
4.74745951235282e+16
4.72270145652367e+16
4.69763711077639e+16
4.67225889427933e+16
4.64655889571538e+16
4.62052887269053e+16
4.59416025163542e+16
4.56744412821974e+16
4.5403712682975e+16
4.51293210940342e+16
4.48511676282016e+16
4.45691501623528e+16
4.42831633700729e+16
4.39930987606052e+16
4.36988447242804e+16
4.34002865846085e+16
4.30973066572294e+16
4.27897843158976e+16
4.24775960656774e+16
4.21606156235317e+16
4.18387140064779e+16
4.15117596274664e+16
4.11796183991436e+16
4.08421538456441e+16
4.04992272225455e+16
4.01506976451147e+16
3.97964222249456e+16
3.94362562150893e+16
3.90700531637467e+16
3.869766507657e+16
3.83189425876087e+16
3.79337351388948e+16
3.75418911686405e+16
3.71432583079824e+16
3.67376835861742e+16
3.63250136440907e+16
3.59050949558603e+16
3.54777740583989e+16
3.50428977885759e+16
3.46003135276919e+16
3.4149869452895e+16
3.36914147951253e+16
3.32248001031347e+16
3.27498775130896e+16
3.22665010232459e+16
3.17745267731877e+16
3.12738133271284e+16
3.07642219608413e+16
3.02456169518954e+16
2.97178658730453e+16
2.91808398888866e+16
2.86344140562931e+16
2.80784676297171e+16
2.75128843732214e+16
2.69375528822425e+16
2.63523669196117e+16
2.57572257724737e+16
2.51520346396615e+16
2.45367050630816e+16
2.39111554221607e+16
2.327531151769e+16
2.26291072822175e+16
2.19724856662486e+16
2.13053997672657e+16
2.06278142954538e+16
1.99397074482239e+16
1.9241073219981e+16
1.85319243973354e+16
1.78122944861174e+16
1.70822317263814e+16
1.63417972849216e+16
1.55909433004868e+16
1.48293733721865e+16
1.40566862116107e+16
1.32726497178032e+16
1.24772716349705e+16
1.16707886825164e+16
1.08537953685602e+16
1.00275363198099e+16
9.19436059293911e+15
8.35795469558349e+15
7.52346216911268e+15
6.69755634442848e+15
5.88827420530618e+15
5.10507576021866e+15
4.3584418201698e+15
3.65886695056013e+15
3.0161002134158e+15
2.4382505751926e+15
1.93096448882177e+15
1.4969104701668e+15
1.13543654386191e+15
842777180306520
612535307108035
436317270601754
305242003319618
210470673516072
143734697716170
97830554127085
66863259064416.9
45187475974818.5
29791907575847.1
19063023188010.2
11835931670442.8
7408587859514.41
4867972838074.35
3448944406798.58
2650118088170.18
2189964255680.64
1918363067039.8
1755084905381.11
1656328056214.22
1596965250161.3
1561858229519.93
1541716139955.14
1530645376055.98
1524703075916.78
1521162564438.8
1518219008121.05
1514721928716.12
1509905202226.58
1503282779300.16
1494566041137.1
1483610516313.94
1470377147734.01
1454902669832.24
1437280578425.86
1417618192076.56
1396038442780.39
1372714474690
1347848093585.89
1321650573403.04
1294334495328.48
1266106706815.96
1237164544471.26
1207693761823.25
1177867175484.61
1147843859202.33
1117768729632.99
1087772469885.84
1057971714411.58
1028469440296.63
999355507487.882
970707322662.644
942590599672.256
915060165987.631
888160821260.986
861928210898.797
836389905897.201
811566708340.895
787473314802.378
764118406929.156
741504783641.04
719630360013.906
698483785935.413
678048429338.989
658311519557.896
639261218736.325
620883728129.898
603163566785.533
586083816556.98
569626714998.197
553775028021.298
538507627852.623
523800505813.253
509634700474.761
495992339099.232
482853627167.546
470199116027.141
458009623451.252
446266459442.429
434951150575.957
424045762606.204
413526357630.54
403369096330.624
393557985654.216
384079183670.982
374920003683.95
366068558964.999
357513718619.176
349245099961.57
341253081890.588
333528817224.087
326064250330.938
318852148433.443
311886081622.95
305160526290.037
298669732689.912
292408400450.858
286346613537.648
280456870821.981
274744153358.364
269219451166.962
263895679319.223
258785732872.525
253866587064.374
249114499343.462
244558047779.803
240244177508.691
236166301706.136
232360305829.219
228918136985.472
225982486650.433
223840434948.046
222945916174.702
224137679015.86
)
;

boundaryField
{
    electrode
    {
        type            driftDiffusionElectronDensity;
        seec            0.05;
        Edepend         1;
        field_emission  0;
        field_enhancement_factor 55;
        work_function   5;
        value           uniform 5.97347451610163e+16;
    }
    ground
    {
        type            driftDiffusionElectronDensity;
        seec            0.05;
        Edepend         1;
        field_emission  0;
        field_enhancement_factor 55;
        work_function   5;
        value           uniform 226369780187.516;
    }
    otherfaces
    {
        type            empty;
    }
}


// ************************************************************************* //
