/*--------------------------------*- C++ -*----------------------------------*\
| =========                 |                                                 |
| \\      /  F ield         | foam-extend: Open Source CFD                    |
|  \\    /   O peration     | Version:     4.0                                |
|   \\  /    A nd           | Web:         http://www.foam-extend.org         |
|    \\/     M anipulation  |                                                 |
\*---------------------------------------------------------------------------*/
FoamFile
{
    version     2.0;
    format      ascii;
    class       volVectorField;
    location    "2.3e-06";
    object      J_Arp1;
}
// * * * * * * * * * * * * * * * * * * * * * * * * * * * * * * * * * * * * * //

dimensions      [1 -1 -1 0 0 0 0];

internalField   nonuniform List<vector> 
300
(
(1.69087643396228e+16 -0 -0)
(5.61558311434549e+16 -0 -0)
(9.81131196562909e+16 -0 -0)
(1.37017482950007e+17 -0 -0)
(1.75866513191767e+17 -0 -0)
(2.14854182477332e+17 -0 -0)
(2.53754346338349e+17 -0 -0)
(2.92571218563259e+17 -0 -0)
(3.3130679199033e+17 -0 -0)
(3.69947229208481e+17 -0 -0)
(4.08482172046684e+17 -0 -0)
(4.46901893631914e+17 -0 -0)
(4.85196421706076e+17 -0 -0)
(5.23355932174465e+17 -0 -0)
(5.61370758192243e+17 -0 -0)
(5.99231375606488e+17 -0 -0)
(6.36928421012299e+17 -0 -0)
(6.74452707125274e+17 -0 -0)
(7.1179523657322e+17 -0 -0)
(7.48947216020691e+17 -0 -0)
(7.85900071671392e+17 -0 -0)
(8.22645464346839e+17 -0 -0)
(8.59175305421821e+17 -0 -0)
(8.95481772669423e+17 -0 -0)
(9.31557327369649e+17 -0 -0)
(9.6739473065512e+17 -0 -0)
(1.00298706104191e+18 -0 -0)
(1.03832773189855e+18 -0 -0)
(1.07341050947206e+18 -0 -0)
(1.10822953069238e+18 -0 -0)
(1.1427793218668e+18 -0 -0)
(1.17705481728761e+18 -0 -0)
(1.21105137785689e+18 -0 -0)
(1.24476480997197e+18 -0 -0)
(1.27819138494569e+18 -0 -0)
(1.31132785765925e+18 -0 -0)
(1.34417148620185e+18 -0 -0)
(1.37672005072865e+18 -0 -0)
(1.408971872537e+18 -0 -0)
(1.44092583351223e+18 -0 -0)
(1.47258139476974e+18 -0 -0)
(1.50393861530588e+18 -0 -0)
(1.53499817095499e+18 -0 -0)
(1.56576137250359e+18 -0 -0)
(1.59623018370959e+18 -0 -0)
(1.62640723892323e+18 -0 -0)
(1.65629586070111e+18 -0 -0)
(1.68590007639614e+18 -0 -0)
(1.71522463490438e+18 -0 -0)
(1.74427502236849e+18 -0 -0)
(1.77305747772347e+18 -0 -0)
(1.80157900754026e+18 -0 -0)
(1.82984740013164e+18 -0 -0)
(1.85787123912508e+18 -0 -0)
(1.88565991643115e+18 -0 -0)
(1.91322364387306e+18 -0 -0)
(1.94057346495859e+18 -0 -0)
(1.96772126503179e+18 -0 -0)
(1.99467978079597e+18 -0 -0)
(2.02146260898527e+18 -0 -0)
(2.04808421418058e+18 -0 -0)
(2.07455993525331e+18 -0 -0)
(2.10090599093531e+18 -0 -0)
(2.12713948463077e+18 -0 -0)
(2.15327840735378e+18 -0 -0)
(2.17934164011642e+18 -0 -0)
(2.20534895492455e+18 -0 -0)
(2.23132101420732e+18 -0 -0)
(2.25727936939657e+18 -0 -0)
(2.28324645762335e+18 -0 -0)
(2.30924559751535e+18 -0 -0)
(2.33530098268581e+18 -0 -0)
(2.3614376749326e+18 -0 -0)
(2.38768159458146e+18 -0 -0)
(2.41405951004703e+18 -0 -0)
(2.44059902528879e+18 -0 -0)
(2.46732856564763e+18 -0 -0)
(2.49427736194816e+18 -0 -0)
(2.52147543254566e+18 -0 -0)
(2.54895356356237e+18 -0 -0)
(2.5767432873562e+18 -0 -0)
(2.60487685841937e+18 -0 -0)
(2.63338722771528e+18 -0 -0)
(2.66230801469801e+18 -0 -0)
(2.6916734769842e+18 -0 -0)
(2.72151847801281e+18 -0 -0)
(2.75187845196493e+18 -0 -0)
(2.78278936692471e+18 -0 -0)
(2.8142876850178e+18 -0 -0)
(2.84641032042125e+18 -0 -0)
(2.87919459450628e+18 -0 -0)
(2.91267818894704e+18 -0 -0)
(2.94689909541059e+18 -0 -0)
(2.98189556315855e+18 -0 -0)
(3.01770604360777e+18 -0 -0)
(3.05436913201332e+18 -0 -0)
(3.09192350659378e+18 -0 -0)
(3.13040786441254e+18 -0 -0)
(3.1698608543527e+18 -0 -0)
(3.21032100731344e+18 -0 -0)
(3.2518266630261e+18 -0 -0)
(3.29441589384596e+18 -0 -0)
(3.33812642568125e+18 -0 -0)
(3.38299555518508e+18 -0 -0)
(3.42906006416807e+18 -0 -0)
(3.47635613029818e+18 -0 -0)
(3.52491923493675e+18 -0 -0)
(3.57478406694461e+18 -0 -0)
(3.62598442364631e+18 -0 -0)
(3.6785531079337e+18 -0 -0)
(3.7325218219679e+18 -0 -0)
(3.7879210574051e+18 -0 -0)
(3.84477998220655e+18 -0 -0)
(3.90312632343279e+18 -0 -0)
(3.96298624653346e+18 -0 -0)
(4.02438423121846e+18 -0 -0)
(4.08734294322159e+18 -0 -0)
(4.15188310277484e+18 -0 -0)
(4.21802334910239e+18 -0 -0)
(4.28578010141396e+18 -0 -0)
(4.35516741620096e+18 -0 -0)
(4.42619684075422e+18 -0 -0)
(4.49887726326079e+18 -0 -0)
(4.5732147593054e+18 -0 -0)
(4.64921243476444e+18 -0 -0)
(4.7268702655081e+18 -0 -0)
(4.80618493338879e+18 -0 -0)
(4.88714965956077e+18 -0 -0)
(4.96975403399701e+18 -0 -0)
(5.05398384243811e+18 -0 -0)
(5.13982089018219e+18 -0 -0)
(5.22724282319626e+18 -0 -0)
(5.31622294610192e+18 -0 -0)
(5.4067300380189e+18 -0 -0)
(5.49872816533816e+18 -0 -0)
(5.59217649203347e+18 -0 -0)
(5.6870290872045e+18 -0 -0)
(5.78323472986871e+18 -0 -0)
(5.88073671058361e+18 -0 -0)
(5.97947262968138e+18 -0 -0)
(6.07937419177499e+18 -0 -0)
(6.18036699556987e+18 -0 -0)
(6.28237031837258e+18 -0 -0)
(6.38529689400638e+18 -0 -0)
(6.48905268337536e+18 -0 -0)
(6.59353663516731e+18 -0 -0)
(6.69864043581672e+18 -0 -0)
(6.80424824593857e+18 -0 -0)
(6.91023642103971e+18 -0 -0)
(7.01647321414406e+18 -0 -0)
(7.12281845768814e+18 -0 -0)
(7.22912322257437e+18 -0 -0)
(7.33522945213432e+18 -0 -0)
(7.44096956672824e+18 -0 -0)
(7.54616607066725e+18 -0 -0)
(7.65063103893958e+18 -0 -0)
(7.75416584975905e+18 -0 -0)
(7.8565606470288e+18 -0 -0)
(7.9575930728082e+18 -0 -0)
(8.05703114721605e+18 -0 -0)
(8.15463858791597e+18 -0 -0)
(8.25011507956321e+18 -0 -0)
(8.34323856466426e+18 -0 -0)
(8.43426213500619e+18 -0 -0)
(8.52043364501377e+18 -0 -0)
(8.60536590375705e+18 -0 -0)
(8.68269309766345e+18 -0 -0)
(8.75795445724268e+18 -0 -0)
(8.82867014593389e+18 -0 -0)
(8.89724869779375e+18 -0 -0)
(8.95758289880007e+18 -0 -0)
(9.01408593179828e+18 -0 -0)
(9.06898087541871e+18 -0 -0)
(9.12277257805854e+18 -0 -0)
(9.16051491420775e+18 -0 -0)
(9.1919108117033e+18 -0 -0)
(9.25097818380252e+18 -0 -0)
(9.26659457810063e+18 -0 -0)
(9.30151932096096e+18 -0 -0)
(9.32525514489836e+18 -0 -0)
(9.34595163889383e+18 -0 -0)
(9.37039259747849e+18 -0 -0)
(9.38570922896144e+18 -0 -0)
(9.39159189468789e+18 -0 -0)
(9.42186241446065e+18 -0 -0)
(9.4200859233559e+18 -0 -0)
(9.44296712460878e+18 -0 -0)
(9.4431406907262e+18 -0 -0)
(9.46583555667533e+18 -0 -0)
(9.4609912204821e+18 -0 -0)
(9.47838921938963e+18 -0 -0)
(9.47812980073421e+18 -0 -0)
(9.49420449610246e+18 -0 -0)
(9.51580761149702e+18 -0 -0)
(9.60652096699276e+18 -0 -0)
(9.78966413618762e+18 -0 -0)
(1.0028398932015e+19 -0 -0)
(1.02467281009227e+19 -0 -0)
(1.04376130180838e+19 -0 -0)
(1.05948531633372e+19 -0 -0)
(1.07160565039531e+19 -0 -0)
(1.08114602832695e+19 -0 -0)
(1.08951976100261e+19 -0 -0)
(1.09693183826076e+19 -0 -0)
(1.10384749045613e+19 -0 -0)
(1.11038008744918e+19 -0 -0)
(1.11692732293317e+19 -0 -0)
(1.12335600282497e+19 -0 -0)
(1.12985880083021e+19 -0 -0)
(1.13628434149343e+19 -0 -0)
(1.14278645955465e+19 -0 -0)
(1.1490771247825e+19 -0 -0)
(1.15560010613431e+19 -0 -0)
(1.16187003116344e+19 -0 -0)
(1.16833846547711e+19 -0 -0)
(1.1746257319004e+19 -0 -0)
(1.18108400779503e+19 -0 -0)
(1.18739060237425e+19 -0 -0)
(1.19387507844995e+19 -0 -0)
(1.20015646499452e+19 -0 -0)
(1.20658786509152e+19 -0 -0)
(1.21277063958884e+19 -0 -0)
(1.21905609742695e+19 -0 -0)
(1.22510787175328e+19 -0 -0)
(1.23123007648613e+19 -0 -0)
(1.23717458602781e+19 -0 -0)
(1.24318566301679e+19 -0 -0)
(1.24896693685938e+19 -0 -0)
(1.25479347965969e+19 -0 -0)
(1.26039420456463e+19 -0 -0)
(1.26604754377339e+19 -0 -0)
(1.27145754185105e+19 -0 -0)
(1.27696368694181e+19 -0 -0)
(1.28217026919025e+19 -0 -0)
(1.28750207617082e+19 -0 -0)
(1.29247018407394e+19 -0 -0)
(1.29763341897704e+19 -0 -0)
(1.30235487023894e+19 -0 -0)
(1.30729941705145e+19 -0 -0)
(1.31176777858931e+19 -0 -0)
(1.3164559189229e+19 -0 -0)
(1.3206763531083e+19 -0 -0)
(1.32512124359205e+19 -0 -0)
(1.32906744046901e+19 -0 -0)
(1.33336472558028e+19 -0 -0)
(1.33705311124925e+19 -0 -0)
(1.3411922527652e+19 -0 -0)
(1.34466992847544e+19 -0 -0)
(1.3486024158972e+19 -0 -0)
(1.35194108148131e+19 -0 -0)
(1.35571001222391e+19 -0 -0)
(1.35888312393483e+19 -0 -0)
(1.36254795244324e+19 -0 -0)
(1.3655294032859e+19 -0 -0)
(1.36913591886781e+19 -0 -0)
(1.3719015975893e+19 -0 -0)
(1.37540530438336e+19 -0 -0)
(1.3779464409571e+19 -0 -0)
(1.38125207247422e+19 -0 -0)
(1.38358817296252e+19 -0 -0)
(1.38669353399266e+19 -0 -0)
(1.38886720360964e+19 -0 -0)
(1.39188072244991e+19 -0 -0)
(1.39393274788999e+19 -0 -0)
(1.39694301211629e+19 -0 -0)
(1.39887678101643e+19 -0 -0)
(1.40193684865001e+19 -0 -0)
(1.40373553779049e+19 -0 -0)
(1.40683169330963e+19 -0 -0)
(1.40856700852792e+19 -0 -0)
(1.41161760827877e+19 -0 -0)
(1.41323137919834e+19 -0 -0)
(1.41615939794135e+19 -0 -0)
(1.4175625741156e+19 -0 -0)
(1.4203465070422e+19 -0 -0)
(1.42151105748026e+19 -0 -0)
(1.42423230224911e+19 -0 -0)
(1.42523110375117e+19 -0 -0)
(1.42798305344896e+19 -0 -0)
(1.42891568520995e+19 -0 -0)
(1.43171565359656e+19 -0 -0)
(1.43265956248899e+19 -0 -0)
(1.43540516655646e+19 -0 -0)
(1.43629885677773e+19 -0 -0)
(1.43890763653544e+19 -0 -0)
(1.43963137715131e+19 -0 -0)
(1.4420897906516e+19 -0 -0)
(1.44264789880469e+19 -0 -0)
(1.44493943587219e+19 -0 -0)
(1.44532413049744e+19 -0 -0)
(1.44745359212411e+19 -0 -0)
(1.44762799322395e+19 -0 -0)
(1.44964445355301e+19 -0 -0)
(1.44962006859844e+19 -0 -0)
(1.4515693355513e+19 -0 -0)
(1.45133203020598e+19 -0 -0)
(1.45319054341857e+19 -0 -0)
(1.45274078707688e+19 -0 -0)
(1.45447134677392e+19 -0 -0)
(1.45278014951202e+19 -0 -0)
)
;

boundaryField
{
    electrode
    {
        type            calculated;
        value           uniform (154196807914.531 -0 -0);
    }
    ground
    {
        type            calculated;
        value           uniform (1.45467791160902e+19 -0 -0);
    }
    otherfaces
    {
        type            empty;
    }
}


// ************************************************************************* //
