/*--------------------------------*- C++ -*----------------------------------*\
| =========                 |                                                 |
| \\      /  F ield         | foam-extend: Open Source CFD                    |
|  \\    /   O peration     | Version:     4.0                                |
|   \\  /    A nd           | Web:         http://www.foam-extend.org         |
|    \\/     M anipulation  |                                                 |
\*---------------------------------------------------------------------------*/
FoamFile
{
    version     2.0;
    format      ascii;
    class       volScalarField;
    location    "2.3e-06";
    object      N_electronMean;
}
// * * * * * * * * * * * * * * * * * * * * * * * * * * * * * * * * * * * * * //

dimensions      [0 0 0 1 0 0 0];

internalField   nonuniform List<scalar> 
300
(
6.05966991702921e+16
6.05955074229391e+16
6.05916668328923e+16
6.05845265664975e+16
6.05740954635686e+16
6.05603032411913e+16
6.05431006721656e+16
6.0522453805162e+16
6.04983330870471e+16
6.04707154333039e+16
6.04395832475361e+16
6.04049239517574e+16
6.03667295570149e+16
6.0324996261203e+16
6.02797241704083e+16
6.02309170214657e+16
6.0178581950652e+16
6.01227292982346e+16
6.00633724200775e+16
6.00005275115679e+16
5.99342134554058e+16
5.98644516797851e+16
5.97912660234342e+16
5.97146825979574e+16
5.96347296950456e+16
5.95514377202975e+16
5.94648390508718e+16
5.93749678950965e+16
5.92818601842276e+16
5.91855534172226e+16
5.90860865720631e+16
5.89835001059459e+16
5.88778358196174e+16
5.87691366196477e+16
5.86574463582474e+16
5.85428097131633e+16
5.84252720710343e+16
5.83048794246832e+16
5.81816782582415e+16
5.80557154307507e+16
5.79270380883972e+16
5.77956935738704e+16
5.76617293101539e+16
5.75251926971241e+16
5.73861310275729e+16
5.72445914066598e+16
5.71006206797921e+16
5.69542653732373e+16
5.68055716582968e+16
5.66545853385785e+16
5.65013518913666e+16
5.63459165111424e+16
5.61883240668774e+16
5.60286189866283e+16
5.58668450743096e+16
5.57030453196008e+16
5.55372617398665e+16
5.53695352634155e+16
5.51999056479016e+16
5.50284114018956e+16
5.48550897180755e+16
5.46799764135876e+16
5.45031058596566e+16
5.43245109921969e+16
5.41442234196368e+16
5.39622733534054e+16
5.37786893721674e+16
5.35934982907394e+16
5.3406725108457e+16
5.32183929540441e+16
5.30285230277739e+16
5.28371345853246e+16
5.26442450022622e+16
5.24498697490352e+16
5.22540222627567e+16
5.2056713964808e+16
5.18579543315084e+16
5.16577508309819e+16
5.14561087334133e+16
5.1253030993805e+16
5.10485182379695e+16
5.08425685589995e+16
5.0635177318819e+16
5.04263370761863e+16
5.02160375486983e+16
5.00042656341999e+16
4.97910053074682e+16
4.95762374135742e+16
4.93599395631185e+16
4.91420861013814e+16
4.89226480076095e+16
4.87015929082533e+16
4.84788851195168e+16
4.82544853781352e+16
4.80283505829627e+16
4.780043369777e+16
4.75706836487455e+16
4.73390452205582e+16
4.7105458950095e+16
4.68698610499851e+16
4.66321833262569e+16
4.63923530292814e+16
4.61502927977003e+16
4.59059206597323e+16
4.5659149854438e+16
4.54098886891381e+16
4.51580404615712e+16
4.49035033419028e+16
4.46461703038038e+16
4.43859289733159e+16
4.41226614466984e+16
4.38562441772433e+16
4.3586547894252e+16
4.33134375726498e+16
4.30367723507675e+16
4.27564054472761e+16
4.24721842220562e+16
4.21839501493422e+16
4.18915386018162e+16
4.15947786622994e+16
4.12934931076607e+16
4.09874984502862e+16
4.06766049559708e+16
4.03606166937513e+16
4.00393314094953e+16
3.97125402770934e+16
3.93800278451633e+16
3.90415720671423e+16
3.86969442253292e+16
3.83459088914722e+16
3.79882239760207e+16
3.76236407821058e+16
3.72519040372264e+16
3.68727519278202e+16
3.64859163324947e+16
3.60911231301627e+16
3.5688092208033e+16
3.52765374189976e+16
3.48561668204197e+16
3.44266829354065e+16
3.39877828262255e+16
3.35391582023664e+16
3.30804956690705e+16
3.26114770536368e+16
3.21317798855904e+16
3.16410778328005e+16
3.11390409055045e+16
3.06253356401246e+16
3.00996253049207e+16
2.95615703399485e+16
2.90108290271599e+16
2.84470578910085e+16
2.78699121740996e+16
2.72790464930295e+16
2.66741152801743e+16
2.60547733947224e+16
2.54206770172853e+16
2.47714845821964e+16
2.41068576129257e+16
2.34264616985842e+16
2.27299678337913e+16
2.20170534002231e+16
2.12874027273634e+16
2.05407071090589e+16
1.97766607798134e+16
1.89949449066916e+16
1.81951965210964e+16
1.73769844810276e+16
1.65398166940562e+16
1.5683180294008e+16
1.48065986635565e+16
1.39097127503281e+16
1.29924946778282e+16
1.20556177645971e+16
1.11008426671788e+16
1.01313739812067e+16
9.15230729493308e+15
8.17105832729244e+15
7.19751097387533e+15
6.24391148087838e+15
5.3244082310077e+15
4.4541897875655e+15
3.64828205576689e+15
2.92006215614934e+15
2.27980516873727e+15
1.7334846725873e+15
1.28208699861213e+15
921637540456928
643884875240739
437554622970865
289843004987854
187889221190887
119949855995843
76194140841178.4
48352888693819.1
30692835682418.4
19581460449077.4
12729930895231.5
8650095343209.83
6269557117190.74
4908039948421.97
4140037038116.31
3693093106676.58
3413282172669.62
3223094157307.46
3083731509550.55
2974897777869.95
2885218452788.11
2807925827823.48
2738741748480.55
2674947782438.8
2614741554886.1
2556910178689.78
2500609584066.37
2445262738713
2390473089299.21
2335980847272.39
2281626213917.79
2227321739173.46
2173035848342.37
2118777958849.36
2064565459867.81
2010440973592.41
1956482309387.48
1902781817077.95
1849439342020.15
1796557064224.18
1744234026644.67
1692564761825.9
1641637001056.04
1591530276686.79
1542317088631.15
1494060399352.53
1446814539929.79
1400626090413.39
1355533036885.91
1311564905047.51
1268744874485.85
1227088189962.43
1186603672421.42
1147295158425.93
1109160556768.93
1072194364792.61
1036386965181.55
1001724912459.73
968191609567.788
935765195025.886
904421159660.192
874134061673.197
844878800249.229
816630382993.568
789362351114.918
763047557541.882
737657808629.651
713165021387.945
689541591348.489
666760926610.664
644795128578.156
623614802914.537
603193709593.257
583507463767.168
564530331572.534
546237206478.951
528602965197.374
511603250163.927
495215086366.831
479416413626.325
464185952631.726
449501635823.701
435340960871.788
421681736401.187
408504306332.286
395791378942.206
383527673894.354
371698785471.487
360291200013.729
349292049361.917
338688796545.077
328469861884.181
318624648460.13
309143192160.546
300014889569.462
291229660884.032
282769803041.11
274610917251.984
266742408332.436
259166619321.933
251886920910.723
244906882119.902
238214506006.256
231789719196.447
225639366359.051
219793140073.161
214248439981.68
209025420787.453
204187949020.083
199833195968.124
196160558829.469
193498319753.283
192433205237.57
)
;

boundaryField
{
    electrode
    {
        type            calculated;
        value           uniform 6.05966991708048e+16;
    }
    ground
    {
        type            calculated;
        value           uniform 193125690697.883;
    }
    otherfaces
    {
        type            empty;
    }
}


// ************************************************************************* //
