/*--------------------------------*- C++ -*----------------------------------*\
| =========                 |                                                 |
| \\      /  F ield         | foam-extend: Open Source CFD                    |
|  \\    /   O peration     | Version:     4.0                                |
|   \\  /    A nd           | Web:         http://www.foam-extend.org         |
|    \\/     M anipulation  |                                                 |
\*---------------------------------------------------------------------------*/
FoamFile
{
    version     2.0;
    format      ascii;
    class       volScalarField;
    location    "2.3e-06";
    object      Phi;
}
// * * * * * * * * * * * * * * * * * * * * * * * * * * * * * * * * * * * * * //

dimensions      [0 0 0 1 0 0 0];

internalField   nonuniform List<scalar> 
300
(
699.999953413297
699.999754113308
699.999326127925
699.998673081785
699.997804622894
699.996719509218
699.995417628516
699.993899250895
699.992164511948
699.990213575977
699.988046641286
699.985663926556
699.983065672762
699.980252143478
699.97722362423
699.973980422095
699.970522865258
699.966851302493
699.962966102581
699.958867653676
699.954556362598
699.950032654058
699.945296969808
699.940349767714
699.935191520748
699.929822715887
699.924243852928
699.918455443205
699.912458008202
699.906252078068
699.899838190016
699.893216886614
699.886388713956
699.879354219706
699.87211395102
699.864668452336
699.85701826302
699.849163914884
699.841105929545
699.832844815644
699.824381065907
699.815715154049
699.806847531514
699.797778624048
699.788508828103
699.779038507066
699.769367987306
699.759497554041
699.749427447014
699.739157855985
699.728688916022
699.718020702595
699.707153226467
699.696086428383
699.684820173539
699.673354245855
699.661688342007
699.64982206526
699.637754919062
699.625486300416
699.613015493017
699.600341660151
699.587463837357
699.574380924847
699.561091679668
699.547594707619
699.533888454912
699.519971199564
699.505841042529
699.491495898555
699.476933486761
699.46215132094
699.447146699561
699.431916695487
699.416458145383
699.400767638814
699.384841507028
699.368675811409
699.352266331594
699.335608553243
699.318697655445
699.301528497762
699.284095606874
699.266393162839
699.248414984919
699.230154516982
699.211604812447
699.192758518744
699.173607861281
699.154144626877
699.134360146641
699.114245278258
699.093790387653
699.072985329988
699.05181942996
699.030281461342
699.008359625719
698.986041530366
698.963314165212
698.940163878807
698.916576353229
698.892536577854
698.868028821888
698.843036605573
698.817542669957
698.791528945111
698.764976516665
698.737865590523
698.710175455599
698.681884444408
698.652969891319
698.623408088274
698.593174237736
698.562242402616
698.530585452911
698.498175008748
698.464981379491
698.430973498534
698.396118853391
698.360383410587
698.323731534879
698.286125902212
698.247527405787
698.207895054535
698.167185863211
698.12535473321
698.082354323124
698.038134907918
697.992644225454
697.945827308966
697.897626303853
697.847980266977
697.796824946394
697.744092539162
697.689711424527
697.633605869415
697.5756957027
697.515895954193
697.454116453678
697.390261384601
697.324228786161
697.255909996537
697.185189028813
697.111941869708
697.036035689556
696.957327949943
696.875665392967
696.790882893189
696.702802149792
696.611230192193
696.515957667158
696.416756869138
696.313379467809
696.205553877299
696.092982199956
695.975336663064
695.852255449872
695.723337801625
695.588138246468
695.44615977336
695.296845667873
695.139569808123
694.973625389976
694.79820811115
694.612399058795
694.415143993288
694.205088241169
693.980553916719
693.739640993534
693.480163623293
693.199488731258
692.894501996718
692.561508879361
692.196366214675
691.794567606624
691.350941814402
690.860108322425
690.31591749197
689.711964098703
689.04235856073
688.300738105614
687.48113883032
686.578237213842
685.586821373319
684.503281180714
683.324407664372
682.047723565757
680.671986787567
679.196932189258
677.622458155661
675.948952233493
674.177737040016
672.310428855101
670.348642123863
668.293323379454
666.145168157739
663.904407187031
661.570658907623
659.143857800837
656.623995937007
654.011277045261
651.306096467563
648.508943506576
645.620820832575
642.642715163388
639.575531754413
636.420094691628
633.177124586433
629.847258075827
626.431040192626
622.928942388232
619.341357096321
615.668834697806
611.912024030768
608.071530133807
604.147886774523
600.141587795311
596.053065773571
591.882717829041
587.630885635666
583.297884004136
578.883978995184
574.389416600391
569.814400858872
565.159117877175
560.423836805786
555.608956357644
550.714840815752
545.741840887477
540.690277552919
535.560460311492
530.352670920128
525.067182678552
519.704240551264
514.264086068863
508.746932430221
503.152994492225
497.48245612445
491.735508468652
485.912311333729
480.013034561726
474.037817966272
467.986811660278
461.860213266703
455.658341250441
449.381478172753
443.029925569944
436.603945084351
430.103820836748
423.529798094626
416.882141366951
410.161078849294
403.366858518055
396.499689806877
389.559806998971
382.547399744981
375.462691170007
368.305854756284
361.077104002624
353.776602248074
346.404553215326
338.96111107438
331.446468420898
323.860765497086
316.20418254445
308.476842240001
300.67891313233
292.81049859279
284.871807819378
276.863049735055
268.784492758493
260.636332214194
252.418826559092
244.132162251986
235.776592860882
227.352297664181
218.859527251631
210.298450379421
201.669311704067
192.972265664565
184.207546875084
175.375295368034
166.475732748011
157.508990134888
148.475279621964
139.374727761624
130.207543173618
120.973848806927
111.673849958942
102.307667056966
92.8755027426054
83.3774749805673
73.813785731284
64.1845485347145
54.4899644100367
44.7301407150979
34.9052784332647
25.015480127292
15.06094698341
5.04177842455412
)
;

boundaryField
{
    electrode
    {
        type            fixedValue;
        value           uniform 700;
    }
    ground
    {
        type            fixedValue;
        value           uniform 0;
    }
    otherfaces
    {
        type            empty;
    }
}


// ************************************************************************* //
