/*--------------------------------*- C++ -*----------------------------------*\
| =========                 |                                                 |
| \\      /  F ield         | foam-extend: Open Source CFD                    |
|  \\    /   O peration     | Version:     4.0                                |
|   \\  /    A nd           | Web:         http://www.foam-extend.org         |
|    \\/     M anipulation  |                                                 |
\*---------------------------------------------------------------------------*/
FoamFile
{
    version     2.0;
    format      ascii;
    class       volScalarField;
    location    "2.3e-06";
    object      PhiMean;
}
// * * * * * * * * * * * * * * * * * * * * * * * * * * * * * * * * * * * * * //

dimensions      [0 0 0 1 0 0 0];

internalField   nonuniform List<scalar> 
300
(
699.968087657489
699.965210410948
699.962088087216
699.958737189221
699.955167005693
699.951367384239
699.947335614998
699.943068953851
699.938564935135
699.933821666511
699.928837597319
699.923611551967
699.918142648069
699.912430276313
699.906474074824
699.900273903812
699.893829825673
699.887142092084
699.880211127515
699.873037513731
699.865621979798
699.857965391305
699.850068740865
699.841933138341
699.833559799947
699.824950064792
699.816105369862
699.807027242423
699.797717299562
699.788177230473
699.778408784226
699.768413801461
699.758194197967
699.747751930405
699.737088991349
699.726207402437
699.715109206286
699.703796464625
699.692271250159
699.680535636794
699.668591697334
699.656441501794
699.644087104544
699.631530539531
699.618773815731
699.605818912551
699.592667775398
699.579322313899
699.565784400206
699.552055875749
699.538138555315
699.52403425669
699.509744782565
699.495271928442
699.480617446888
699.465783036284
699.450770317486
699.435580827071
699.420216012361
699.404677223981
699.388965712149
699.3730826216
699.357028984805
699.340805714567
699.324413649549
699.307853545994
699.291126022389
699.274231555633
699.257170477135
699.239942966626
699.22254904598
699.204988570094
699.187261250242
699.16936665775
699.151304181483
699.133073043403
699.114672325561
699.096100947043
699.077357651778
699.058440952713
699.039349199004
699.02008049441
699.000632680862
698.981003336595
698.961189754868
698.941188973782
698.920997751325
698.900612521214
698.880029377398
698.8592440822
698.838252039735
698.817048275663
698.795627512513
698.773984056147
698.752111768806
698.730004055552
698.707653839521
698.685053545295
698.662195067177
698.639069756216
698.615668400654
698.591981186794
698.567997659492
698.543706761657
698.519096743157
698.494155134155
698.468868732896
698.443223534675
698.417204736222
698.390796666331
698.363982726278
698.336745350246
698.309065949228
698.280924881008
698.252301399531
698.223173571082
698.193518267978
698.163311122365
698.132526404283
698.101136931578
698.069113988185
698.036427294736
698.003044881677
697.968933064036
697.93405629608
697.898377005511
697.861855466159
697.824449711392
697.786115339079
697.746805363238
697.706470047213
697.665056730777
697.622509622055
697.578769562757
697.533773806248
697.487455864103
697.439745147028
697.390566600403
697.339840390089
697.28748156758
697.233399581579
697.177497786255
697.119672919546
697.059814515864
696.997804291221
696.933515468615
696.866811854057
696.797546882441
696.725562478919
696.65068780233
696.572737988045
696.491512451301
696.406792985856
696.318341758997
696.225898649861
696.129178376161
696.027867117321
695.921618530695
695.810048960597
695.692731659667
695.569190140237
695.438889876818
695.301227959664
695.155520829963
695.000988470921
694.836731980028
694.66169771433
694.474630542722
694.274029785562
694.058099178891
693.824687038074
693.571192342825
693.294472080395
692.99082192362
692.655935830659
692.284817115016
691.871737979982
691.410383308821
690.893824453411
690.314656504598
689.665214613764
688.937655165945
688.124454252102
687.218460961447
686.213284279538
685.103585627807
683.885080052069
682.554721260172
681.110703779195
679.552279136614
677.87961203948
676.093424561863
674.19518079689
672.18684790065
670.070182405574
667.846769298241
665.51778151209
663.084282157569
660.547357249683
657.908020516909
655.167304723737
652.326231284341
649.385831901626
646.347296933138
643.21197738074
639.981116936608
636.655869913296
633.237289806886
629.726359741507
626.123976878754
622.430985874028
618.648159976163
614.776321211914
610.816412694938
606.769328315095
602.635896301235
598.416907821689
594.113097914997
589.725174729663
585.253797997241
580.699609237112
576.063208260832
571.345184383888
566.546092493678
561.666486396752
556.706975638351
551.668247196175
546.550950280371
541.355725036999
536.083176674387
530.733905149162
525.308477578427
519.807461701608
514.23140067984
508.580842489547
502.856308347023
497.058326174767
491.187397757605
485.244034202274
479.228721494652
473.141958034618
466.984219534515
460.756003659626
454.457857385207
448.090369043309
441.654083811785
435.149567831144
428.577343511314
421.937956622647
415.231908284839
408.459725573109
401.621889550183
394.718910156758
387.75124938052
380.719401441949
373.623810156436
366.464955218518
359.243263150374
351.959200055559
344.613176116419
337.205644546434
329.73700005603
322.207683765545
314.618075340611
306.968604639037
299.259645922093
291.491642735284
283.664982619854
275.780169093907
267.837618289821
259.837831587859
251.781209064384
243.668241941974
235.499314414951
227.274908236683
218.995392014836
210.661238673303
202.27280161581
193.830545551369
185.334809126022
176.786049456649
168.184590773504
159.53088328135
150.825237130141
142.068096349751
133.259757369881
124.400658665594
115.491083155206
106.531464308759
97.5220717355322
88.4633343618285
79.3555088674358
70.1990203106093
60.994112694203
51.7412076434519
42.4405369364004
33.0925196392381
23.69737562488
14.2555225385078
4.76716894374319
)
;

boundaryField
{
    electrode
    {
        type            calculated;
        value           uniform 700.0000000002;
    }
    ground
    {
        type            calculated;
        value           uniform 0;
    }
    otherfaces
    {
        type            empty;
    }
}


// ************************************************************************* //
