/*--------------------------------*- C++ -*----------------------------------*\
| =========                 |                                                 |
| \\      /  F ield         | foam-extend: Open Source CFD                    |
|  \\    /   O peration     | Version:     4.0                                |
|   \\  /    A nd           | Web:         http://www.foam-extend.org         |
|    \\/     M anipulation  |                                                 |
\*---------------------------------------------------------------------------*/
FoamFile
{
    version     2.0;
    format      ascii;
    class       volScalarField;
    location    "2.3e-06";
    object      Sy_electron;
}
// * * * * * * * * * * * * * * * * * * * * * * * * * * * * * * * * * * * * * //

dimensions      [1 -3 -1 0 0 0 0];

internalField   nonuniform List<scalar> 
300
(
1.96053664047007e-13
1.96113136574278e-13
1.96147584648703e-13
1.96156409724874e-13
1.96167443992968e-13
1.96179472124541e-13
1.96191838713824e-13
1.96204891737914e-13
1.96218682857808e-13
1.96233237108134e-13
1.96248595185064e-13
1.96264793541089e-13
1.96281866019087e-13
1.96299846651279e-13
1.96318769704665e-13
1.96338670050869e-13
1.96359578030181e-13
1.96381533150187e-13
1.9640457668569e-13
1.96428748704345e-13
1.9645409094257e-13
1.96480646763958e-13
1.96508461212856e-13
1.96537580996324e-13
1.96568025525504e-13
1.96599867896345e-13
1.96633157563056e-13
1.96667942832322e-13
1.96704294779378e-13
1.96742270479366e-13
1.96781895150981e-13
1.96823241018615e-13
1.96866393835153e-13
1.96911417899787e-13
1.96958378408565e-13
1.9700734137501e-13
1.97058365787768e-13
1.97111523099342e-13
1.97166886738622e-13
1.97224524766593e-13
1.97284506011664e-13
1.9734690312953e-13
1.9741178686712e-13
1.97479228077549e-13
1.97549297579066e-13
1.97622065938098e-13
1.97697599683652e-13
1.97775966130558e-13
1.97857216299933e-13
1.97941411941461e-13
1.98028594797944e-13
1.98118849346856e-13
1.98212227974361e-13
1.98308821647986e-13
1.9840870314235e-13
1.98511957554078e-13
1.98618645552868e-13
1.98728825005975e-13
1.98842550781139e-13
1.98959871427176e-13
1.9908083916664e-13
1.99205499274379e-13
1.99333884425582e-13
1.99465999132406e-13
1.99601880735852e-13
1.99741598065196e-13
1.99885175794779e-13
2.00032633163688e-13
2.00183983582637e-13
2.00339234333619e-13
2.00498382971459e-13
2.00661410269408e-13
2.00828299413826e-13
2.0099904098939e-13
2.01173583683916e-13
2.01351891973162e-13
2.01533930283159e-13
2.01719637037951e-13
2.01908980060535e-13
2.02101835941674e-13
2.02298175399589e-13
2.02497905916314e-13
2.02700915337892e-13
2.02907088127008e-13
2.03116269303965e-13
2.03328326585611e-13
2.03543120145474e-13
2.03760478057405e-13
2.03980194634322e-13
2.04202079613502e-13
2.04425905417256e-13
2.04651367732425e-13
2.04878300075099e-13
2.05106434763648e-13
2.05335483212686e-13
2.05565137622221e-13
2.05795069911165e-13
2.06024931078501e-13
2.06254334955913e-13
2.06482889823861e-13
2.06710190562373e-13
2.06935800943925e-13
2.07159211129591e-13
2.07379977127144e-13
2.07597571510073e-13
2.07811440029996e-13
2.08021036690424e-13
2.08127494782448e-13
2.07868683963807e-13
2.07597119911116e-13
2.07312056612097e-13
2.07012718318159e-13
2.06698291673675e-13
2.06367940948315e-13
2.06020799395371e-13
2.05655946727571e-13
2.05272428896087e-13
2.04869320849108e-13
2.04445629775882e-13
2.04000316168487e-13
2.03532280243971e-13
2.03040441911028e-13
2.0252362648287e-13
2.01980677266005e-13
2.01410401127072e-13
2.00811547842724e-13
2.0018279297073e-13
1.99522834706732e-13
1.98830292183582e-13
1.98103755388338e-13
1.97341754083029e-13
1.96542791178054e-13
1.95705324424471e-13
1.94827739234429e-13
1.93908362330053e-13
1.92945546920325e-13
1.91937578551454e-13
1.90882656337772e-13
1.89778937848869e-13
1.8862456550817e-13
1.87417596604332e-13
1.86156033650257e-13
1.84837804033959e-13
1.83460778245251e-13
1.82022777134033e-13
1.80521615351665e-13
1.78955000133803e-13
1.77320570833082e-13
1.75615880954134e-13
1.73838390811695e-13
1.71985560838166e-13
1.70054728787534e-13
1.68043107639711e-13
1.65947899343143e-13
1.63766197705983e-13
1.61494969236619e-13
1.59131094630479e-13
1.56671406065007e-13
1.54112619542877e-13
1.51451342684438e-13
1.48684111774961e-13
1.45807650635086e-13
1.42819741268341e-13
1.39717987438198e-13
1.36515242140854e-13
1.33229892385658e-13
1.29842253100184e-13
1.26310701388672e-13
1.22620928923622e-13
1.18774105289855e-13
1.14754431700308e-13
1.10523130649725e-13
1.06015130134998e-13
1.01198427029042e-13
9.60714026140558e-14
9.06450864892729e-14
8.49873952669558e-14
7.91378530271805e-14
7.32137038721565e-14
6.75043237186782e-14
6.23011067540126e-14
5.79889398350504e-14
5.51269316202146e-14
5.45292625096203e-14
5.78109703254015e-14
6.86191694243127e-14
9.13491119730654e-14
1.31844767045938e-13
2.55791965214708e-13
6.12959604760784e-13
2.20986106287211e-12
3.25468615569116e-11
3.46204610143301e-10
1.42242504575277e-09
3.62270064911955e-09
5.49365832877833e-09
6.21756899138039e-09
5.65961199418574e-09
4.63491705535195e-09
3.68377768939551e-09
2.97338882338488e-09
2.49380368047524e-09
2.1851081291064e-09
1.99715763998987e-09
1.87207774731772e-09
1.80512456641731e-09
1.76358587287638e-09
1.74176318924425e-09
1.73412337842135e-09
1.73477231970108e-09
1.73871605423565e-09
1.74040252058437e-09
1.74220135632379e-09
1.74288989077533e-09
1.74165614049663e-09
1.73799162785596e-09
1.73160209315211e-09
1.72235042102839e-09
1.71021476155332e-09
1.69525610809519e-09
1.67759846895513e-09
1.65737748627931e-09
1.63474370314366e-09
1.60960703646694e-09
1.58156911004009e-09
1.55190000318114e-09
1.52085104118729e-09
1.4886666697328e-09
1.45558010277613e-09
1.42181094499716e-09
1.38756363141905e-09
1.35302649959391e-09
1.31837131162017e-09
1.28375316722206e-09
1.24931071860337e-09
1.21516662461557e-09
1.18142817671461e-09
1.14818806922485e-09
1.11552528220584e-09
1.08350601772957e-09
1.05218469785182e-09
1.02160497795136e-09
9.91801007442861e-10
9.62798974456208e-10
9.34617878254193e-10
9.07269613195727e-10
8.80759096853098e-10
8.55085536948317e-10
8.30236980803527e-10
8.0619508626224e-10
7.82946305430035e-10
7.60478182237793e-10
7.38775837524339e-10
7.17822349763215e-10
6.97599035302544e-10
6.78086143507984e-10
6.59264440729484e-10
6.41109747124756e-10
6.23595776593948e-10
6.06700512889199e-10
5.90403871738475e-10
5.74683330470785e-10
5.59516761466993e-10
5.44882292228651e-10
5.30758587863366e-10
5.17124507372427e-10
5.03959602101054e-10
4.91236083090696e-10
4.78926214828234e-10
4.67011737771881e-10
4.55476816487465e-10
4.44306927169124e-10
4.33488440180527e-10
4.23008570970325e-10
4.12855368894662e-10
4.03017731018076e-10
3.93485412637972e-10
3.8424904361162e-10
3.7530015985096e-10
3.66631170438004e-10
3.58235487264901e-10
3.50056117736679e-10
3.41600541323451e-10
3.33361369906238e-10
3.25305815700209e-10
3.17439551973743e-10
3.09774066870981e-10
3.02322454625627e-10
2.95097808216561e-10
2.87057939852759e-10
2.79015953497862e-10
2.71161980549821e-10
2.63541002775975e-10
2.54389300656552e-10
2.4520458530246e-10
2.35295477917895e-10
2.23685776244713e-10
2.09887470676686e-10
1.92622460213043e-10
1.68423135597343e-10
)
;

boundaryField
{
    electrode
    {
        type            zeroGradient;
    }
    ground
    {
        type            zeroGradient;
    }
    otherfaces
    {
        type            empty;
    }
}


// ************************************************************************* //
