/*--------------------------------*- C++ -*----------------------------------*\
| =========                 |                                                 |
| \\      /  F ield         | foam-extend: Open Source CFD                    |
|  \\    /   O peration     | Version:     4.0                                |
|   \\  /    A nd           | Web:         http://www.foam-extend.org         |
|    \\/     M anipulation  |                                                 |
\*---------------------------------------------------------------------------*/
FoamFile
{
    version     2.0;
    format      ascii;
    class       volScalarField;
    location    "2.3e-06";
    object      Te;
}
// * * * * * * * * * * * * * * * * * * * * * * * * * * * * * * * * * * * * * //

dimensions      [0 0 0 1 0 0 0];

internalField   nonuniform List<scalar> 
300
(
29644.9937450137
29645.1743750834
29645.3092993622
29645.4037316302
29645.5364887517
29645.7037712983
29645.9034839587
29646.1364378274
29646.4026218219
29646.7019661378
29647.0344744173
29647.4001434137
29647.7989697158
29648.2309547102
29648.6961031849
29649.1944232174
29649.7259263078
29650.2906273789
29650.8885447714
29651.5197002579
29652.1841190557
29652.8818298361
29653.6128647385
29654.3772593878
29655.1750529096
29656.006287945
29656.8710106742
29657.7692708354
29658.7011217461
29659.6666203283
29660.665827136
29661.6988063796
29662.7656259561
29663.866357484
29665.0010763336
29666.1698616649
29667.372796467
29668.6099675953
29669.8814658216
29671.1873858786
29672.5278265062
29673.9028905102
29675.312684818
29676.7573205364
29678.2369130174
29679.7515819285
29681.3014513237
29682.8866497217
29684.5073101879
29686.1635704217
29687.8555728517
29689.5834647325
29691.3473982499
29693.1475306342
29694.9840242753
29696.85704685
29698.7667714566
29700.7133767518
29702.6970471019
29704.7179727435
29706.7763499481
29708.8723811986
29711.0062753803
29713.1782479762
29715.3885212767
29717.6373246053
29719.9248945493
29722.2514752094
29724.6173184624
29727.0226842367
29729.4678408025
29731.9530650846
29734.4786429869
29737.0448697339
29739.6520502373
29742.3004994762
29744.9905429036
29747.7225168726
29750.4967690856
29753.3136590723
29756.1735586885
29759.0768526458
29762.0239390728
29765.0152301024
29768.0511524959
29771.1321482982
29774.2586755346
29777.4312089435
29780.6502407488
29783.9162814796
29787.2298608364
29790.5915286035
29794.0018556156
29797.4614347834
29800.9708821732
29804.5308381548
29808.1419686156
29811.804966244
29815.5205518964
29819.289476042
29823.1125202956
29826.9904990519
29830.9242612137
29834.914692033
29838.9627150702
29843.0692942803
29847.2354362325
29851.4621924798
29855.7506620874
29860.1019943295
29864.5173915815
29868.9981124124
29873.5454748919
29878.1608601388
29882.8457161342
29887.6015618147
29892.4299914796
29897.3326795387
29902.3113856328
29907.3679601664
29912.5043502894
29917.7226063778
29923.0248890661
29928.4134768829
29933.8907745651
29939.4593221152
29945.1218046946
29950.8810634416
29956.7401073239
29962.7021261537
29968.7705049017
29974.9488394708
29981.2409541196
29987.6509207486
29994.1830802891
30000.8420664858
30007.632832404
30014.5606800431
30021.6312935037
30028.8507762423
30036.2256930196
30043.7631172754
30051.4706847875
30059.3566546361
30067.4299786767
30075.7003809712
30084.1784489091
30092.8757380827
30101.8048934286
30110.9797896498
30120.4156945654
30130.1294598236
30140.1397443502
30150.4672772097
30161.1351675119
30172.1692723526
30183.5986347398
30195.4560049698
30207.7784970811
30220.6084347326
30233.9942738125
30247.9930637658
30262.677107677
30278.1294412348
30294.5367914426
30312.1479726519
30331.035838688
30351.1720309399
30372.7071080173
30395.9254768054
30421.0510664892
30448.1931229307
30477.2822925367
30508.4497810208
30542.0227385691
30578.4003212942
30618.45183876
30662.8248454124
30712.9252509476
30772.3084167187
30845.5116670515
30939.4996184728
31065.1700031079
31237.9625909849
31481.6868012751
31830.6556617345
32335.5626266409
33075.7083373338
34155.8188734654
35739.1463523456
38106.8243767806
41672.3559643989
47134.1090885509
55816.3722103224
68398.0866033618
85023.3125004786
108815.112308837
139488.922528367
179384.303711343
227808.96251144
282176.979888705
338515.216559594
393264.531079131
444100.658313617
489875.248901385
530403.165968043
566007.093184547
597192.191689985
624572.802184533
648754.390598356
670253.125647681
689490.769182405
706835.710594243
722611.749174185
737078.344739814
750450.301576634
762904.490310495
774587.332263974
785620.418411878
796104.599974158
806126.432694213
815752.97866508
825035.834837817
834024.776719165
842761.954470235
851279.918099585
859604.92511772
867757.545773778
875753.50747979
883604.378718437
891318.07082966
898899.26415525
906349.762566609
913668.801877588
920853.31826518
927898.185103797
934796.421624713
941539.379327696
948116.916736834
954517.549983872
960728.598396415
966736.278931598
972525.812476257
978081.702339461
983387.870062401
988427.647237005
993183.692274924
997639.41835622
1001775.87716976
1005572.30292101
1009011.0084281
1012074.39922455
1014743.85971799
1017000.60524116
1018825.6022073
1020199.45489991
1021101.4971274
1021505.86611621
1021413.17512396
1020792.00869965
1019623.90385738
1017888.38606587
1015565.61784855
1012635.43256868
1009077.58260079
1004871.29912318
999997.996162129
994434.892832582
988157.865374942
981147.097016371
973379.985448411
964832.849242095
955480.947143159
945298.473994198
934258.432521786
922332.490063509
909490.804624252
895701.821798051
880932.077023415
865145.852767301
848305.463258817
830369.543104981
811304.355148612
791059.386484366
769577.324495288
746808.529724271
722684.387015141
697127.543751173
670064.958544896
641406.342492435
611039.270012027
578841.643398858
544672.983134631
508345.823630961
469636.119014929
428259.576567849
383816.445327589
335757.228458108
283273.925806995
225309.25946576
)
;

boundaryField
{
    electrode
    {
        type            electronTemperature;
        seec            0.05;
        Tse             1000;
        Edepend         1;
        TFN             1000;
        field_emission  0;
        field_enhancement_factor 55;
        work_function   5;
        value           uniform 29644.9937450137;
    }
    ground
    {
        type            electronTemperature;
        seec            0.05;
        Tse             1000;
        Edepend         1;
        TFN             1000;
        field_emission  0;
        field_enhancement_factor 55;
        work_function   5;
        value           uniform 192394.921692605;
    }
    otherfaces
    {
        type            empty;
    }
}


// ************************************************************************* //
