/*--------------------------------*- C++ -*----------------------------------*\
| =========                 |                                                 |
| \\      /  F ield         | foam-extend: Open Source CFD                    |
|  \\    /   O peration     | Version:     4.0                                |
|   \\  /    A nd           | Web:         http://www.foam-extend.org         |
|    \\/     M anipulation  |                                                 |
\*---------------------------------------------------------------------------*/
FoamFile
{
    version     2.0;
    format      ascii;
    class       volScalarField;
    location    "2.1e-06";
    object      Ar;
}
// * * * * * * * * * * * * * * * * * * * * * * * * * * * * * * * * * * * * * //

dimensions      [0 0 0 1 0 0 0];

internalField   nonuniform List<scalar> 
300
(
3.21880335710812e+22
3.21880335436201e+22
3.21880335640694e+22
3.21880335806429e+22
3.21880336024455e+22
3.21880336317484e+22
3.21880336678658e+22
3.21880337107207e+22
3.21880337603292e+22
3.21880338166485e+22
3.21880338796448e+22
3.21880339492878e+22
3.21880340255466e+22
3.21880341083898e+22
3.21880341977857e+22
3.21880342937017e+22
3.21880343961071e+22
3.2188034504966e+22
3.2188034620241e+22
3.21880347418949e+22
3.21880348698894e+22
3.21880350041846e+22
3.21880351447397e+22
3.21880352915122e+22
3.21880354444748e+22
3.218803560357e+22
3.21880357687531e+22
3.21880359399798e+22
3.21880361171929e+22
3.21880363003428e+22
3.21880364893974e+22
3.21880366842983e+22
3.21880368849794e+22
3.21880370913863e+22
3.21880373034641e+22
3.21880375211575e+22
3.21880377444149e+22
3.21880379731777e+22
3.21880382073865e+22
3.21880384469846e+22
3.21880386919152e+22
3.21880389421195e+22
3.21880391975396e+22
3.21880394581181e+22
3.21880397237976e+22
3.21880399945212e+22
3.21880402702346e+22
3.21880405508833e+22
3.21880408364225e+22
3.21880411268018e+22
3.21880414219828e+22
3.21880417219025e+22
3.21880420265174e+22
3.21880423357615e+22
3.21880426495801e+22
3.21880429679113e+22
3.21880432907082e+22
3.2188043617926e+22
3.21880439495218e+22
3.21880442854572e+22
3.21880446256919e+22
3.21880449701902e+22
3.21880453189243e+22
3.21880456718838e+22
3.2188046029039e+22
3.21880463903415e+22
3.21880467557697e+22
3.21880471253053e+22
3.2188047498934e+22
3.21880478766449e+22
3.21880482584335e+22
3.21880486443052e+22
3.2188049034264e+22
3.21880494283091e+22
3.21880498264651e+22
3.21880502287466e+22
3.21880506351675e+22
3.21880510457572e+22
3.21880514605259e+22
3.21880518795395e+22
3.2188052302804e+22
3.21880527303635e+22
3.21880531622727e+22
3.2188053598587e+22
3.21880540393844e+22
3.21880544847266e+22
3.21880549346772e+22
3.21880553893179e+22
3.21880558487485e+22
3.21880563130559e+22
3.21880567823472e+22
3.21880572567757e+22
3.21880577364003e+22
3.21880582213413e+22
3.21880587117269e+22
3.21880592076927e+22
3.21880597093815e+22
3.21880602169434e+22
3.21880607305464e+22
3.21880612503547e+22
3.21880617765333e+22
3.21880623092597e+22
3.21880628487517e+22
3.21880633951731e+22
3.21880639487338e+22
3.21880645096507e+22
3.21880650781236e+22
3.21880656543943e+22
3.21880662386814e+22
3.21880668312155e+22
3.21880674322414e+22
3.21880680420112e+22
3.21880686607889e+22
3.21880692888398e+22
3.21880699264352e+22
3.21880705738683e+22
3.21880712314396e+22
3.21880718994113e+22
3.21880725780755e+22
3.21880732677383e+22
3.21880739687295e+22
3.21880746813438e+22
3.2188075405923e+22
3.2188076142773e+22
3.21880768922029e+22
3.21880776545386e+22
3.21880784301353e+22
3.21880792193047e+22
3.21880800223895e+22
3.21880808397249e+22
3.21880816716611e+22
3.21880825185371e+22
3.2188083380693e+22
3.21880842584899e+22
3.21880851522977e+22
3.21880860624294e+22
3.21880869892102e+22
3.21880879329913e+22
3.21880888941134e+22
3.21880898728842e+22
3.2188090869631e+22
3.21880918846745e+22
3.21880929183434e+22
3.21880939709569e+22
3.21880950428168e+22
3.21880961341682e+22
3.21880972452782e+22
3.21880983764002e+22
3.21880995277849e+22
3.21881006996825e+22
3.218810189226e+22
3.21881031056972e+22
3.21881043401836e+22
3.21881055958151e+22
3.21881068726678e+22
3.21881081708062e+22
3.21881094902374e+22
3.21881108308665e+22
3.21881121925444e+22
3.21881135750648e+22
3.21881149781109e+22
3.21881164011928e+22
3.21881178437983e+22
3.21881193052716e+22
3.21881207833562e+22
3.21881222815093e+22
3.21881237824502e+22
3.21881252868462e+22
3.21881268080808e+22
3.21881283381637e+22
3.21881298675796e+22
3.21881313850483e+22
3.21881328993069e+22
3.2188134427087e+22
3.21881359043898e+22
3.21881373620339e+22
3.21881388235416e+22
3.21881401942547e+22
3.21881415449917e+22
3.21881428004517e+22
3.21881439510236e+22
3.21881450605281e+22
3.2188146026463e+22
3.21881469058548e+22
3.2188147675872e+22
3.21881483237022e+22
3.21881488752738e+22
3.21881493620434e+22
3.21881497356139e+22
3.21881500397932e+22
3.21881503073453e+22
3.21881505421839e+22
3.21881507213882e+22
3.2188150867331e+22
3.21881509319729e+22
3.21881509438291e+22
3.21881509317787e+22
3.21881509370519e+22
3.2188150957538e+22
3.21881509922336e+22
3.21881510337981e+22
3.21881510778998e+22
3.2188151140983e+22
3.21881512026659e+22
3.21881512573818e+22
3.21881513058557e+22
3.21881513486628e+22
3.2188151386155e+22
3.21881514186487e+22
3.21881514466546e+22
3.21881514712223e+22
3.21881515004786e+22
3.21881515368932e+22
3.21881515703915e+22
3.21881516001451e+22
3.21881516281127e+22
3.21881516525889e+22
3.21881516758963e+22
3.21881516960866e+22
3.21881517151747e+22
3.21881517317384e+22
3.21881517474018e+22
3.21881517608642e+22
3.21881517739675e+22
3.21881517899826e+22
3.21881518143198e+22
3.21881518364502e+22
3.21881518586283e+22
3.21881518788879e+22
3.2188151899012e+22
3.21881519173696e+22
3.21881519356602e+22
3.21881519522686e+22
3.21881519689363e+22
3.21881519839656e+22
3.21881519989889e+22
3.21881520125322e+22
3.21881520260415e+22
3.21881520381654e+22
3.21881520504051e+22
3.21881520614165e+22
3.21881520725374e+22
3.21881520871938e+22
3.21881521068258e+22
3.21881521251952e+22
3.21881521436385e+22
3.21881521606455e+22
3.21881521776735e+22
3.2188152193217e+22
3.21881522090063e+22
3.21881522231983e+22
3.21881522379569e+22
3.21881522510017e+22
3.21881522649805e+22
3.218815227718e+22
3.21881522905575e+22
3.21881523023063e+22
3.21881523150667e+22
3.21881523261302e+22
3.2188152338117e+22
3.21881523480146e+22
3.21881523591094e+22
3.21881523678151e+22
3.21881523780364e+22
3.21881523859872e+22
3.21881523956455e+22
3.21881524033439e+22
3.21881524174025e+22
3.2188152430663e+22
3.21881524464881e+22
3.21881524594914e+22
3.21881524747859e+22
3.21881524873482e+22
3.21881525023307e+22
3.2188152514359e+22
3.21881525290568e+22
3.21881525404146e+22
3.21881525547544e+22
3.21881525653298e+22
3.21881525793625e+22
3.21881525890362e+22
3.21881526025087e+22
3.2188152611244e+22
3.21881526239389e+22
3.21881526318903e+22
3.21881526439169e+22
3.21881526514087e+22
3.21881526630483e+22
3.21881526703481e+22
3.21881526818996e+22
3.21881526892494e+22
3.21881527008858e+22
3.21881527083013e+22
3.21881527201409e+22
3.21881527275966e+22
3.21881527395471e+22
3.21881527466225e+22
3.21881527585535e+22
3.21881527650459e+22
3.21881527791631e+22
)
;

boundaryField
{
    electrode
    {
        type            zeroGradient;
    }
    ground
    {
        type            zeroGradient;
    }
    otherfaces
    {
        type            empty;
    }
}


// ************************************************************************* //
