/*--------------------------------*- C++ -*----------------------------------*\
| =========                 |                                                 |
| \\      /  F ield         | foam-extend: Open Source CFD                    |
|  \\    /   O peration     | Version:     4.0                                |
|   \\  /    A nd           | Web:         http://www.foam-extend.org         |
|    \\/     M anipulation  |                                                 |
\*---------------------------------------------------------------------------*/
FoamFile
{
    version     2.0;
    format      ascii;
    class       volScalarField;
    location    "2.1e-06";
    object      Arp1;
}
// * * * * * * * * * * * * * * * * * * * * * * * * * * * * * * * * * * * * * //

dimensions      [0 0 0 1 0 0 0];

internalField   nonuniform List<scalar> 
300
(
5.99136803689812e+16
5.99414708757644e+16
5.9924196558379e+16
5.99146925184465e+16
5.99036733639207e+16
5.98888075142617e+16
5.98707354281427e+16
5.98494975331899e+16
5.98250460425245e+16
5.97973948670014e+16
5.97665544081743e+16
5.97325322486488e+16
5.96953378132152e+16
5.96549815107541e+16
5.96114745183853e+16
5.95648288698897e+16
5.95150574474593e+16
5.94621739631357e+16
5.9406192949023e+16
5.9347129745005e+16
5.9285000483919e+16
5.92198220767557e+16
5.91516121960717e+16
5.90803892575161e+16
5.90061724005874e+16
5.8928981467981e+16
5.88488369824369e+16
5.8765760123029e+16
5.86797726994694e+16
5.85908971248516e+16
5.84991563864077e+16
5.8404574015025e+16
5.83071740528313e+16
5.8206981018703e+16
5.8104019872919e+16
5.79983159788854e+16
5.78898950634543e+16
5.77787831765648e+16
5.76650066471582e+16
5.7548592038271e+16
5.74295661009689e+16
5.73079557251252e+16
5.71837878894929e+16
5.7057089609648e+16
5.69278878836519e+16
5.67962096371278e+16
5.66620816661499e+16
5.6525530577784e+16
5.63865827299866e+16
5.62452641696431e+16
5.61016005689596e+16
5.59556171605734e+16
5.58073386706455e+16
5.56567892516765e+16
5.5503992412835e+16
5.53489709500989e+16
5.51917468745319e+16
5.50323413387482e+16
5.48707745647665e+16
5.47070657682838e+16
5.45412330826469e+16
5.43732934834321e+16
5.42032627105216e+16
5.40311551902969e+16
5.3856983957441e+16
5.36807605753751e+16
5.35024950573721e+16
5.33221957868497e+16
5.31398694365597e+16
5.29555208895794e+16
5.27691531590858e+16
5.2580767307145e+16
5.23903623662428e+16
5.21979352594949e+16
5.20034807209086e+16
5.18069912173842e+16
5.16084568708012e+16
5.140786538104e+16
5.1205201949525e+16
5.10004492044547e+16
5.07935871271307e+16
5.05845929792147e+16
5.03734412322417e+16
5.0160103498076e+16
4.99445484616626e+16
4.97267418163075e+16
4.95066461996754e+16
4.92842211333905e+16
4.90594229658404e+16
4.8832204815447e+16
4.86025165186844e+16
4.83703045811028e+16
4.81355121314957e+16
4.7898078878969e+16
4.76579410740864e+16
4.74150314751797e+16
4.71692793173769e+16
4.69206102859049e+16
4.66689464952877e+16
4.64142064726312e+16
4.61563051455554e+16
4.58951538364234e+16
4.56306602613671e+16
4.53627285348876e+16
4.50912591811394e+16
4.4816149151273e+16
4.45372918470261e+16
4.42545771504856e+16
4.39678914620654e+16
4.36771177456935e+16
4.33821355796606e+16
4.30828212170645e+16
4.2779047654808e+16
4.24706847087529e+16
4.21575990989697e+16
4.18396545451862e+16
4.15167118692138e+16
4.11886291082607e+16
4.0855261639026e+16
4.05164623118464e+16
4.01720815957124e+16
3.98219677345577e+16
3.94659669166665e+16
3.91039234564912e+16
3.87356799887908e+16
3.83610776777846e+16
3.79799564419469e+16
3.75921551927674e+16
3.71975120908728e+16
3.67958648219678e+16
3.63870508899667e+16
3.59709079307717e+16
3.55472740499743e+16
3.51159881855989e+16
3.4676890494942e+16
3.42298227734265e+16
3.37746289066149e+16
3.33111553574912e+16
3.2839251696528e+16
3.23587711781133e+16
3.18695713726765e+16
3.1371514859566e+16
3.08644699925409e+16
3.0348311752748e+16
2.98229227003999e+16
2.92881940477408e+16
2.87440268768308e+16
2.81903335318259e+16
2.76270392239388e+16
2.70540838992157e+16
2.64714244265308e+16
2.58790371846629e+16
2.52769211466462e+16
2.46651015890758e+16
2.40436345801937e+16
2.34126123896474e+16
2.27721704844624e+16
2.21224948383828e+16
2.14638343451615e+16
2.07965093877194e+16
2.01209274670914e+16
1.94376316005013e+16
1.8747190057345e+16
1.80502390710351e+16
1.73490240914428e+16
1.66401090995224e+16
1.59408077232729e+16
1.52506980994076e+16
1.45567589583733e+16
1.38671186564236e+16
1.31910829993398e+16
1.25394365627181e+16
1.19023395018273e+16
1.12607808534376e+16
1.0675095436673e+16
1.01094412501591e+16
9.53338589695998e+15
9.03271857846509e+15
8.52622764095931e+15
8.0778343994928e+15
7.68556859476782e+15
7.27464354318425e+15
6.93819024742285e+15
6.61246092573415e+15
6.3170792389041e+15
6.06541192058605e+15
5.83581307815813e+15
5.60391892591929e+15
5.42681442453993e+15
5.27075275897316e+15
5.1129305480166e+15
4.958277241349e+15
4.83736004315089e+15
4.73284844504481e+15
4.68499596721636e+15
4.663612607487e+15
4.6624890289475e+15
4.65881905434565e+15
4.64927068040597e+15
4.62920590678113e+15
4.60456976608432e+15
4.57693201922714e+15
4.52809349302948e+15
4.4781397231665e+15
4.43280740339465e+15
4.39212705206333e+15
4.35632679752146e+15
4.3248883161837e+15
4.29778082344536e+15
4.27479392855808e+15
4.2553983790754e+15
4.23123050289546e+15
4.1997916008836e+15
4.17123478861936e+15
4.14639046831064e+15
4.1233392216018e+15
4.10382100086077e+15
4.08548828665963e+15
4.07030901343842e+15
4.0562696856202e+15
4.04477791490204e+15
4.03421766431943e+15
4.02588241504895e+15
4.0179791958206e+15
4.00721860912803e+15
3.98811174360111e+15
3.97116589981768e+15
3.95412789300022e+15
3.93895082089336e+15
3.92383359867853e+15
3.91041212367045e+15
3.89697673249529e+15
3.88512753920206e+15
3.87312488830939e+15
3.86266521051679e+15
3.85209814174795e+15
3.84291295142345e+15
3.83364419529398e+15
3.82565508491181e+15
3.81743458592553e+15
3.81032732714654e+15
3.80300481387028e+15
3.79202786850849e+15
3.77597242630772e+15
3.76107274238494e+15
3.74597923576771e+15
3.73221833618011e+15
3.71832785512134e+15
3.70581317137276e+15
3.6929541261586e+15
3.68158910168269e+15
3.66956052072947e+15
3.65915380783017e+15
3.64771744100193e+15
3.63797297184583e+15
3.62696493414538e+15
3.61750079494082e+15
3.60695476122317e+15
3.5980255265895e+15
3.58809962572568e+15
3.58018275089206e+15
3.57099990960582e+15
3.56413315652407e+15
3.55568454849764e+15
3.54944117616276e+15
3.54142713756503e+15
3.53531568253107e+15
3.52278767644385e+15
3.5110101759744e+15
3.49661277976773e+15
3.48498807851809e+15
3.47101621447352e+15
3.45973211763726e+15
3.445976536106e+15
3.4351348325037e+15
3.42158351810808e+15
3.41133289705486e+15
3.39806015749888e+15
3.38850887883763e+15
3.37546300907338e+15
3.36673935516328e+15
3.35418696257464e+15
3.34638306876682e+15
3.33461290664384e+15
3.32755221700807e+15
3.31639259008341e+15
3.30973735628828e+15
3.29890381125043e+15
3.29238706641282e+15
3.28166754991851e+15
3.27516595268805e+15
3.26435149759178e+15
3.25773277593387e+15
3.2467812610647e+15
3.24022676120589e+15
3.22919755491366e+15
3.22316776957304e+15
3.21237643012488e+15
3.20718485163875e+15
3.19463959266896e+15
)
;

boundaryField
{
    electrode
    {
        type            driftDiffusionPositiveIonDensity;
        seec            0;
        fieldName       Arp1;
        value           uniform 5.98129285334133e+16;
    }
    ground
    {
        type            driftDiffusionPositiveIonDensity;
        seec            0;
        fieldName       Arp1;
        value           uniform 3.19463959266896e+15;
    }
    otherfaces
    {
        type            empty;
    }
}


// ************************************************************************* //
