/*--------------------------------*- C++ -*----------------------------------*\
| =========                 |                                                 |
| \\      /  F ield         | foam-extend: Open Source CFD                    |
|  \\    /   O peration     | Version:     4.0                                |
|   \\  /    A nd           | Web:         http://www.foam-extend.org         |
|    \\/     M anipulation  |                                                 |
\*---------------------------------------------------------------------------*/
FoamFile
{
    version     2.0;
    format      ascii;
    class       volVectorField;
    location    "2.1e-06";
    object      E;
}
// * * * * * * * * * * * * * * * * * * * * * * * * * * * * * * * * * * * * * //

dimensions      [0 0 0 1 0 0 0];

internalField   nonuniform List<vector> 
300
(
(4.23725257381325 -0 -0)
(9.17130882904791 -0 -0)
(15.7681930013087 -0 -0)
(22.2046011452706 -0 -0)
(28.5147976439298 -0 -0)
(34.8395354024537 -0 -0)
(41.1631073560241 -0 -0)
(47.4805819786196 -0 -0)
(53.7931400215747 -0 -0)
(60.0999941979824 -0 -0)
(66.4002696368336 -0 -0)
(72.6932597658332 -0 -0)
(78.9782388238577 -0 -0)
(85.2544765450586 -0 -0)
(91.5212513274985 -0 -0)
(97.777848409587 -0 -0)
(104.023560744402 -0 -0)
(110.257690731642 -0 -0)
(116.479551907912 -0 -0)
(122.688470620411 -0 -0)
(128.883787971214 -0 -0)
(135.064861873925 -0 -0)
(141.231069243628 -0 -0)
(147.381808303372 -0 -0)
(153.516501107122 -0 -0)
(159.634596125221 -0 -0)
(165.7355709922 -0 -0)
(171.818935533476 -0 -0)
(177.884234692223 -0 -0)
(183.931051818411 -0 -0)
(189.959012049399 -0 -0)
(195.967785765432 -0 -0)
(201.957092278735 -0 -0)
(207.926703613159 -0 -0)
(213.876448514018 -0 -0)
(219.806216436603 -0 -0)
(225.715961871287 -0 -0)
(231.605708603208 -0 -0)
(237.475554337754 -0 -0)
(243.325675267105 -0 -0)
(249.1563308254 -0 -0)
(254.967868609816 -0 -0)
(260.760729405033 -0 -0)
(266.535452325637 -0 -0)
(272.292680036949 -0 -0)
(278.033164199972 -0 -0)
(283.757770938529 -0 -0)
(289.467486468159 -0 -0)
(295.163422803254 -0 -0)
(300.846823615637 -0 -0)
(306.519070146537 -0 -0)
(312.18168733835 -0 -0)
(317.836349938919 -0 -0)
(323.484888779845 -0 -0)
(329.129297178853 -0 -0)
(334.771737439611 -0 -0)
(340.414547408996 -0 -0)
(346.060247274939 -0 -0)
(351.711546253616 -0 -0)
(357.371349646342 -0 -0)
(363.042765849677 -0 -0)
(368.729113496483 -0 -0)
(374.433928750126 -0 -0)
(380.160972772473 -0 -0)
(385.914239193963 -0 -0)
(391.697961828235 -0 -0)
(397.516622460726 -0 -0)
(403.374958839105 -0 -0)
(409.277972712767 -0 -0)
(415.230938137539 -0 -0)
(421.239409945012 -0 -0)
(427.309232256581 -0 -0)
(433.446547300251 -0 -0)
(439.65780443791 -0 -0)
(445.94976933714 -0 -0)
(452.32953339168 -0 -0)
(458.804523360749 -0 -0)
(465.382511302724 -0 -0)
(472.071624878269 -0 -0)
(478.88035774314 -0 -0)
(485.817580410439 -0 -0)
(492.892551561036 -0 -0)
(500.114929539898 -0 -0)
(507.494784454714 -0 -0)
(515.042610693734 -0 -0)
(522.769339941667 -0 -0)
(530.686354793866 -0 -0)
(538.805502976799 -0 -0)
(547.139112312579 -0 -0)
(555.700006406366 -0 -0)
(564.501521169216 -0 -0)
(573.557522251411 -0 -0)
(582.882423515231 -0 -0)
(592.49120670102 -0 -0)
(602.399442199578 -0 -0)
(612.623311201159 -0 -0)
(623.179629491501 -0 -0)
(634.085872728987 -0 -0)
(645.360203627217 -0 -0)
(657.021501104868 -0 -0)
(669.089391654033 -0 -0)
(681.584283100742 -0 -0)
(694.527401090614 -0 -0)
(707.940828409272 -0 -0)
(721.847547548241 -0 -0)
(736.271486841202 -0 -0)
(751.23757052584 -0 -0)
(766.771772887991 -0 -0)
(782.901177270943 -0 -0)
(799.654040263392 -0 -0)
(817.059861423018 -0 -0)
(835.149459442563 -0 -0)
(853.955055023049 -0 -0)
(873.510361501602 -0 -0)
(893.850683757282 -0 -0)
(915.013026414432 -0 -0)
(937.036212339636 -0 -0)
(959.961012372919 -0 -0)
(983.830287558186 -0 -0)
(1008.68914545981 -0 -0)
(1034.58511190602 -0 -0)
(1061.56831980293 -0 -0)
(1089.69171727238 -0 -0)
(1119.01129720717 -0 -0)
(1149.58635074579 -0 -0)
(1181.47974760298 -0 -0)
(1214.75824659278 -0 -0)
(1249.49284010637 -0 -0)
(1285.75913668091 -0 -0)
(1323.63778697229 -0 -0)
(1363.21495871589 -0 -0)
(1404.58286700685 -0 -0)
(1447.84036802143 -0 -0)
(1493.09362476699 -0 -0)
(1540.45685526339 -0 -0)
(1590.0531752226 -0 -0)
(1642.01554926324 -0 -0)
(1696.487867295 -0 -0)
(1753.62616554617 -0 -0)
(1813.60001476996 -0 -0)
(1876.59410334095 -0 -0)
(1942.8100469942 -0 -0)
(2012.46846337448 -0 -0)
(2085.81135740816 -0 -0)
(2163.10487184699 -0 -0)
(2244.64246855415 -0 -0)
(2330.74861968492 -0 -0)
(2421.78310399405 -0 -0)
(2518.14602410758 -0 -0)
(2620.28368515795 -0 -0)
(2728.69550661555 -0 -0)
(2843.94217651774 -0 -0)
(2966.65530538947 -0 -0)
(3097.54889642636 -0 -0)
(3237.43301997657 -0 -0)
(3387.23017316335 -0 -0)
(3547.99492782611 -0 -0)
(3720.93755899095 -0 -0)
(3907.45270272176 -0 -0)
(4109.15387886225 -0 -0)
(4327.91599471651 -0 -0)
(4565.92943340097 -0 -0)
(4825.75495234693 -0 -0)
(5110.43201271186 -0 -0)
(5423.68147153559 -0 -0)
(5769.96513560794 -0 -0)
(6156.69892435348 -0 -0)
(6594.31956836982 -0 -0)
(7092.19877525274 -0 -0)
(7659.52593451404 -0 -0)
(8309.04756783581 -0 -0)
(9057.69284554849 -0 -0)
(9922.30659902998 -0 -0)
(10915.3492669625 -0 -0)
(12055.2424746329 -0 -0)
(13362.0573247367 -0 -0)
(14842.477094039 -0 -0)
(16508.0175524901 -0 -0)
(18366.5416676534 -0 -0)
(20418.5377271463 -0 -0)
(22669.0566349577 -0 -0)
(25100.643600338 -0 -0)
(27693.0394518725 -0 -0)
(30427.4785123338 -0 -0)
(33271.7721815983 -0 -0)
(36201.4431826286 -0 -0)
(39191.5164552748 -0 -0)
(42204.2504839051 -0 -0)
(45218.9227129371 -0 -0)
(48228.3189205778 -0 -0)
(51211.3653103444 -0 -0)
(54149.0462185013 -0 -0)
(57035.320695831 -0 -0)
(59878.6582270346 -0 -0)
(62694.2631521199 -0 -0)
(65495.6174397358 -0 -0)
(68296.3286073228 -0 -0)
(71100.0613543667 -0 -0)
(73902.049868389 -0 -0)
(76697.1737533801 -0 -0)
(79479.8662298061 -0 -0)
(82247.3249917009 -0 -0)
(84991.9760816146 -0 -0)
(87706.9758871418 -0 -0)
(90393.3252331727 -0 -0)
(93053.7849043337 -0 -0)
(95691.212732476 -0 -0)
(98308.3835332812 -0 -0)
(100907.908463683 -0 -0)
(103492.332643235 -0 -0)
(106063.97928194 -0 -0)
(108622.490277708 -0 -0)
(111164.232447843 -0 -0)
(113687.882691934 -0 -0)
(116195.430730957 -0 -0)
(118688.538054065 -0 -0)
(121168.812176823 -0 -0)
(123637.677553332 -0 -0)
(126096.444107268 -0 -0)
(128546.407968182 -0 -0)
(130988.682615277 -0 -0)
(133424.318760851 -0 -0)
(135854.269585825 -0 -0)
(138279.337281236 -0 -0)
(140698.791411658 -0 -0)
(143109.254173233 -0 -0)
(145508.86087053 -0 -0)
(147898.235986299 -0 -0)
(150277.913375851 -0 -0)
(152648.472577567 -0 -0)
(155010.443287008 -0 -0)
(157364.332839906 -0 -0)
(159710.61547035 -0 -0)
(162049.723233544 -0 -0)
(164382.07502672 -0 -0)
(166708.103610212 -0 -0)
(169028.193122881 -0 -0)
(171342.734820756 -0 -0)
(173652.089147443 -0 -0)
(175956.571953063 -0 -0)
(178256.44883137 -0 -0)
(180551.990184513 -0 -0)
(182842.028618906 -0 -0)
(185123.92998032 -0 -0)
(187396.510652375 -0 -0)
(189660.060153762 -0 -0)
(191914.92132828 -0 -0)
(194161.456496944 -0 -0)
(196400.041130305 -0 -0)
(198630.985796454 -0 -0)
(200854.636822254 -0 -0)
(203071.244330538 -0 -0)
(205281.096963423 -0 -0)
(207484.37301122 -0 -0)
(209681.271849751 -0 -0)
(211871.922340742 -0 -0)
(214056.408838612 -0 -0)
(216234.869953262 -0 -0)
(218407.466608741 -0 -0)
(220574.385570814 -0 -0)
(222735.931555742 -0 -0)
(224892.328402088 -0 -0)
(227043.892488365 -0 -0)
(229190.845114739 -0 -0)
(231333.374110341 -0 -0)
(233471.610442467 -0 -0)
(235605.594241904 -0 -0)
(237733.962918918 -0 -0)
(239855.007452867 -0 -0)
(241968.164846507 -0 -0)
(244073.480371981 -0 -0)
(246171.082106654 -0 -0)
(248261.072646386 -0 -0)
(250343.516995022 -0 -0)
(252418.548387272 -0 -0)
(254486.228200934 -0 -0)
(256546.73448964 -0 -0)
(258600.151069213 -0 -0)
(260646.68869781 -0 -0)
(262686.415595176 -0 -0)
(264719.581113438 -0 -0)
(266746.333855071 -0 -0)
(268766.950928836 -0 -0)
(270781.668248281 -0 -0)
(272790.709833951 -0 -0)
(274794.259811972 -0 -0)
(276792.440537679 -0 -0)
(278785.350285555 -0 -0)
(280773.030735319 -0 -0)
(282755.516250411 -0 -0)
(284732.811373631 -0 -0)
(286704.887319564 -0 -0)
(288671.708671822 -0 -0)
(290633.23389567 -0 -0)
(292589.482006543 -0 -0)
(294540.429153179 -0 -0)
(296486.232571885 -0 -0)
(298426.963279291 -0 -0)
(300362.877481889 -0 -0)
(302293.444973 -0 -0)
)
;

boundaryField
{
    electrode
    {
        type            calculated;
        value           uniform (2.61280182940027 -0 -0);
    }
    ground
    {
        type            calculated;
        value           uniform (303256.836489253 -0 -0);
    }
    otherfaces
    {
        type            empty;
    }
}


// ************************************************************************* //
