/*--------------------------------*- C++ -*----------------------------------*\
| =========                 |                                                 |
| \\      /  F ield         | foam-extend: Open Source CFD                    |
|  \\    /   O peration     | Version:     4.0                                |
|   \\  /    A nd           | Web:         http://www.foam-extend.org         |
|    \\/     M anipulation  |                                                 |
\*---------------------------------------------------------------------------*/
FoamFile
{
    version     2.0;
    format      ascii;
    class       volScalarField;
    location    "2.1e-06";
    object      electron;
}
// * * * * * * * * * * * * * * * * * * * * * * * * * * * * * * * * * * * * * //

dimensions      [0 0 0 1 0 0 0];

internalField   nonuniform List<scalar> 
300
(
5.99204163107064e+16
5.99182076300207e+16
5.99130829738329e+16
5.99047078231271e+16
5.98931083494689e+16
5.98782930045007e+16
5.98602628460086e+16
5.98390230584039e+16
5.98145797650486e+16
5.9786939737958e+16
5.97561106756439e+16
5.97221011654562e+16
5.9684920661574e+16
5.96445794835571e+16
5.96010888091555e+16
5.95544606653127e+16
5.95047079186482e+16
5.94518442648536e+16
5.93958842169029e+16
5.93368430920685e+16
5.92747369976938e+16
5.92095828156539e+16
5.91413981854615e+16
5.907020148598e+16
5.89960118156874e+16
5.89188489714508e+16
5.88387334257836e+16
5.87556863025153e+16
5.86697293508615e+16
5.85808849178662e+16
5.84891759191519e+16
5.8394625807977e+16
5.82972585425693e+16
5.81970985517093e+16
5.80941706985375e+16
5.79885002425871e+16
5.78801128000237e+16
5.77690343020877e+16
5.76552909517308e+16
5.75389091784407e+16
5.74199155912858e+16
5.72983369301714e+16
5.71742000153174e+16
5.70475316949811e+16
5.69183587914576e+16
5.67867080453698e+16
5.66526060582759e+16
5.6516079233638e+16
5.63771537161864e+16
5.6235855329718e+16
5.60922095133773e+16
5.59462412564582e+16
5.57979750317785e+16
5.56474347276989e+16
5.54946435788233e+16
5.53396240954413e+16
5.51823979917871e+16
5.50229861131634e+16
5.48614083620162e+16
5.46976836230236e+16
5.45318296872545e+16
5.43638631754995e+16
5.41937994608442e+16
5.40216525905497e+16
5.38474352073383e+16
5.36711584701733e+16
5.34928319746124e+16
5.33124636728282e+16
5.31300597933976e+16
5.29456247609592e+16
5.27591611158173e+16
5.25706694336254e+16
5.23801482452561e+16
5.21875939569479e+16
5.1993000770855e+16
5.17963606061254e+16
5.15976630206337e+16
5.13968951334922e+16
5.11940415484527e+16
5.09890842783586e+16
5.07820026708005e+16
5.05727733350819e+16
5.03613700706656e+16
5.01477637972618e+16
4.99319224866938e+16
4.97138110967195e+16
4.94933915069693e+16
4.92706224571719e+16
4.90454594878346e+16
4.88178548835517e+16
4.8587757619129e+16
4.83551133087071e+16
4.81198641580683e+16
4.78819489202998e+16
4.76413028550096e+16
4.73978576913074e+16
4.71515415947138e+16
4.69022791381958e+16
4.66499912775364e+16
4.63945953312229e+16
4.61360049650499e+16
4.58741301816357e+16
4.56088773150379e+16
4.53401490306655e+16
4.50678443306933e+16
4.47918585651549e+16
4.4512083448898e+16
4.42284070846127e+16
4.39407139921238e+16
4.36488851441068e+16
4.33527980084354e+16
4.30523265973372e+16
4.27473415235422e+16
4.24377100636087e+16
4.21232962285979e+16
4.1803960842285e+16
4.14795616270661e+16
4.1149953297738e+16
4.08149876633374e+16
4.047451373719e+16
4.01283778553099e+16
3.97764238033284e+16
3.94184929521001e+16
3.90544244021006e+16
3.86840551367495e+16
3.83072201847735e+16
3.79237527916936e+16
3.75334846005013e+16
3.71362458415861e+16
3.67318655319264e+16
3.63201716834981e+16
3.59009915208692e+16
3.54741517078724e+16
3.50394785831829e+16
3.45967984045893e+16
3.41459376016767e+16
3.36867230365727e+16
3.32189822723326e+16
3.27425438484449e+16
3.22572375629126e+16
3.17628947602709e+16
3.12593486248371e+16
3.07464344785184e+16
3.02239900824969e+16
2.96918559421903e+16
2.91498756151065e+16
2.85978960215314e+16
2.80357677585203e+16
2.74633454185018e+16
2.68804879150328e+16
2.62870588200396e+16
2.56829267194924e+16
2.50679655982168e+16
2.44420552697722e+16
2.38050818747877e+16
2.31569384818638e+16
2.24975258384388e+16
2.18267533422525e+16
2.11445403230668e+16
2.04508177623012e+16
1.97455306109354e+16
1.90286406911571e+16
1.83001304727733e+16
1.75600068816752e+16
1.68082938774142e+16
1.60450249380956e+16
1.52701463180759e+16
1.44833678008999e+16
1.36842982142024e+16
1.2872757778415e+16
1.20488873255838e+16
1.12131492727779e+16
1.03665541245777e+16
9.51120993338673e+15
8.6505868536496e+15
7.78953868959814e+15
6.93479628730643e+15
6.09502946997645e+15
5.28039206621171e+15
4.50210817317098e+15
3.7716042270786e+15
3.09969871680109e+15
2.49568080562925e+15
1.96615624947921e+15
1.51433251019033e+15
1.13974607004795e+15
838073928546759
602275789770488
423753609019900
292535761621945
198783783944268
133702276730039
89656301240749.7
60490346419427.2
40473844877289.7
26373617633558.2
16648414091331.5
10273979804330.8
6476362916224.31
4338296642160.09
3152149526113.43
2483865876420.05
2097599257988.85
1869269838315.61
1732312460928.15
1650017549411.99
1601187612368.76
1572857361982.86
1557093229592.01
1548759751499.23
1544393131060.04
1541599180227.74
1538817074383.7
1535049486623.13
1529645161693.49
1522202683393.38
1512498348244.53
1500438187040.68
1486023102013.88
1469321932306.09
1450453597752.84
1429549543181.89
1406748694975.15
1382233439575.59
1356215687454.24
1328914481851.07
1300548723670.79
1271330009539.72
1241458969277
1211123358423.23
1180496867864.7
1149738488471.83
1118992257668.22
1088387324135.13
1058038252379.58
1028045506174.12
998496093421.034
969464322851.962
941012633849.11
913192487123.667
886045294424.146
859603346819.53
833890984495.15
808925932891.503
784719894601.249
761278626253.059
738601985259.127
716684669707.085
695509329290.777
675058053393.034
655319600050.305
636280160825.429
617924323825.595
600234940080.399
583193653262.481
566781102444.139
550979302009.944
535766676284.526
521117565042.54
507011990917.144
493431700669.077
480356235375.367
467765582346.28
455640056872.679
443960539500.921
432708451435.919
421865613143.031
411412551157.64
401324751558.053
391581117453.451
382167701635.796
373071611030.875
364281055818.954
355784996411.939
347573151191.51
339635989675.414
331964747086.269
324551444175.943
317388919694.5
310470825491.509
303791706241.572
297346036552.812
291128545948.738
285113212139.091
279271826769.74
273604633301.904
268122439939.572
262838239652.796
257765296141.359
252884644657.94
248171745797.716
243650527525.039
239371590934.784
235327651530.524
231549736978.183
228133332133.26
225219895091.196
223094814252.343
222210120822.088
223403237873.871
)
;

boundaryField
{
    electrode
    {
        type            driftDiffusionElectronDensity;
        seec            0.05;
        Edepend         1;
        field_emission  0;
        field_enhancement_factor 55;
        work_function   5;
        value           uniform 5.99204163107064e+16;
    }
    ground
    {
        type            driftDiffusionElectronDensity;
        seec            0.05;
        Edepend         1;
        field_emission  0;
        field_enhancement_factor 55;
        work_function   5;
        value           uniform 225627938640.913;
    }
    otherfaces
    {
        type            empty;
    }
}


// ************************************************************************* //
