/*--------------------------------*- C++ -*----------------------------------*\
| =========                 |                                                 |
| \\      /  F ield         | foam-extend: Open Source CFD                    |
|  \\    /   O peration     | Version:     4.0                                |
|   \\  /    A nd           | Web:         http://www.foam-extend.org         |
|    \\/     M anipulation  |                                                 |
\*---------------------------------------------------------------------------*/
FoamFile
{
    version     2.0;
    format      ascii;
    class       volVectorField;
    location    "2.1e-06";
    object      J_Arp1;
}
// * * * * * * * * * * * * * * * * * * * * * * * * * * * * * * * * * * * * * //

dimensions      [1 -1 -1 0 0 0 0];

internalField   nonuniform List<vector> 
300
(
(1.66567294653355e+16 -0 -0)
(5.49254279161467e+16 -0 -0)
(9.57476748864721e+16 -0 -0)
(1.33767659502991e+17 -0 -0)
(1.71708600141937e+17 -0 -0)
(2.09764095182501e+17 -0 -0)
(2.47743568953957e+17 -0 -0)
(2.85638382134616e+17 -0 -0)
(3.23450444522132e+17 -0 -0)
(3.61166892167684e+17 -0 -0)
(3.98776878083778e+17 -0 -0)
(4.36270387604111e+17 -0 -0)
(4.73637209226616e+17 -0 -0)
(5.10867211865835e+17 -0 -0)
(5.47950389752034e+17 -0 -0)
(5.84876848688979e+17 -0 -0)
(6.21636819795684e+17 -0 -0)
(6.58220673990777e+17 -0 -0)
(6.94618935811693e+17 -0 -0)
(7.30822297347388e+17 -0 -0)
(7.66821633419673e+17 -0 -0)
(8.02608017147619e+17 -0 -0)
(8.38172736076711e+17 -0 -0)
(8.73507308631251e+17 -0 -0)
(9.08603501485283e+17 -0 -0)
(9.43453346995833e+17 -0 -0)
(9.78049161139735e+17 -0 -0)
(1.01238356264428e+18 -0 -0)
(1.04644949110416e+18 -0 -0)
(1.08024022672224e+18 -0 -0)
(1.11374941003656e+18 -0 -0)
(1.14697106153125e+18 -0 -0)
(1.17989960204305e+18 -0 -0)
(1.21252987301994e+18 -0 -0)
(1.24485715750478e+18 -0 -0)
(1.27687720030492e+18 -0 -0)
(1.30858622929914e+18 -0 -0)
(1.33998097572695e+18 -0 -0)
(1.37105869575221e+18 -0 -0)
(1.40181719078617e+18 -0 -0)
(1.43225482814367e+18 -0 -0)
(1.4623705617089e+18 -0 -0)
(1.49216395225568e+18 -0 -0)
(1.52163518753942e+18 -0 -0)
(1.55078510177977e+18 -0 -0)
(1.57961519542237e+18 -0 -0)
(1.60812765403705e+18 -0 -0)
(1.63632536697324e+18 -0 -0)
(1.6642119453576e+18 -0 -0)
(1.69179173983538e+18 -0 -0)
(1.71906985741921e+18 -0 -0)
(1.74605217838288e+18 -0 -0)
(1.77274537171768e+18 -0 -0)
(1.79915691034666e+18 -0 -0)
(1.82529508569056e+18 -0 -0)
(1.85116902145265e+18 -0 -0)
(1.87678868640142e+18 -0 -0)
(1.90216490692079e+18 -0 -0)
(1.92730937767554e+18 -0 -0)
(1.95223467279071e+18 -0 -0)
(1.97695425511412e+18 -0 -0)
(2.00148248476409e+18 -0 -0)
(2.025834626851e+18 -0 -0)
(2.05002685841361e+18 -0 -0)
(2.07407627371661e+18 -0 -0)
(2.09800088900509e+18 -0 -0)
(2.12181964583211e+18 -0 -0)
(2.14555241359702e+18 -0 -0)
(2.16921999022592e+18 -0 -0)
(2.19284410226589e+18 -0 -0)
(2.21644740374813e+18 -0 -0)
(2.24005347284574e+18 -0 -0)
(2.26368680788122e+18 -0 -0)
(2.28737282200074e+18 -0 -0)
(2.31113783588192e+18 -0 -0)
(2.33500906906492e+18 -0 -0)
(2.35901462956555e+18 -0 -0)
(2.38318350198115e+18 -0 -0)
(2.40754553425542e+18 -0 -0)
(2.43213142156403e+18 -0 -0)
(2.45697268906285e+18 -0 -0)
(2.48210167307069e+18 -0 -0)
(2.50755149925155e+18 -0 -0)
(2.53335605955071e+18 -0 -0)
(2.55954998669438e+18 -0 -0)
(2.58616862648183e+18 -0 -0)
(2.61324800784218e+18 -0 -0)
(2.64082481043499e+18 -0 -0)
(2.66893633028358e+18 -0 -0)
(2.69762044260208e+18 -0 -0)
(2.72691556210735e+18 -0 -0)
(2.75686060077085e+18 -0 -0)
(2.7874949230594e+18 -0 -0)
(2.8188582987762e+18 -0 -0)
(2.8509908525086e+18 -0 -0)
(2.88393301051936e+18 -0 -0)
(2.91772544546765e+18 -0 -0)
(2.95240901736042e+18 -0 -0)
(2.98802471210945e+18 -0 -0)
(3.02461357701318e+18 -0 -0)
(3.06221665324292e+18 -0 -0)
(3.10087490525819e+18 -0 -0)
(3.14062914744829e+18 -0 -0)
(3.18151996720118e+18 -0 -0)
(3.22358764501677e+18 -0 -0)
(3.26687207162214e+18 -0 -0)
(3.31141266203032e+18 -0 -0)
(3.35724826540988e+18 -0 -0)
(3.40441707243921e+18 -0 -0)
(3.45295651945026e+18 -0 -0)
(3.50290318829059e+18 -0 -0)
(3.55429270351411e+18 -0 -0)
(3.60715962541335e+18 -0 -0)
(3.66153733984105e+18 -0 -0)
(3.71745794383986e+18 -0 -0)
(3.77495212786919e+18 -0 -0)
(3.834049054151e+18 -0 -0)
(3.89477623060322e+18 -0 -0)
(3.95715938058376e+18 -0 -0)
(4.02122230903193e+18 -0 -0)
(4.08698676404643e+18 -0 -0)
(4.15447229335854e+18 -0 -0)
(4.22369609685038e+18 -0 -0)
(4.29467287438907e+18 -0 -0)
(4.36741466851585e+18 -0 -0)
(4.44193070224396e+18 -0 -0)
(4.51822721217427e+18 -0 -0)
(4.59630727640474e+18 -0 -0)
(4.67617063660522e+18 -0 -0)
(4.75781351586735e+18 -0 -0)
(4.84122843127314e+18 -0 -0)
(4.92640400024437e+18 -0 -0)
(5.01332474266845e+18 -0 -0)
(5.10197087793755e+18 -0 -0)
(5.19231811656629e+18 -0 -0)
(5.28433744725328e+18 -0 -0)
(5.37799491938927e+18 -0 -0)
(5.47325142111906e+18 -0 -0)
(5.57006245374669e+18 -0 -0)
(5.66837790129454e+18 -0 -0)
(5.76814179786234e+18 -0 -0)
(5.86929209132372e+18 -0 -0)
(5.9717604034923e+18 -0 -0)
(6.0754717887564e+18 -0 -0)
(6.18034448966672e+18 -0 -0)
(6.28628968991162e+18 -0 -0)
(6.39321126497869e+18 -0 -0)
(6.50100552933491e+18 -0 -0)
(6.60956097967599e+18 -0 -0)
(6.7187580330421e+18 -0 -0)
(6.82846875813763e+18 -0 -0)
(6.93855659638316e+18 -0 -0)
(7.04887606992818e+18 -0 -0)
(7.15927247467546e+18 -0 -0)
(7.26958155143998e+18 -0 -0)
(7.37962909720203e+18 -0 -0)
(7.4892307118153e+18 -0 -0)
(7.59819093935583e+18 -0 -0)
(7.70630378337435e+18 -0 -0)
(7.81335065482291e+18 -0 -0)
(7.91909912695046e+18 -0 -0)
(8.02332294924653e+18 -0 -0)
(8.12573426123841e+18 -0 -0)
(8.22596715400506e+18 -0 -0)
(8.32466818334335e+18 -0 -0)
(8.41901500475561e+18 -0 -0)
(8.51070337031909e+18 -0 -0)
(8.59680787551815e+18 -0 -0)
(8.680451944016e+18 -0 -0)
(8.76062858277019e+18 -0 -0)
(8.83429500193033e+18 -0 -0)
(8.90749363738712e+18 -0 -0)
(8.96680325879363e+18 -0 -0)
(9.02499758167815e+18 -0 -0)
(9.09502297536384e+18 -0 -0)
(9.13744224200771e+18 -0 -0)
(9.18810548774585e+18 -0 -0)
(9.22862119721837e+18 -0 -0)
(9.2571482788651e+18 -0 -0)
(9.30077332305799e+18 -0 -0)
(9.33276541543894e+18 -0 -0)
(9.36626339723419e+18 -0 -0)
(9.38989721102657e+18 -0 -0)
(9.40324739053435e+18 -0 -0)
(9.43451417751675e+18 -0 -0)
(9.43880928638027e+18 -0 -0)
(9.45991831423769e+18 -0 -0)
(9.46421986232046e+18 -0 -0)
(9.48928710009323e+18 -0 -0)
(9.48901947335937e+18 -0 -0)
(9.51019201043701e+18 -0 -0)
(9.51111169775348e+18 -0 -0)
(9.5308532403513e+18 -0 -0)
(9.54377420047652e+18 -0 -0)
(9.63895806429235e+18 -0 -0)
(9.81837837326023e+18 -0 -0)
(1.0051025131449e+19 -0 -0)
(1.02633713874951e+19 -0 -0)
(1.04469886247593e+19 -0 -0)
(1.05901697445011e+19 -0 -0)
(1.07053674380039e+19 -0 -0)
(1.07963447279728e+19 -0 -0)
(1.08775153950401e+19 -0 -0)
(1.09513610164122e+19 -0 -0)
(1.10212655716896e+19 -0 -0)
(1.10887267349102e+19 -0 -0)
(1.11555808489587e+19 -0 -0)
(1.12216332156413e+19 -0 -0)
(1.12877766254327e+19 -0 -0)
(1.13543297404102e+19 -0 -0)
(1.14207044514067e+19 -0 -0)
(1.14875253831589e+19 -0 -0)
(1.15561553129633e+19 -0 -0)
(1.16242515944343e+19 -0 -0)
(1.16949207108305e+19 -0 -0)
(1.17633427204895e+19 -0 -0)
(1.18349740062182e+19 -0 -0)
(1.19035231092791e+19 -0 -0)
(1.19750798552369e+19 -0 -0)
(1.20441126739927e+19 -0 -0)
(1.21150760741863e+19 -0 -0)
(1.21834167612781e+19 -0 -0)
(1.22532538182946e+19 -0 -0)
(1.23193771346902e+19 -0 -0)
(1.23875079551759e+19 -0 -0)
(1.2451197766103e+19 -0 -0)
(1.25169559548832e+19 -0 -0)
(1.25779961256893e+19 -0 -0)
(1.26406799664556e+19 -0 -0)
(1.26994377913052e+19 -0 -0)
(1.27597048845779e+19 -0 -0)
(1.28160787189963e+19 -0 -0)
(1.28739408196958e+19 -0 -0)
(1.29276743831448e+19 -0 -0)
(1.298303859034e+19 -0 -0)
(1.30346224761253e+19 -0 -0)
(1.3087548730279e+19 -0 -0)
(1.31369418761706e+19 -0 -0)
(1.31875476418392e+19 -0 -0)
(1.32342513790122e+19 -0 -0)
(1.32817676160458e+19 -0 -0)
(1.33255795947829e+19 -0 -0)
(1.33697061739906e+19 -0 -0)
(1.34099193502351e+19 -0 -0)
(1.34513206223324e+19 -0 -0)
(1.34892295742259e+19 -0 -0)
(1.35292240927811e+19 -0 -0)
(1.35661207609026e+19 -0 -0)
(1.36054933045181e+19 -0 -0)
(1.36411282175613e+19 -0 -0)
(1.36798849226723e+19 -0 -0)
(1.3713836828412e+19 -0 -0)
(1.37515763594601e+19 -0 -0)
(1.37832189136942e+19 -0 -0)
(1.38190782284527e+19 -0 -0)
(1.38480024327482e+19 -0 -0)
(1.38807189261666e+19 -0 -0)
(1.39072228034194e+19 -0 -0)
(1.39379395696156e+19 -0 -0)
(1.39628146331227e+19 -0 -0)
(1.39935814165669e+19 -0 -0)
(1.40175118566498e+19 -0 -0)
(1.40486968146793e+19 -0 -0)
(1.40718464714131e+19 -0 -0)
(1.41019569779361e+19 -0 -0)
(1.41232954446119e+19 -0 -0)
(1.41505329126751e+19 -0 -0)
(1.4167917832468e+19 -0 -0)
(1.41940834672833e+19 -0 -0)
(1.42079051907728e+19 -0 -0)
(1.42312799348529e+19 -0 -0)
(1.42433954355466e+19 -0 -0)
(1.42648981263478e+19 -0 -0)
(1.42745952501852e+19 -0 -0)
(1.42947840952722e+19 -0 -0)
(1.43021421690254e+19 -0 -0)
(1.43217826748593e+19 -0 -0)
(1.43272447567781e+19 -0 -0)
(1.43469500364508e+19 -0 -0)
(1.43504304915314e+19 -0 -0)
(1.43709024033805e+19 -0 -0)
(1.43736736355897e+19 -0 -0)
(1.43954782736499e+19 -0 -0)
(1.43989410516696e+19 -0 -0)
(1.44214924981858e+19 -0 -0)
(1.44250627092589e+19 -0 -0)
(1.44470305008664e+19 -0 -0)
(1.44495876517033e+19 -0 -0)
(1.44698951274644e+19 -0 -0)
(1.44705907202813e+19 -0 -0)
(1.44887569127634e+19 -0 -0)
(1.44867265024453e+19 -0 -0)
(1.4502208434879e+19 -0 -0)
(1.44973042478218e+19 -0 -0)
(1.45109505019994e+19 -0 -0)
(1.4503482207222e+19 -0 -0)
(1.45174200512135e+19 -0 -0)
(1.4508875781031e+19 -0 -0)
(1.45246326299407e+19 -0 -0)
(1.45060210285079e+19 -0 -0)
)
;

boundaryField
{
    electrode
    {
        type            calculated;
        value           uniform (121304431666.185 -0 -0);
    }
    ground
    {
        type            calculated;
        value           uniform (1.45247655564564e+19 -0 -0);
    }
    otherfaces
    {
        type            empty;
    }
}


// ************************************************************************* //
