/*--------------------------------*- C++ -*----------------------------------*\
| =========                 |                                                 |
| \\      /  F ield         | foam-extend: Open Source CFD                    |
|  \\    /   O peration     | Version:     4.0                                |
|   \\  /    A nd           | Web:         http://www.foam-extend.org         |
|    \\/     M anipulation  |                                                 |
\*---------------------------------------------------------------------------*/
FoamFile
{
    version     2.0;
    format      ascii;
    class       volVectorField;
    location    "2.1e-06";
    object      J_electron;
}
// * * * * * * * * * * * * * * * * * * * * * * * * * * * * * * * * * * * * * //

dimensions      [1 -1 -1 0 0 0 0];

internalField   nonuniform List<vector> 
300
(
(-1.28491147404122e+19 0 0)
(-1.28393097836535e+19 0 0)
(-1.48827073192866e+19 0 0)
(-1.48045732110423e+19 0 0)
(-1.47049463671346e+19 0 0)
(-1.46853790625056e+19 0 0)
(-1.46511254074569e+19 0 0)
(-1.46136488393418e+19 0 0)
(-1.45779151530207e+19 0 0)
(-1.45421986456263e+19 0 0)
(-1.45064596147003e+19 0 0)
(-1.44708475688632e+19 0 0)
(-1.44353506098731e+19 0 0)
(-1.43999690797289e+19 0 0)
(-1.43647131809311e+19 0 0)
(-1.43295902918562e+19 0 0)
(-1.42946071812002e+19 0 0)
(-1.42597703855508e+19 0 0)
(-1.42250863136987e+19 0 0)
(-1.41905608980234e+19 0 0)
(-1.41561997739877e+19 0 0)
(-1.41220082331054e+19 0 0)
(-1.40879912549173e+19 0 0)
(-1.4054153357811e+19 0 0)
(-1.40204987755784e+19 0 0)
(-1.39870313337608e+19 0 0)
(-1.39537542676348e+19 0 0)
(-1.39206707198345e+19 0 0)
(-1.38877831138733e+19 0 0)
(-1.38550935001334e+19 0 0)
(-1.382260355537e+19 0 0)
(-1.37903143676493e+19 0 0)
(-1.37582266265027e+19 0 0)
(-1.37263403974136e+19 0 0)
(-1.36946554655501e+19 0 0)
(-1.36631708236346e+19 0 0)
(-1.3631885207177e+19 0 0)
(-1.36007965023763e+19 0 0)
(-1.35699023056268e+19 0 0)
(-1.35391995706118e+19 0 0)
(-1.35086846181706e+19 0 0)
(-1.34783532214612e+19 0 0)
(-1.34482005672916e+19 0 0)
(-1.34182212913715e+19 0 0)
(-1.33884092729081e+19 0 0)
(-1.33587578905889e+19 0 0)
(-1.33292598305796e+19 0 0)
(-1.32999071769887e+19 0 0)
(-1.32706912928895e+19 0 0)
(-1.32416029619229e+19 0 0)
(-1.32126321609532e+19 0 0)
(-1.31837683416173e+19 0 0)
(-1.31550001659689e+19 0 0)
(-1.31263155930108e+19 0 0)
(-1.30977018877961e+19 0 0)
(-1.30691456566454e+19 0 0)
(-1.30406326070815e+19 0 0)
(-1.30121480115388e+19 0 0)
(-1.29836760664695e+19 0 0)
(-1.29552004365038e+19 0 0)
(-1.29267040145803e+19 0 0)
(-1.28981689106183e+19 0 0)
(-1.28695764137127e+19 0 0)
(-1.28409072058389e+19 0 0)
(-1.2812141084165e+19 0 0)
(-1.2783257168598e+19 0 0)
(-1.27542337285482e+19 0 0)
(-1.27250484218637e+19 0 0)
(-1.26956780341507e+19 0 0)
(-1.26660985869091e+19 0 0)
(-1.26362855233385e+19 0 0)
(-1.26062134108745e+19 0 0)
(-1.25758560675129e+19 0 0)
(-1.25451867029166e+19 0 0)
(-1.25141777854308e+19 0 0)
(-1.24828010985255e+19 0 0)
(-1.24510277253949e+19 0 0)
(-1.24188279749104e+19 0 0)
(-1.23861717650409e+19 0 0)
(-1.23530282254234e+19 0 0)
(-1.23193657504728e+19 0 0)
(-1.22851523927055e+19 0 0)
(-1.22503554365003e+19 0 0)
(-1.22149416591992e+19 0 0)
(-1.21788773339979e+19 0 0)
(-1.21421281825904e+19 0 0)
(-1.21046594438808e+19 0 0)
(-1.20664358375842e+19 0 0)
(-1.20274216669324e+19 0 0)
(-1.19875807910764e+19 0 0)
(-1.19468766873413e+19 0 0)
(-1.19052724304426e+19 0 0)
(-1.18627306391402e+19 0 0)
(-1.18192137064609e+19 0 0)
(-1.17746836959385e+19 0 0)
(-1.17291022221212e+19 0 0)
(-1.16824307625833e+19 0 0)
(-1.16346304200127e+19 0 0)
(-1.15856621115754e+19 0 0)
(-1.1535486457194e+19 0 0)
(-1.14840638720364e+19 0 0)
(-1.14313545100747e+19 0 0)
(-1.13773183795593e+19 0 0)
(-1.13219152547702e+19 0 0)
(-1.12651046711004e+19 0 0)
(-1.12068459063914e+19 0 0)
(-1.11470982296927e+19 0 0)
(-1.10858204999545e+19 0 0)
(-1.10229713406468e+19 0 0)
(-1.09585092686308e+19 0 0)
(-1.08923923004114e+19 0 0)
(-1.08245783368649e+19 0 0)
(-1.07550247563648e+19 0 0)
(-1.06836885904404e+19 0 0)
(-1.06105263422953e+19 0 0)
(-1.0535493879844e+19 0 0)
(-1.04585464495142e+19 0 0)
(-1.03796385279341e+19 0 0)
(-1.02987234830577e+19 0 0)
(-1.02157535874809e+19 0 0)
(-1.01306798904427e+19 0 0)
(-1.00434517314172e+19 0 0)
(-9.95401658233101e+18 0 0)
(-9.86231972025441e+18 0 0)
(-9.76830382785272e+18 0 0)
(-9.67190849817936e+18 0 0)
(-9.57306968338806e+18 0 0)
(-9.47171924450948e+18 0 0)
(-9.36778393834593e+18 0 0)
(-9.26118471012083e+18 0 0)
(-9.15183591908862e+18 0 0)
(-9.03964381548328e+18 0 0)
(-8.92450551265074e+18 0 0)
(-8.80630736950185e+18 0 0)
(-8.68492321500325e+18 0 0)
(-8.56021239426187e+18 0 0)
(-8.43201732219503e+18 0 0)
(-8.30016073241933e+18 0 0)
(-8.1644428560517e+18 0 0)
(-8.02463735778954e+18 0 0)
(-7.88048747601854e+18 0 0)
(-7.73170127397454e+18 0 0)
(-7.57794588430277e+18 0 0)
(-7.4188413812217e+18 0 0)
(-7.25395351591505e+18 0 0)
(-7.08278534406668e+18 0 0)
(-6.90476792086318e+18 0 0)
(-6.71924943568188e+18 0 0)
(-6.52548332313169e+18 0 0)
(-6.32261453019821e+18 0 0)
(-6.10966487686552e+18 0 0)
(-5.88551677765537e+18 0 0)
(-5.64889587310133e+18 0 0)
(-5.39835367877824e+18 0 0)
(-5.13225183263929e+18 0 0)
(-4.84873874685664e+18 0 0)
(-4.54576367947114e+18 0 0)
(-4.22100001405115e+18 0 0)
(-3.87192286387424e+18 0 0)
(-3.49565888911586e+18 0 0)
(-3.08783007436426e+18 0 0)
(-2.64493078449173e+18 0 0)
(-2.15516462190481e+18 0 0)
(-1.54793057732212e+18 0 0)
(-8.63469760072909e+17 0 0)
(4.70672467674792e+17 0 0)
(2.27535794540118e+18 0 0)
(3.25056615957293e+18 0 0)
(3.70499578454501e+18 0 0)
(4.48413248325576e+18 0 0)
(5.47048006864182e+18 0 0)
(5.66409889232454e+18 0 0)
(4.27739877424287e+18 0 0)
(3.50724354969122e+18 0 0)
(2.60400118919227e+18 0 0)
(-3.82792881254957e+17 0 0)
(-1.78651015279437e+18 0 0)
(-2.56095010119326e+18 0 0)
(-2.48641872649519e+18 0 0)
(7.53177053699768e+16 0 0)
(2.94275226239238e+18 0 0)
(7.98530120260151e+18 0 0)
(1.44852046011265e+19 0 0)
(2.0919323414878e+19 0 0)
(2.65837440712746e+19 0 0)
(3.22813151166773e+19 0 0)
(3.2208858515783e+19 0 0)
(3.05419599320365e+19 0 0)
(2.93494577073247e+19 0 0)
(2.25375483457072e+19 0 0)
(1.69392271967112e+19 0 0)
(1.13489738631844e+19 0 0)
(6.11371714884534e+18 0 0)
(6.18628099437429e+18 0 0)
(-2.20233478377127e+18 0 0)
(-1.67953105158977e+18 0 0)
(-3.40397881604669e+18 0 0)
(-2.9842763805708e+18 0 0)
(-3.08890953107889e+18 0 0)
(-3.30980543925823e+18 0 0)
(-3.52666658492917e+18 0 0)
(-3.64538596706553e+18 0 0)
(-3.69207131783282e+18 0 0)
(-3.68641984976609e+18 0 0)
(-3.66282075735678e+18 0 0)
(-3.61665429154927e+18 0 0)
(-3.56843989943342e+18 0 0)
(-3.51337665160491e+18 0 0)
(-3.45551375786504e+18 0 0)
(-3.39499488782138e+18 0 0)
(-3.3337020228872e+18 0 0)
(-3.27183234896532e+18 0 0)
(-3.20866961116616e+18 0 0)
(-3.14511833125531e+18 0 0)
(-3.081265219677e+18 0 0)
(-3.01732177369807e+18 0 0)
(-2.95343991186858e+18 0 0)
(-2.88977121147846e+18 0 0)
(-2.82643842261021e+18 0 0)
(-2.76360902352163e+18 0 0)
(-2.70113374251151e+18 0 0)
(-2.63965034224168e+18 0 0)
(-2.57910966148781e+18 0 0)
(-2.51927054898887e+18 0 0)
(-2.46045364725218e+18 0 0)
(-2.40270052018954e+18 0 0)
(-2.34608343169748e+18 0 0)
(-2.29065926375865e+18 0 0)
(-2.23646592554271e+18 0 0)
(-2.18353292945137e+18 0 0)
(-2.1318804913579e+18 0 0)
(-2.08152142629754e+18 0 0)
(-2.03246160093023e+18 0 0)
(-1.98470059577494e+18 0 0)
(-1.93823247442216e+18 0 0)
(-1.89304671214202e+18 0 0)
(-1.8491281503968e+18 0 0)
(-1.80645827726071e+18 0 0)
(-1.76501533053851e+18 0 0)
(-1.72477509988281e+18 0 0)
(-1.68571086478998e+18 0 0)
(-1.64779740832173e+18 0 0)
(-1.61100455411973e+18 0 0)
(-1.57529475978384e+18 0 0)
(-1.54063812668588e+18 0 0)
(-1.50700136191284e+18 0 0)
(-1.47436201249811e+18 0 0)
(-1.44259307017719e+18 0 0)
(-1.4119607506244e+18 0 0)
(-1.38210307080166e+18 0 0)
(-1.35312734484141e+18 0 0)
(-1.32498351271166e+18 0 0)
(-1.29765052649131e+18 0 0)
(-1.27110015218556e+18 0 0)
(-1.2453013779015e+18 0 0)
(-1.22025618746921e+18 0 0)
(-1.19582675223537e+18 0 0)
(-1.1721465098299e+18 0 0)
(-1.14915580778397e+18 0 0)
(-1.12671040832506e+18 0 0)
(-1.10490491528448e+18 0 0)
(-1.08367875322309e+18 0 0)
(-1.06301790269156e+18 0 0)
(-1.04289999369441e+18 0 0)
(-1.02330539782359e+18 0 0)
(-1.00421501345082e+18 0 0)
(-9.85594431287357e+17 0 0)
(-9.67419979786425e+17 0 0)
(-9.49819603415004e+17 0 0)
(-9.32585726136192e+17 0 0)
(-9.15783316749234e+17 0 0)
(-8.99389548875049e+17 0 0)
(-8.83396075636524e+17 0 0)
(-8.6778973570175e+17 0 0)
(-8.52558884741609e+17 0 0)
(-8.37691635532373e+17 0 0)
(-8.23176953908731e+17 0 0)
(-8.09003776043313e+17 0 0)
(-7.95161216314369e+17 0 0)
(-7.81640059219209e+17 0 0)
(-7.68418794381041e+17 0 0)
(-7.55511705609579e+17 0 0)
(-7.42682187385525e+17 0 0)
(-7.30564151670964e+17 0 0)
(-7.18623629886153e+17 0 0)
(-7.06917738811677e+17 0 0)
(-6.95470686920512e+17 0 0)
(-6.84304674305535e+17 0 0)
(-6.73134699690015e+17 0 0)
(-6.62720141816277e+17 0 0)
(-6.52552177951508e+17 0 0)
(-6.42527311477518e+17 0 0)
(-6.32319246522293e+17 0 0)
(-6.23522459674375e+17 0 0)
(-6.1411513580012e+17 0 0)
(-6.05788338773943e+17 0 0)
(-5.97553989784745e+17 0 0)
(-5.90905477755257e+17 0 0)
(-5.84685618893626e+17 0 0)
(-5.74523358629958e+17 0 0)
)
;

boundaryField
{
    electrode
    {
        type            calculated;
        value           uniform (-1.48856812461827e+19 0 0);
    }
    ground
    {
        type            calculated;
        value           uniform (-5.71937187352883e+17 0 0);
    }
    otherfaces
    {
        type            empty;
    }
}


// ************************************************************************* //
