/*--------------------------------*- C++ -*----------------------------------*\
| =========                 |                                                 |
| \\      /  F ield         | foam-extend: Open Source CFD                    |
|  \\    /   O peration     | Version:     4.0                                |
|   \\  /    A nd           | Web:         http://www.foam-extend.org         |
|    \\/     M anipulation  |                                                 |
\*---------------------------------------------------------------------------*/
FoamFile
{
    version     2.0;
    format      ascii;
    class       volScalarField;
    location    "2.1e-06";
    object      N_electronMean;
}
// * * * * * * * * * * * * * * * * * * * * * * * * * * * * * * * * * * * * * //

dimensions      [0 0 0 1 0 0 0];

internalField   nonuniform List<scalar> 
300
(
6.06699137351421e+16
6.06688151785333e+16
6.06650907080018e+16
6.06580595175727e+16
6.06477286090234e+16
6.06340203202826e+16
6.06168806684665e+16
6.05962719773543e+16
6.05721613118606e+16
6.05445227611175e+16
6.05133363378697e+16
6.04785874691151e+16
6.0440266527828e+16
6.03983683926651e+16
6.03528921436188e+16
6.03038407591402e+16
6.02512208638373e+16
6.01950425155501e+16
6.01353190002691e+16
6.00720666406588e+16
6.00053046308281e+16
5.99350548826126e+16
5.98613418794804e+16
5.97841925276233e+16
5.97036360563147e+16
5.96197039475505e+16
5.9532429782408e+16
5.94418490896871e+16
5.93479992299149e+16
5.92509192280336e+16
5.91506496791273e+16
5.90472327516395e+16
5.89407120419428e+16
5.88311323172946e+16
5.87185393438748e+16
5.86029797588779e+16
5.84845009465602e+16
5.83631509297081e+16
5.8238978247944e+16
5.81120318345226e+16
5.79823609246517e+16
5.78500149608181e+16
5.77150434702726e+16
5.75774959567013e+16
5.74374218133198e+16
5.72948702398795e+16
5.71498901690554e+16
5.70025302069232e+16
5.68528385993849e+16
5.67008632240358e+16
5.65466516414113e+16
5.63902511487246e+16
5.62317087392934e+16
5.60710709824577e+16
5.59083838293455e+16
5.57436924112198e+16
5.55770408729968e+16
5.5408472252138e+16
5.5238028396122e+16
5.50657498834774e+16
5.48916759576161e+16
5.4715844468595e+16
5.45382918031612e+16
5.43590529035752e+16
5.41781613929472e+16
5.39956495063898e+16
5.38115478401139e+16
5.3625885215199e+16
5.3438688628392e+16
5.32499831990761e+16
5.30597921132676e+16
5.28681366132591e+16
5.26750360755416e+16
5.24805079906716e+16
5.22845678300513e+16
5.20872290723514e+16
5.18885032879797e+16
5.16884000769146e+16
5.14869268677767e+16
5.12840887961858e+16
5.10798886960616e+16
5.08743268832119e+16
5.06674009443322e+16
5.04591056643292e+16
5.02494329906993e+16
5.00383720627704e+16
4.9825909104127e+16
4.96120272016399e+16
4.93967061958224e+16
4.91799226518866e+16
4.89616497539865e+16
4.87418573239814e+16
4.85205118719792e+16
4.82975763050876e+16
4.80730096476553e+16
4.78467669377056e+16
4.76187991171865e+16
4.73890529202382e+16
4.71574707584961e+16
4.69239906385707e+16
4.66885460726495e+16
4.64510659155468e+16
4.62114743031061e+16
4.59696906529225e+16
4.57256294673508e+16
4.54792001755534e+16
4.52303070458874e+16
4.49788490537279e+16
4.47247198024301e+16
4.44678073536192e+16
4.42079940228712e+16
4.39451562502623e+16
4.36791645054704e+16
4.34098832476358e+16
4.31371708277437e+16
4.28608793893466e+16
4.25808549261854e+16
4.22969372429661e+16
4.20089597083106e+16
4.17167490371367e+16
4.14201252608569e+16
4.11189017598031e+16
4.08128852689985e+16
4.05018759180831e+16
4.01856670773606e+16
3.98640450689514e+16
3.95367890912203e+16
3.92036712336893e+16
3.88644563749501e+16
3.85189021197625e+16
3.81667588324384e+16
3.78077696745834e+16
3.74416706176381e+16
3.70681904578073e+16
3.66870510478386e+16
3.62979676101421e+16
3.59006487205315e+16
3.54947962359391e+16
3.50801055297894e+16
3.46562657515117e+16
3.42229598798867e+16
3.37798648139833e+16
3.33266516176464e+16
3.28629858489305e+16
3.2388528057847e+16
3.19029342356802e+16
3.14058560098894e+16
3.08969408165722e+16
3.03758320963543e+16
2.98421697460943e+16
2.92955908213473e+16
2.87357299415921e+16
2.81622197744429e+16
2.75746917123321e+16
2.69727763075065e+16
2.63561038816893e+16
2.5724305430956e+16
2.50770135497116e+16
2.44138632174298e+16
2.37344926987398e+16
2.30385447847341e+16
2.23256675814471e+16
2.15955148617776e+16
2.08477458900676e+16
2.00820214420725e+16
1.92979918199041e+16
1.84952748126821e+16
1.76734306949343e+16
1.68319499590348e+16
1.59702788920575e+16
1.50878769219893e+16
1.41843007020627e+16
1.32594140703482e+16
1.23137387159994e+16
1.1348853165104e+16
1.03677892931203e+16
9.37549439312094e+15
8.37929515843431e+15
7.38908050762577e+15
6.41722846017025e+15
5.47819036302243e+15
4.58762441121508e+15
3.76116605064009e+15
3.0128913502995e+15
2.35378164161576e+15
1.79044117957245e+15
1.3243267270789e+15
951707061359726
664358380986682
450839661497030
298017821278698
192615493417478
122476425071019
77408535959621.6
48894521712961.7
30952549886881.2
19753917667761.1
12894796597374.8
8815889790766.32
6429964623134.93
5061982773251.46
4290237289284.33
3840785116893.37
3557994816148.95
3363912511808.42
3219853623944.69
3105779811774.23
3010564360231.42
2927610824101.2
2852756523930.5
2783375444184.7
2717736518630.77
2654671000570.56
2593356336700.45
2533227766900.49
2473893040920
2415091882824.03
2356660520060.29
2298504904558.39
2240585353897.63
2182902010331.94
2125462471546.59
2068300920015.7
2011485657753.24
1955098115480.78
1899227148608.7
1843964115338.58
1789397560692.83
1735612066362.69
1682685929870.91
1630689753240.63
1579687789458.73
1529735230453.81
1480879200731.99
1433159699012.38
1386608633391.88
1341249911670.55
1297101689656.62
1254174556279.15
1212473108286.43
1171997442576.06
1132742036804.57
1094698397956.25
1057854165668.61
1022193364308.52
987697133379.511
954341409118.151
922099674255.47
890945446765.222
860852909718.883
831795821782.651
803746426221.627
776676380145.815
750556359094.324
725357286692.344
701050701034.587
677609158127.616
655004140021.932
633205827485.779
612187343074.999
591923704520.768
572388648906.39
553556561251.845
535401778884.97
517899426829.136
501026108470.275
484759384544.432
469078024960.759
453960165018.716
439382921095.366
425323313384.756
411761033194.454
398678270867.853
386059348254.046
373889473512.693
362154759938.238
350841954119.377
339938089634.769
329431169398.707
319310194660.741
309564773005.628
300183824921.284
291156811602.135
282467000621.397
274090318119.224
266014906816.794
258242290792.604
250774925249.425
243615472305.206
236752792836.286
230167206161.605
223863713901.557
217870191277.584
212184458502.33
206825411080.64
201854070142.568
197363326739.837
193544296089.522
190713337733.594
189433192974.439
)
;

boundaryField
{
    electrode
    {
        type            calculated;
        value           uniform 6.06699137357036e+16;
    }
    ground
    {
        type            calculated;
        value           uniform 189979276440.415;
    }
    otherfaces
    {
        type            empty;
    }
}


// ************************************************************************* //
