/*--------------------------------*- C++ -*----------------------------------*\
| =========                 |                                                 |
| \\      /  F ield         | foam-extend: Open Source CFD                    |
|  \\    /   O peration     | Version:     4.0                                |
|   \\  /    A nd           | Web:         http://www.foam-extend.org         |
|    \\/     M anipulation  |                                                 |
\*---------------------------------------------------------------------------*/
FoamFile
{
    version     2.0;
    format      ascii;
    class       volScalarField;
    location    "2.1e-06";
    object      Phi;
}
// * * * * * * * * * * * * * * * * * * * * * * * * * * * * * * * * * * * * * //

dimensions      [0 0 0 1 0 0 0];

internalField   nonuniform List<scalar> 
300
(
699.999956453303
699.999761063192
699.999345032714
699.998709850326
699.997864725971
699.996808863816
699.995542090278
699.994064656659
699.992376718146
699.990478447324
699.988370051866
699.986051762682
699.983523834548
699.98078654676
699.977840202779
699.974685130005
699.971321679551
699.967750225955
699.963971166836
699.959984922495
699.955791935461
699.951392669963
699.946787611336
699.941977265347
699.936962157449
699.93174283194
699.926319851041
699.920693793874
699.914865255339
699.908834844894
699.902603185217
699.896170910758
699.889538666166
699.882707104606
699.875676885925
699.868448674705
699.861023138163
699.853400943914
699.845582757589
699.837569240291
699.829361045905
699.820958818236
699.812363187997
699.803574769609
699.794594157842
699.785421924273
699.776058613562
699.766504739544
699.756760781131
699.746827178024
699.736704326224
699.726392573347
699.715892213734
699.705203483352
699.694326554483
699.683261530206
699.672008438654
699.660567227045
699.648937755502
699.637119790628
699.625112998859
699.612916939572
699.600531057959
699.587954677655
699.575186993108
699.562227061708
699.549073795653
699.535725953544
699.52218213173
699.508440755363
699.494500069187
699.480358128034
699.466012787037
699.451461691547
699.436702266741
699.421731706925
699.406546964515
699.391144738701
699.375521463761
699.359673297042
699.343596106579
699.327285458348
699.310736603141
699.293944463045
699.276903617511
699.259608288999
699.242052328182
699.224229198679
699.206131961316
699.187753257859
699.169085294223
699.150119823114
699.130848126073
699.11126099488
699.091348712292
699.071101032066
699.050507158212
699.029555723434
699.008234766697
698.986531709859
698.96443333329
698.941925750415
698.918994381083
698.895623923676
698.871798325856
698.847500753839
698.822713560066
698.797418249138
698.771595441874
698.745224837319
698.718285172523
698.690754179891
698.662608541894
698.63382384289
698.604374517794
698.574233797306
698.543373649366
698.511764716483
698.479376248541
698.446176030646
698.41213030551
698.377203689852
698.34135908419
698.304557575367
698.266758331043
698.227918485318
698.187993014536
698.146934602211
698.104693491863
698.061217326433
698.016450972731
697.970336329185
697.92281211493
697.873813637984
697.823272539946
697.771116514299
697.717268994931
697.661648811015
697.604169803778
697.544740399979
697.483263136127
697.419634126423
697.353742466327
697.285469562198
697.214688375833
697.141262570742
697.065045544596
696.98587932943
696.903593337663
696.818002927822
696.728907758652
696.636089894048
696.539311613551
696.438312873689
696.332808353789
696.22248400569
696.106993008912
695.985951010502
695.858930504979
695.725454163654
695.584986913055
695.436926430673
695.280591617495
695.11520943385
694.93989614998
694.753630669081
694.555231807606
694.343184074124
694.115610503048
693.870370822441
693.604975440747
693.316434317919
693.001129251044
692.654947211317
692.273439299913
691.851264379674
691.382635478264
690.861765906739
690.282100974764
689.637329795562
688.920865126288
688.126059353231
687.247488886266
686.279856723106
685.218990318777
684.061738577666
682.805560773268
681.448970813981
679.991944074341
678.434375966453
676.776722812969
675.020284945763
673.166786398402
671.217930232707
669.174875849934
667.038312689232
664.808501353951
662.48522411541
660.068497263661
657.558420790851
654.955352346769
652.259763042197
649.472197347322
646.593631303423
643.625065621513
640.567409621211
637.421479961223
634.187995439047
630.867587725672
627.460801541468
623.968098882788
620.389869589337
616.726599530941
612.978920759482
609.14740735148
605.232558710752
601.234838147876
597.154637898964
592.992326310986
588.748208291813
584.422565779774
580.015629450793
575.527611195718
570.958678145072
566.308988710302
561.578758717628
556.76837176542
551.878167992925
546.908489366334
541.859640434535
536.731924527829
531.525610882069
526.240969005169
520.878236517377
515.437654122933
509.919431515596
504.323780548919
498.650885307404
492.900931560868
487.07407936424
481.170493430665
475.190316108816
469.13369408503
463.000847534223
456.792098753008
450.507746824064
444.148094742759
437.713418735511
431.203997642962
424.620082660159
417.961931923199
411.229773538675
404.423848967829
397.544367074447
390.591557433747
383.565615617796
376.466762611032
369.295188361888
362.051104614148
354.734690587972
347.346145576093
339.885628484258
332.353323682621
324.749368985032
317.073934008305
309.327144044344
301.509159978806
293.620104428217
285.660229117546
277.629770598025
269.529018127778
261.358205239893
253.117612654
244.807467063465
236.428044854332
227.979563837649
219.462296307604
210.876448205006
202.222286236324
193.500002291819
184.709858529979
175.852030217589
166.926769606307
157.934233489001
148.874658389755
139.748186166738
130.555041068956
121.295356797559
111.969351049921
102.577154748537
93.1189832998907
83.5949673236298
74.0053241452546
64.3501867455073
54.6297752188775
44.8442212784061
34.9937466086655
25.0784724402797
15.0986157233775
5.05428060815261
)
;

boundaryField
{
    electrode
    {
        type            fixedValue;
        value           uniform 700;
    }
    ground
    {
        type            fixedValue;
        value           uniform 0;
    }
    otherfaces
    {
        type            empty;
    }
}


// ************************************************************************* //
