/*--------------------------------*- C++ -*----------------------------------*\
| =========                 |                                                 |
| \\      /  F ield         | foam-extend: Open Source CFD                    |
|  \\    /   O peration     | Version:     4.0                                |
|   \\  /    A nd           | Web:         http://www.foam-extend.org         |
|    \\/     M anipulation  |                                                 |
\*---------------------------------------------------------------------------*/
FoamFile
{
    version     2.0;
    format      ascii;
    class       volScalarField;
    location    "2.1e-06";
    object      Te;
}
// * * * * * * * * * * * * * * * * * * * * * * * * * * * * * * * * * * * * * //

dimensions      [0 0 0 1 0 0 0];

internalField   nonuniform List<scalar> 
300
(
28311.4405559047
28311.6058880289
28311.7288819532
28311.8118116109
28311.927411697
28312.073672395
28312.2483540785
28312.4520496327
28312.684797495
28312.9465294216
28313.237240675
28313.5569262718
28313.9055800156
28314.2831995615
28314.6897856531
28315.1253418701
28315.5898747335
28316.0833937213
28316.6059112685
28317.1574427751
28317.7380066192
28318.3476241662
28318.986319778
28319.6541208274
28320.3510577096
28321.0771638543
28321.8324757464
28322.6170329376
28323.4308780625
28324.2740568638
28325.1466182072
28326.0486141034
28326.9800997326
28327.94113347
28328.9317769089
28329.9520948899
28331.0021555306
28332.0820302588
28333.1917938476
28334.3315244458
28335.501303621
28336.701216401
28337.9313513168
28339.1918004471
28340.4826594711
28341.8040277224
28343.1560082432
28344.538707846
28345.9522371783
28347.3967107905
28348.8722472118
28350.3789690271
28351.9170029576
28353.4864799533
28355.0875352867
28356.7203086515
28358.3849442717
28360.0815910127
28361.8104025022
28363.5715372628
28365.3651588423
28367.191435959
28369.0505426593
28370.9426584759
28372.8679685997
28374.8266640642
28376.8189419373
28378.8450055248
28380.9050645858
28382.9993355657
28385.1280418325
28387.291413932
28389.4896898626
28391.723115358
28393.9919441869
28396.2964384707
28398.6368690201
28401.0135156951
28403.4266677738
28405.8766243444
28408.3636947325
28410.8881989367
28413.4504680926
28416.0508449694
28418.6896844853
28421.3673542573
28424.0842351806
28426.8407220429
28429.637224172
28432.4741661195
28435.3519883836
28438.2711481755
28441.2321202336
28444.2353976798
28447.2814929236
28450.3709386312
28453.504288745
28456.682119563
28459.9050308885
28463.1736472483
28466.4886191862
28469.8506246396
28473.2603703998
28476.7185936649
28480.2260636986
28483.7835835957
28487.3919921566
28491.0521658921
28494.7650211711
28498.5315165041
28502.352654991
28506.2294869408
28510.1631126767
28514.154685549
28518.2054151647
28522.3165708663
28526.48948547
28530.7255592891
28535.0262644863
28539.3931497735
28543.8278454854
28548.3320690822
28552.9076311264
28557.556441771
28562.2805178211
28567.0819904373
28571.9631135503
28576.9262730626
28581.9739969412
28587.1089663148
28592.3340276706
28597.6522063184
28603.066721283
28608.5810017966
28614.1987056218
28619.9237394512
28625.7602816805
28631.7128079014
28637.7861194962
28643.9853758249
28650.3161305616
28656.7843728048
28663.3965737684
28670.159739969
28677.0814739916
28684.1700441667
28691.4344647296
28698.8845883594
28706.5312133906
28714.3862084723
28722.4626580294
28730.7750325957
28739.3393890208
28748.1736065746
28757.2976661969
28766.7339826225
28776.5077983474
28786.6476586249
28797.1859806963
28808.1597476876
28819.6114875904
28831.5903415581
28844.154137234
28857.3789450081
28871.3567173449
28886.2623996055
28902.3572859821
28919.7441235407
28938.3925338962
28958.4482134694
28980.2180057673
29003.8824949671
29029.3082020278
29056.5934611561
29086.208709584
29118.0591227962
29152.3928015671
29190.4442318751
29233.6602016831
29284.9221689016
29348.4397996041
29430.4414050982
29541.9070383208
29698.8534676447
29924.6995200846
30257.6219743901
30749.4644028503
31469.608816522
32548.688752876
34175.0330202946
36614.7215458524
40360.0443785523
46199.3530317413
55675.3113775262
69764.937187265
88408.6145378338
114545.298532883
148261.441527826
191389.412400963
242484.205189175
298227.338063227
354528.620330534
408183.634877424
457331.195346244
501201.889732956
539834.418361781
573699.771656294
603343.609497769
629412.333536623
652486.920276292
673056.67357316
691520.240707648
708228.850646901
723482.694589025
737523.847047723
750552.074368491
762731.931440824
774199.597684465
785068.156591813
795431.433826062
805369.671692881
814945.915420492
824207.507964013
833199.55380567
841961.574744852
850523.346264245
858908.792505773
867136.403879523
875220.049490231
883169.627986533
890991.536553935
898689.074625497
906262.779609668
913710.720762488
921028.756097061
928210.754945445
935248.801171091
942133.376964737
948853.526205649
955397.006125981
961750.430694308
967899.354213296
973828.391398519
979521.508884051
984962.130893059
990133.153855534
995016.887950023
999596.914303579
1003852.09170231
1007761.6819993
1011309.65003627
1014477.1884304
1017245.59891012
1019595.84976149
1021508.8704792
1022964.86750595
1023945.00711475
1024418.05032737
1024390.20077125
1023827.75204301
1022712.55174794
1021023.97298648
1018742.18892789
1015847.02590295
1012318.14521148
1008134.93800779
1003277.01078666
997724.643220826
991453.801939758
984441.301058476
976666.795917242
968106.484493986
958735.823161744
948529.058788972
937459.262403523
925498.158735975
912615.962492931
898781.175059186
883960.380614559
868117.925581304
851216.107877393
833213.769061749
814075.793350227
793753.74416508
772190.587765148
749334.899677621
725120.126811154
699468.777538756
672306.388636323
643543.628510875
613068.629861717
580757.033850309
546470.590624601
510021.79626568
471185.339346154
429678.052338199
385099.10685129
336897.968082078
284266.230074931
226144.870256187
)
;

boundaryField
{
    electrode
    {
        type            electronTemperature;
        seec            0.05;
        Tse             1000;
        Edepend         1;
        TFN             1000;
        field_emission  0;
        field_enhancement_factor 55;
        work_function   5;
        value           uniform 28311.4405559047;
    }
    ground
    {
        type            electronTemperature;
        seec            0.05;
        Tse             1000;
        Edepend         1;
        TFN             1000;
        field_emission  0;
        field_enhancement_factor 55;
        work_function   5;
        value           uniform 193147.719286711;
    }
    otherfaces
    {
        type            empty;
    }
}


// ************************************************************************* //
