/*--------------------------------*- C++ -*----------------------------------*\
| =========                 |                                                 |
| \\      /  F ield         | foam-extend: Open Source CFD                    |
|  \\    /   O peration     | Version:     4.0                                |
|   \\  /    A nd           | Web:         http://www.foam-extend.org         |
|    \\/     M anipulation  |                                                 |
\*---------------------------------------------------------------------------*/
FoamFile
{
    version     2.0;
    format      ascii;
    class       volScalarField;
    location    "2.1e-06";
    object      TeMean;
}
// * * * * * * * * * * * * * * * * * * * * * * * * * * * * * * * * * * * * * //

dimensions      [0 0 0 1 0 0 0];

internalField   nonuniform List<scalar> 
300
(
29559.6352102791
29559.9599135437
29559.9820435817
29559.7320199216
29559.4134619478
29559.0061004756
29558.514817197
29557.9446590346
29557.2969321231
29556.573455331
29555.7759198407
29554.905966232
29553.965171344
29552.9550098675
29551.8769004331
29550.732200271
29549.5222018189
29548.2481470065
29546.9112258023
29545.5125756063
29544.0532896463
29542.5344104895
29540.9569372724
29539.3218233846
29537.6299751631
29535.8822852975
29534.079610493
29532.2227633003
29530.3125381954
29528.3496760433
29526.3348600383
29524.2687902678
29522.1521761046
29519.9856763285
29517.7699160139
29515.5054741302
29513.1929078058
29510.8327791222
29508.4256284222
29505.9719604683
29503.4722505246
29500.9269788418
29498.3366054782
29495.7015613875
29493.0222588351
29490.2990903338
29487.532426956
29484.7226151746
29481.8699667082
29478.9747580922
29476.0372312676
29473.0576381542
29470.0362656539
29466.9733793762
29463.8692379377
29460.7241108423
29457.5382300119
29454.3117954719
29451.0450142926
29447.7380808212
29444.3911715133
29441.0044722099
29437.5781039903
29434.1121540692
29430.6067830501
29427.0621791985
29423.4785012233
29419.8558839082
29416.1944490583
29412.4943197088
29408.7555947177
29404.9783214374
29401.1625742492
29397.3084425777
29393.4159650092
29389.4851361683
29385.515990907
29381.5086264897
29377.4630848853
29373.3793703368
29369.2575530694
29365.0977063914
29360.899839116
29356.6639174477
29352.3898935821
29348.0777737447
29343.7276035801
29339.3393825887
29334.9130696434
29330.44864116
29325.9460226739
29321.4051225544
29316.8259775883
29312.2085651682
29307.5528140313
29302.858707131
29298.1261914114
29293.3552081453
29288.5456745854
29283.6975085399
29278.8106720375
29273.8850311316
29268.9204329887
29263.9168197237
29258.8741075105
29253.792180625
29248.6708980236
29243.5101143781
29238.3097128769
29233.0695580118
29227.7895039669
29222.4693859866
29217.1090004193
29211.7081933153
29206.2667643739
29200.7844549579
29195.2609755852
29189.6960847657
29184.0895882536
29178.4411497829
29172.7503899075
29167.0169431281
29161.2403995823
29155.4203734676
29149.5565203622
29143.6484096777
29137.6954975775
29131.6972588322
29125.6531717478
29119.5625951227
29113.4248214347
29107.2391438186
29101.0048313739
29094.7209552572
29088.3864726494
29082.0004696409
29075.5619690108
29069.0697928064
29062.5227164039
29055.9195095412
29049.2588415573
29042.539225036
29035.7590164975
29028.9164128234
29022.0095532408
29015.0365799409
29007.9955582647
29000.8844831362
28993.7010527612
28986.4427887539
28979.1073439369
28971.692196116
28964.1947105457
28956.6124037829
28948.9426557014
28941.1828272449
28933.3304918771
28925.383578094
28917.3404683263
28909.2000416014
28900.9624575089
28892.6296193018
28884.2057640863
28875.7004785293
28867.132895982
28858.5355007253
28849.9545067204
28841.4427755735
28833.0437412559
28824.7957536543
28816.7420279217
28808.8674266265
28801.0572749976
28793.1266070393
28784.8489893969
28775.8796059809
28765.7324302096
28754.027227752
28740.5236791385
28725.3053409061
28709.2701490349
28694.5746816427
28685.6191840499
28690.1255148709
28720.7301702764
28797.7402529499
28952.7091559569
29234.1003384546
29717.2340618634
30521.6973090468
31839.3011764528
33986.3609568685
37496.1924437177
43440.0401821924
53092.1514190415
67342.4345632582
88539.2765807198
117773.495877474
157152.201572225
206323.124486594
263756.715651119
326139.03380082
389788.714004844
450835.716629481
506465.54325034
555362.113867118
597494.875492569
633516.011706179
664373.286065309
691000.523688617
714158.739346413
734461.306959908
752424.544959541
768471.11316957
782941.277401175
796109.412139975
808197.353766115
819385.593131711
829820.998286745
839620.054697
848878.152349483
857674.636246486
866075.481169267
874136.890802894
881903.820705101
889412.389762969
896691.576005025
903764.242574183
910648.035647623
917356.1004865
923897.691203967
930278.686575961
936502.016113312
942567.790704253
948473.738066746
954215.653678078
959787.449044412
965181.399227646
970388.312113836
975397.71358069
980197.972573392
984776.417837805
989119.558549427
993213.242650321
997042.730111641
1000592.96747906
1003847.78693986
1006790.30728394
1009404.30192123
1011673.68473858
1013582.08660907
1015112.85382252
1016249.22412782
1016974.35496384
1017271.37448504
1017123.0826785
1016512.91408554
1015417.97038188
1013834.53504164
1011738.97179653
1009114.61523709
1005944.09405519
1002210.39969995
997896.338618988
992984.602075186
987457.663652616
981297.731610537
974487.119614055
967007.922169332
958841.060550186
949966.643901378
940364.829565198
930015.436866869
918896.817438374
906985.940791762
894258.469466184
880688.68249868
866249.27048559
850911.244730445
834643.617763377
817413.22300667
799184.314150286
779921.142944451
759583.634666432
738122.298678332
715486.423037562
691619.478153561
666452.849372725
639915.303401268
611925.479616092
582383.247284852
551173.127459036
518165.36074431
483188.936762671
446034.694326893
406438.285453537
364023.838818642
318283.194855818
268478.518836235
213618.666130607
)
;

boundaryField
{
    electrode
    {
        type            calculated;
        value           uniform 29559.6352102849;
    }
    ground
    {
        type            calculated;
        value           uniform 182562.376339882;
    }
    otherfaces
    {
        type            empty;
    }
}


// ************************************************************************* //
