/*--------------------------------*- C++ -*----------------------------------*\
| =========                 |                                                 |
| \\      /  F ield         | foam-extend: Open Source CFD                    |
|  \\    /   O peration     | Version:     4.0                                |
|   \\  /    A nd           | Web:         http://www.foam-extend.org         |
|    \\/     M anipulation  |                                                 |
\*---------------------------------------------------------------------------*/
FoamFile
{
    version     2.0;
    format      ascii;
    class       volScalarField;
    location    "8.6e-06";
    object      Ar;
}
// * * * * * * * * * * * * * * * * * * * * * * * * * * * * * * * * * * * * * //

dimensions      [0 0 0 1 0 0 0];

internalField   nonuniform List<scalar> 
300
(
3.21880187896502e+22
3.21880187470028e+22
3.21880187768175e+22
3.21880187892527e+22
3.21880188101535e+22
3.21880188390521e+22
3.21880188742083e+22
3.21880189162984e+22
3.21880189651983e+22
3.21880190208734e+22
3.21880190833293e+22
3.2188019152554e+22
3.21880192285424e+22
3.21880193112911e+22
3.21880194007977e+22
3.21880194970615e+22
3.21880196000858e+22
3.21880197098703e+22
3.21880198264156e+22
3.21880199497243e+22
3.21880200797997e+22
3.21880202166458e+22
3.21880203602672e+22
3.2188020510669e+22
3.21880206678727e+22
3.2188020831872e+22
3.21880210026747e+22
3.21880211802907e+22
3.21880213647189e+22
3.21880215559668e+22
3.21880217540612e+22
3.2188021959004e+22
3.21880221707906e+22
3.21880223894295e+22
3.21880226149298e+22
3.21880228473012e+22
3.21880230865583e+22
3.21880233327096e+22
3.21880235857634e+22
3.21880238457317e+22
3.21880241126269e+22
3.21880243864599e+22
3.21880246672433e+22
3.21880249549899e+22
3.21880252497131e+22
3.21880255514268e+22
3.21880258601474e+22
3.2188026175891e+22
3.21880264986831e+22
3.21880268285433e+22
3.2188027165502e+22
3.21880275095654e+22
3.21880278607573e+22
3.21880282190786e+22
3.21880285845402e+22
3.21880289571448e+22
3.21880293369081e+22
3.21880297238467e+22
3.21880301179773e+22
3.21880305193191e+22
3.21880309278874e+22
3.21880313437e+22
3.218803176678e+22
3.21880321971654e+22
3.2188032634872e+22
3.21880330798945e+22
3.2188033532251e+22
3.21880339919596e+22
3.21880344590391e+22
3.21880349335084e+22
3.21880354153884e+22
3.21880359047066e+22
3.21880364014847e+22
3.21880369057355e+22
3.21880374174928e+22
3.21880379367757e+22
3.21880384635978e+22
3.21880389979835e+22
3.21880395399327e+22
3.21880400894957e+22
3.2188040646658e+22
3.21880412114371e+22
3.21880417838557e+22
3.2188042363931e+22
3.21880429516972e+22
3.21880435471659e+22
3.21880441503444e+22
3.21880447612513e+22
3.21880453799174e+22
3.21880460063535e+22
3.21880466405842e+22
3.21880472826724e+22
3.21880479325814e+22
3.21880485903271e+22
3.21880492559272e+22
3.21880499293992e+22
3.21880506107604e+22
3.21880513000282e+22
3.21880519972304e+22
3.21880527023835e+22
3.21880534154974e+22
3.21880541365869e+22
3.21880548656998e+22
3.21880556028221e+22
3.21880563479766e+22
3.21880571011881e+22
3.21880578624657e+22
3.21880586318481e+22
3.21880594092954e+22
3.21880601948202e+22
3.2188060988486e+22
3.21880617903093e+22
3.21880626003187e+22
3.21880634185381e+22
3.21880642449913e+22
3.21880650797172e+22
3.21880659227552e+22
3.21880667741011e+22
3.2188067633774e+22
3.21880685018015e+22
3.21880693782293e+22
3.21880702630634e+22
3.21880711563512e+22
3.21880720581007e+22
3.21880729683184e+22
3.21880738870241e+22
3.21880748142634e+22
3.2188075750036e+22
3.21880766943697e+22
3.21880776472832e+22
3.21880786088086e+22
3.21880795789663e+22
3.21880805577774e+22
3.21880815452841e+22
3.21880825415386e+22
3.21880835465381e+22
3.21880845602944e+22
3.2188085582848e+22
3.21880866142333e+22
3.21880876544568e+22
3.21880887035496e+22
3.21880897615437e+22
3.21880908284862e+22
3.21880919044238e+22
3.21880929893955e+22
3.21880940833955e+22
3.21880951864522e+22
3.21880962985943e+22
3.2188097419864e+22
3.218809855032e+22
3.21880996899587e+22
3.21881008388097e+22
3.21881019969409e+22
3.21881031643458e+22
3.21881043410515e+22
3.21881055270653e+22
3.21881067224675e+22
3.21881079271214e+22
3.21881091411966e+22
3.21881103643257e+22
3.21881115970926e+22
3.21881128383234e+22
3.21881140897311e+22
3.21881153483015e+22
3.21881166184592e+22
3.21881178941953e+22
3.21881191666935e+22
3.21881204485356e+22
3.21881217440491e+22
3.21881230472708e+22
3.21881243584417e+22
3.21881256674962e+22
3.21881269828139e+22
3.21881282915208e+22
3.21881296022503e+22
3.21881309361296e+22
3.21881322625071e+22
3.21881335539232e+22
3.2188134857726e+22
3.21881361650283e+22
3.21881374123871e+22
3.21881386498071e+22
3.21881398784119e+22
3.21881410146924e+22
3.21881421403029e+22
3.21881432045122e+22
3.21881441746927e+22
3.21881450981808e+22
3.21881459564933e+22
3.21881466917455e+22
3.2188147371881e+22
3.21881479823895e+22
3.21881485018004e+22
3.21881489118395e+22
3.21881492703237e+22
3.21881495162999e+22
3.21881496981849e+22
3.21881498196452e+22
3.21881499112091e+22
3.21881499806312e+22
3.21881500056826e+22
3.21881499768792e+22
3.21881499399662e+22
3.21881499241536e+22
3.21881499680765e+22
3.21881500483952e+22
3.21881501450672e+22
3.2188150243521e+22
3.21881503303254e+22
3.21881504046854e+22
3.21881504676537e+22
3.21881505205584e+22
3.21881505653424e+22
3.21881506167199e+22
3.21881506729867e+22
3.21881507246451e+22
3.2188150770934e+22
3.21881508134262e+22
3.2188150851903e+22
3.21881508877249e+22
3.21881509203384e+22
3.21881509515461e+22
3.21881509804856e+22
3.21881510081843e+22
3.21881510336189e+22
3.21881510719625e+22
3.21881511100721e+22
3.21881511477093e+22
3.21881511828045e+22
3.21881512176936e+22
3.2188151250141e+22
3.21881512826065e+22
3.21881513126551e+22
3.21881513428901e+22
3.2188151370715e+22
3.21881513988561e+22
3.21881514245661e+22
3.21881514507233e+22
3.21881514744055e+22
3.21881514986638e+22
3.21881515203923e+22
3.218815154601e+22
3.21881515766009e+22
3.21881516078482e+22
3.21881516365501e+22
3.21881516660175e+22
3.21881516929015e+22
3.21881517206808e+22
3.21881517458298e+22
3.21881517719946e+22
3.21881517955071e+22
3.21881518201256e+22
3.21881518420995e+22
3.21881518652633e+22
3.21881518857876e+22
3.21881519075593e+22
3.21881519266733e+22
3.21881519471165e+22
3.21881519648879e+22
3.21881519840514e+22
3.21881520005332e+22
3.21881520184893e+22
3.218815203376e+22
3.21881520505707e+22
3.21881520646714e+22
3.21881520869434e+22
3.2188152106505e+22
3.21881521283722e+22
3.21881521468023e+22
3.21881521676795e+22
3.21881521850377e+22
3.21881522049823e+22
3.21881522213324e+22
3.21881522404134e+22
3.21881522558154e+22
3.21881522740938e+22
3.21881522886004e+22
3.21881523061169e+22
3.218815231976e+22
3.21881523365499e+22
3.21881523493714e+22
3.21881523655133e+22
3.21881523777644e+22
3.21881523936554e+22
3.21881524054188e+22
3.21881524207603e+22
3.21881524318381e+22
3.21881524466152e+22
3.21881524570224e+22
3.218815247167e+22
3.21881524821843e+22
3.21881524966764e+22
3.21881525065385e+22
3.21881525211861e+22
3.21881525314034e+22
3.21881525460679e+22
3.21881525568451e+22
3.21881525726896e+22
3.21881525867672e+22
3.21881526138265e+22
)
;

boundaryField
{
    electrode
    {
        type            zeroGradient;
    }
    ground
    {
        type            zeroGradient;
    }
    otherfaces
    {
        type            empty;
    }
}


// ************************************************************************* //
