/*--------------------------------*- C++ -*----------------------------------*\
| =========                 |                                                 |
| \\      /  F ield         | foam-extend: Open Source CFD                    |
|  \\    /   O peration     | Version:     4.0                                |
|   \\  /    A nd           | Web:         http://www.foam-extend.org         |
|    \\/     M anipulation  |                                                 |
\*---------------------------------------------------------------------------*/
FoamFile
{
    version     2.0;
    format      ascii;
    class       volScalarField;
    location    "8.6e-06";
    object      Arm;
}
// * * * * * * * * * * * * * * * * * * * * * * * * * * * * * * * * * * * * * //

dimensions      [0 0 0 1 0 0 0];

internalField   nonuniform List<scalar> 
300
(
3.57410793868255e+15
3.57598147851944e+15
3.57792878826304e+15
3.57923506207748e+15
3.58005138343144e+15
3.58042999579584e+15
3.58041509632927e+15
3.58003813634252e+15
3.57932477804995e+15
3.57829700058878e+15
3.57697058624033e+15
3.57535962041681e+15
3.57347615725014e+15
3.57133079982532e+15
3.56893300557362e+15
3.56629131417031e+15
3.56341056217348e+15
3.56029932912981e+15
3.556965953534e+15
3.55341691761209e+15
3.54965842281638e+15
3.545696390793e+15
3.54153651152047e+15
3.53718420407151e+15
3.53262887227462e+15
3.52788817806474e+15
3.52296584673308e+15
3.51786391715649e+15
3.51259594577685e+15
3.50716679615817e+15
3.50156278721136e+15
3.49579526063651e+15
3.48988228834752e+15
3.48382927545749e+15
3.47764130823458e+15
3.471323180446e+15
3.46487508545669e+15
3.45830352914456e+15
3.45161557318713e+15
3.44481475921501e+15
3.43790459403655e+15
3.43089034820088e+15
3.42377590473867e+15
3.41656495516535e+15
3.40926099956942e+15
3.40186729793199e+15
3.39438479985271e+15
3.38681493641153e+15
3.37914997175462e+15
3.37138846486616e+15
3.36351787664979e+15
3.35555063633708e+15
3.34748142289591e+15
3.33932789764925e+15
3.33109822528404e+15
3.32280873902299e+15
3.31446276216012e+15
3.30606321087366e+15
3.2976126540211e+15
3.28911152022768e+15
3.2805641141244e+15
3.27197254107806e+15
3.26333344007332e+15
3.2546289123462e+15
3.24586293553999e+15
3.23706101636727e+15
3.2282252888137e+15
3.21935759265033e+15
3.21045951373192e+15
3.2015324081118e+15
3.1925754231048e+15
3.1835814283377e+15
3.17454889273293e+15
3.16548521014089e+15
3.15637689977406e+15
3.14722500426929e+15
3.13803583980545e+15
3.12880533602556e+15
3.11955334379796e+15
3.11024950237567e+15
3.10092823020207e+15
3.0915917003741e+15
3.08223684700314e+15
3.07286589205667e+15
3.06346408425174e+15
3.05403913343124e+15
3.0446027186506e+15
3.03515515880688e+15
3.0256845982103e+15
3.01619873365859e+15
3.0066915070899e+15
2.99711810296342e+15
2.98753352969687e+15
2.97793951476182e+15
2.96833608992139e+15
2.95872328090716e+15
2.94910086943032e+15
2.93946840527607e+15
2.92981498898756e+15
2.92014055172036e+15
2.91045133716961e+15
2.90074857724475e+15
2.89100066755776e+15
2.88123666518176e+15
2.87144741621641e+15
2.86162361739728e+15
2.85178019122159e+15
2.8418976348562e+15
2.8319863129345e+15
2.82205167305772e+15
2.81209185690905e+15
2.80210456941103e+15
2.79208208878579e+15
2.78202219335111e+15
2.77192263619544e+15
2.76176578949013e+15
2.75153284325424e+15
2.74124848196789e+15
2.73091360442478e+15
2.72052011506295e+15
2.71004172368336e+15
2.69949125412955e+15
2.68883985644818e+15
2.67809785957311e+15
2.66727666928627e+15
2.65637406399888e+15
2.64536205408668e+15
2.63425794883663e+15
2.62305098359099e+15
2.61173907922874e+15
2.60030663576679e+15
2.58874976125646e+15
2.57706342375995e+15
2.56522155472127e+15
2.55318780240172e+15
2.54098090202981e+15
2.52860475291182e+15
2.51603437199417e+15
2.50325093822803e+15
2.49026348208551e+15
2.47705605835412e+15
2.46361198672109e+15
2.44989914873257e+15
2.43588545864124e+15
2.42154636668205e+15
2.40690153782175e+15
2.39193616132269e+15
2.37663385173598e+15
2.36096406480282e+15
2.34487804669328e+15
2.32838805869278e+15
2.31146935210747e+15
2.29405982782414e+15
2.27615816454795e+15
2.25774608126678e+15
2.2387739137665e+15
2.21919847357995e+15
2.19901910431516e+15
2.17821664803793e+15
2.15674620485364e+15
2.13457218760017e+15
2.1116794305681e+15
2.08802980755129e+15
2.06363573154599e+15
2.03848418050477e+15
2.01252078510756e+15
1.98576627831871e+15
1.95826516154432e+15
1.93004645127778e+15
1.90115213988949e+15
1.87165072342454e+15
1.84157568986522e+15
1.81101945617418e+15
1.78015343628832e+15
1.74917149789989e+15
1.71824354576028e+15
1.68754878316884e+15
1.65728624336922e+15
1.62769451809706e+15
1.59892931763333e+15
1.57114490981959e+15
1.5444882409305e+15
1.51904084090575e+15
1.49491725555828e+15
1.4721174065808e+15
1.45055146134414e+15
1.43025889875676e+15
1.41118933594808e+15
1.39325703417694e+15
1.3763814891628e+15
1.36046923354043e+15
1.34557220443631e+15
1.33218501853614e+15
1.32539288494243e+15
1.35137062560893e+15
1.41732632726661e+15
1.49730350543377e+15
1.56357039848839e+15
1.62425252364902e+15
1.69033263062642e+15
1.76120108345074e+15
1.83220820261998e+15
1.87882340010372e+15
1.87709505872764e+15
1.83613443741673e+15
1.77566148505907e+15
1.71554603867908e+15
1.6660746478426e+15
1.63046785345639e+15
1.60649804463339e+15
1.59073147622739e+15
1.58116217194418e+15
1.57488164426822e+15
1.5717375219947e+15
1.56953651775337e+15
1.56763662052641e+15
1.56631370873607e+15
1.56508934441536e+15
1.56362445958598e+15
1.56172481075148e+15
1.55924963132059e+15
1.55562670102563e+15
1.55092076014081e+15
1.5453681188525e+15
1.53904416326651e+15
1.53210692373791e+15
1.5246050334892e+15
1.51657245108497e+15
1.50806274176283e+15
1.49913792820059e+15
1.48983889908646e+15
1.48022264029391e+15
1.47035049270691e+15
1.46026596229983e+15
1.45001435376111e+15
1.43965542921632e+15
1.42921380419879e+15
1.41874571819207e+15
1.40827426040755e+15
1.39784025362499e+15
1.38747057025404e+15
1.3771814388222e+15
1.36700954951868e+15
1.35696079347215e+15
1.34705888444252e+15
1.33733428344798e+15
1.32778591246655e+15
1.31843179877774e+15
1.30928279889782e+15
1.30033756811693e+15
1.2916082488926e+15
1.28309469270378e+15
1.27479330491463e+15
1.26670228734302e+15
1.2588261204322e+15
1.25117080632942e+15
1.24373883627784e+15
1.23651649931213e+15
1.22951176100176e+15
1.22271452501271e+15
1.21612505815342e+15
1.2097213980738e+15
1.20350110890802e+15
1.19746504373648e+15
1.19160937105365e+15
1.18592856306e+15
1.18041320113053e+15
1.17505830571112e+15
1.16985144262212e+15
1.16479649895021e+15
1.15988356403109e+15
1.15511493572769e+15
1.15047433381392e+15
1.14596537181344e+15
1.14157483707558e+15
1.13730014453776e+15
1.13313853133651e+15
1.12908900001178e+15
1.12515255289297e+15
1.12132193578956e+15
1.11759506049921e+15
1.11393073957421e+15
1.11018551123116e+15
1.10631482698145e+15
1.10249929005061e+15
1.09875704360636e+15
1.09509703435552e+15
1.09152283659026e+15
1.0880255009223e+15
1.08420568613004e+15
1.08011135295844e+15
1.07611023382195e+15
1.0722119036761e+15
1.06773254276647e+15
1.06304420398831e+15
1.05827079280199e+15
1.05261618083634e+15
1.04644341401412e+15
1.03930203647437e+15
1.03057466771523e+15
)
;

boundaryField
{
    electrode
    {
        type            zeroGradient;
    }
    ground
    {
        type            zeroGradient;
    }
    otherfaces
    {
        type            empty;
    }
}


// ************************************************************************* //
