/*--------------------------------*- C++ -*----------------------------------*\
| =========                 |                                                 |
| \\      /  F ield         | foam-extend: Open Source CFD                    |
|  \\    /   O peration     | Version:     4.0                                |
|   \\  /    A nd           | Web:         http://www.foam-extend.org         |
|    \\/     M anipulation  |                                                 |
\*---------------------------------------------------------------------------*/
FoamFile
{
    version     2.0;
    format      ascii;
    class       volScalarField;
    location    "8.6e-06";
    object      Arp1;
}
// * * * * * * * * * * * * * * * * * * * * * * * * * * * * * * * * * * * * * //

dimensions      [0 0 0 1 0 0 0];

internalField   nonuniform List<scalar> 
300
(
6.73021081013715e+16
6.73447245400017e+16
6.73176770282069e+16
6.73119131570336e+16
6.73013744408546e+16
6.72865010785044e+16
6.72689947833713e+16
6.72481484657923e+16
6.722406376949e+16
6.7196756061365e+16
6.71662068091949e+16
6.71324169326351e+16
6.70953829697568e+16
6.70551011791924e+16
6.7011568016241e+16
6.69647796234113e+16
6.69147319737666e+16
6.68614208626085e+16
6.68048419005605e+16
6.67449905185898e+16
6.66818619682294e+16
6.66154513234113e+16
6.654575348201e+16
6.64727631671126e+16
6.63964749290475e+16
6.631688314732e+16
6.62339820319435e+16
6.61477656259531e+16
6.60582278074629e+16
6.59653622915194e+16
6.58691626324678e+16
6.57696222267442e+16
6.5666734314752e+16
6.55604919835927e+16
6.54508881700678e+16
6.53379156628258e+16
6.52215671055394e+16
6.51018349999914e+16
6.49787117085428e+16
6.48521894576133e+16
6.47222603410461e+16
6.45889163228093e+16
6.44521492408079e+16
6.43119508103967e+16
6.41683126274571e+16
6.40212261724015e+16
6.38706828140149e+16
6.37166738126764e+16
6.35591903247173e+16
6.33982234064874e+16
6.32337640177446e+16
6.30658030263814e+16
6.28943312125412e+16
6.27193392725338e+16
6.25408178234034e+16
6.2358757407539e+16
6.21731484967976e+16
6.19839814971022e+16
6.17912467534684e+16
6.15949345540423e+16
6.13950351352154e+16
6.11915386865958e+16
6.09844353553108e+16
6.07737152512851e+16
6.0559368452319e+16
6.03413850085741e+16
6.01197549480022e+16
5.98944682815348e+16
5.96655150077157e+16
5.94328851181659e+16
5.91965686029548e+16
5.89565554553038e+16
5.87128356771289e+16
5.846539928447e+16
5.82142363122148e+16
5.79593368198206e+16
5.7700690896599e+16
5.74382886667092e+16
5.71721202945609e+16
5.69021759903877e+16
5.66284460151681e+16
5.63509206859088e+16
5.60695903812688e+16
5.57844455463887e+16
5.54954766981774e+16
5.52026744308117e+16
5.49060294204988e+16
5.46055324307261e+16
5.43011743175769e+16
5.39929460343845e+16
5.36808386369118e+16
5.33648432884813e+16
5.30449512645675e+16
5.27211539574904e+16
5.23934428820797e+16
5.20618096801071e+16
5.17262461239013e+16
5.13867441170644e+16
5.10432957063639e+16
5.06958931048579e+16
5.03445286904877e+16
4.99891948699862e+16
4.962988403636e+16
4.92665893073523e+16
4.88993052959371e+16
4.85280245941156e+16
4.81527310081296e+16
4.77734132142166e+16
4.73901088582479e+16
4.70028094185208e+16
4.66114649783119e+16
4.62160734727594e+16
4.58166262990994e+16
4.54131137031976e+16
4.50055260964742e+16
4.45938541123063e+16
4.41780886569239e+16
4.37582209229065e+16
4.33342423937792e+16
4.29061448464791e+16
4.24739203543509e+16
4.20375612905317e+16
4.15970603317748e+16
4.11524104633927e+16
4.07036049853977e+16
4.02506375194422e+16
3.97935020174952e+16
3.93321927724996e+16
3.88667044305096e+16
3.83970320057932e+16
3.79231708987467e+16
3.74451169169787e+16
3.69628663007247e+16
3.64764157531651e+16
3.59857624761524e+16
3.54909042130407e+16
3.49918392996315e+16
3.44885667244583e+16
3.39810862009108e+16
3.34693982528942e+16
3.29535043169717e+16
3.24334068635848e+16
3.19091095435352e+16
3.13806173587043e+16
3.08479368743459e+16
3.031107645904e+16
2.97700465939465e+16
2.92248602249291e+16
2.8675533152992e+16
2.81220847580006e+16
2.75645379300262e+16
2.70029218378833e+16
2.64372674999299e+16
2.58676221868878e+16
2.52940200126957e+16
2.47165497399799e+16
2.41352240815706e+16
2.35502347066097e+16
2.29614893048927e+16
2.23694634976333e+16
2.17736763214853e+16
2.11753903658597e+16
2.05730087945399e+16
1.99696211606659e+16
1.93609173974005e+16
1.87531057477173e+16
1.81553053085909e+16
1.75554394390618e+16
1.69497294453789e+16
1.63445567053819e+16
1.57399900570091e+16
1.5146454791098e+16
1.45559221339133e+16
1.39815350815321e+16
1.3414793217187e+16
1.28342886496094e+16
1.22697137866494e+16
1.17470977775657e+16
1.12171269421136e+16
1.06858058669909e+16
1.02126946246885e+16
9.74311079880649e+15
9.27024896436697e+15
8.87105387358673e+15
8.45690282108397e+15
8.07117294696306e+15
7.7390979468562e+15
7.40671736573863e+15
7.08695084201716e+15
6.83367665257812e+15
6.57690480375635e+15
6.33093784066312e+15
6.11854336458477e+15
5.95650604119301e+15
5.76575747167263e+15
5.60618884904369e+15
5.46164237636785e+15
5.36241422799467e+15
5.27585637868309e+15
5.18879778464852e+15
5.12952636167124e+15
5.11410114894907e+15
5.12331291672731e+15
5.15441209489191e+15
5.16072915763588e+15
5.14673154266154e+15
5.11356427721334e+15
5.06643985383276e+15
5.01624685499091e+15
4.96640880541112e+15
4.91951901829841e+15
4.8763643133954e+15
4.83796690519931e+15
4.78979562443974e+15
4.73576519470886e+15
4.68602534456495e+15
4.64106804375005e+15
4.59980296270205e+15
4.56279074229243e+15
4.52886667932987e+15
4.49872619480779e+15
4.47113984744492e+15
4.4469058310432e+15
4.4247606799687e+15
4.40565254930272e+15
4.37425050293507e+15
4.34364890209732e+15
4.31405213250049e+15
4.28747612226043e+15
4.26152301024389e+15
4.23838724180257e+15
4.21555204852655e+15
4.19539080797072e+15
4.17525666462331e+15
4.15770072626939e+15
4.13993664181584e+15
4.12468708541006e+15
4.10901732190485e+15
4.09582644988331e+15
4.08202235530338e+15
4.07068403181107e+15
4.05537610562996e+15
4.03497782340906e+15
4.0137999634979e+15
3.99502055452063e+15
3.9752981189113e+15
3.95798277744977e+15
3.93957741574514e+15
3.92359698585465e+15
3.9063966365747e+15
3.8916322969342e+15
3.87554572366699e+15
3.86189123476976e+15
3.84683585773525e+15
3.83420482671227e+15
3.82010488432082e+15
3.80843896295803e+15
3.79523364983776e+15
3.78448199180097e+15
3.77213040102442e+15
3.76225210872476e+15
3.75071331178451e+15
3.74167620463019e+15
3.73091420613443e+15
3.72268150699966e+15
3.7061022486295e+15
3.69206745296222e+15
3.67556624537899e+15
3.66235365027772e+15
3.64654169674646e+15
3.63410632074979e+15
3.61893989713415e+15
3.60723967437448e+15
3.59267662884851e+15
3.58167380953297e+15
3.56767839068067e+15
3.55734149539216e+15
3.54388231161659e+15
3.53418318481693e+15
3.52123125153103e+15
3.51214361752244e+15
3.49967283962944e+15
3.49117347724561e+15
3.47915942131042e+15
3.47121769133205e+15
3.45962429100237e+15
3.45221224832589e+15
3.44101483479394e+15
3.43411028068724e+15
3.42328748424053e+15
3.41687239659074e+15
3.40638608676678e+15
3.40042683375106e+15
3.39026275103327e+15
3.38473774690982e+15
3.37485016204282e+15
3.36973068449799e+15
3.3600611724774e+15
3.35312585139634e+15
3.33479281917339e+15
)
;

boundaryField
{
    electrode
    {
        type            driftDiffusionPositiveIonDensity;
        seec            0;
        fieldName       Arp1;
        value           uniform 6.71186537048133e+16;
    }
    ground
    {
        type            driftDiffusionPositiveIonDensity;
        seec            0;
        fieldName       Arp1;
        value           uniform 3.33479281917339e+15;
    }
    otherfaces
    {
        type            empty;
    }
}


// ************************************************************************* //
