/*--------------------------------*- C++ -*----------------------------------*\
| =========                 |                                                 |
| \\      /  F ield         | foam-extend: Open Source CFD                    |
|  \\    /   O peration     | Version:     4.0                                |
|   \\  /    A nd           | Web:         http://www.foam-extend.org         |
|    \\/     M anipulation  |                                                 |
\*---------------------------------------------------------------------------*/
FoamFile
{
    version     2.0;
    format      ascii;
    class       volScalarField;
    location    "8.6e-06";
    object      N_electronMean;
}
// * * * * * * * * * * * * * * * * * * * * * * * * * * * * * * * * * * * * * //

dimensions      [0 0 0 1 0 0 0];

internalField   nonuniform List<scalar> 
300
(
6.18222717116776e+16
6.18207251432598e+16
6.18165369111328e+16
6.18092584730533e+16
6.17989332625428e+16
6.17855283760361e+16
6.17690275831908e+16
6.17494225419131e+16
6.17267046508023e+16
6.17008674563889e+16
6.16719060344423e+16
6.16398168111939e+16
6.1604597484472e+16
6.15662469012927e+16
6.15247649797506e+16
6.14801526310707e+16
6.14324116927769e+16
6.13815448714514e+16
6.13275556870547e+16
6.12704484202026e+16
6.12102280655637e+16
6.1146900287719e+16
6.10804713785862e+16
6.10109482138258e+16
6.09383382209824e+16
6.08626493544574e+16
6.07838900498556e+16
6.0702069178579e+16
6.06171960107704e+16
6.05292801654267e+16
6.04383315780793e+16
6.03443604919846e+16
6.024737741273e+16
6.01473930353048e+16
6.00444181916678e+16
5.99384638087708e+16
5.98295408672585e+16
5.97176603636423e+16
5.96028332689606e+16
5.94850704868394e+16
5.93643828190933e+16
5.92407809307228e+16
5.91142753083422e+16
5.89848762222234e+16
5.88525936935826e+16
5.87174374627436e+16
5.8579416959554e+16
5.84385412771068e+16
5.8294819151635e+16
5.81482589483586e+16
5.79988686617395e+16
5.78466559164239e+16
5.7691627945418e+16
5.75337915490526e+16
5.73731530360618e+16
5.72097181629738e+16
5.70434920822986e+16
5.68744793020876e+16
5.67026836551968e+16
5.65281082695798e+16
5.6350755541731e+16
5.61706271121392e+16
5.598772383798e+16
5.58020457877818e+16
5.56135922624894e+16
5.54223617697941e+16
5.52283519546128e+16
5.50315595581358e+16
5.48319803987319e+16
5.4629609352704e+16
5.44244403349783e+16
5.42164662913891e+16
5.4005679212909e+16
5.37920701264146e+16
5.35756290584121e+16
5.33563450383456e+16
5.31342061166721e+16
5.29091993477496e+16
5.26813107394276e+16
5.2450525222631e+16
5.22168266492352e+16
5.19801977399551e+16
5.17406200343045e+16
5.14980738751488e+16
5.12525384031858e+16
5.10039915680796e+16
5.07524101070874e+16
5.04977694972025e+16
5.02400439356997e+16
4.99792063412094e+16
4.97152283368175e+16
4.94480802645893e+16
4.91777312088281e+16
4.89041489367311e+16
4.86272998427789e+16
4.83471489371782e+16
4.80636598339131e+16
4.77767947394588e+16
4.74865144418681e+16
4.71927783086836e+16
4.68955442841619e+16
4.65947688693866e+16
4.62904071278402e+16
4.5982412706979e+16
4.56707378126124e+16
4.53553331940548e+16
4.50361481467739e+16
4.47131305035484e+16
4.43862266417115e+16
4.40553814801139e+16
4.37205384766726e+16
4.33816396386119e+16
4.3038625532537e+16
4.26914353053593e+16
4.23400066911301e+16
4.19842760178021e+16
4.16241782526656e+16
4.12596470244576e+16
4.08906145949444e+16
4.05170118378234e+16
4.01387682634738e+16
3.97558120588064e+16
3.93680701203404e+16
3.89754680951871e+16
3.85779303741437e+16
3.81753800510717e+16
3.77677389334021e+16
3.73549275735841e+16
3.6936865270545e+16
3.65134700790755e+16
3.60846588408047e+16
3.5650347213988e+16
3.52104496946735e+16
3.4764879635233e+16
3.43135493131998e+16
3.38563700136266e+16
3.33932520295131e+16
3.29241046256558e+16
3.24488360428473e+16
3.19673535299339e+16
3.14795633500871e+16
3.09853707806857e+16
3.04846801289121e+16
2.99773947564362e+16
2.9463417149099e+16
2.89426489729644e+16
2.84149910554974e+16
2.78803433516457e+16
2.73386049051115e+16
2.67896738599931e+16
2.62334475253907e+16
2.56698223682382e+16
2.50986940167492e+16
2.45199573179323e+16
2.3933506321294e+16
2.33392343466564e+16
2.27370340885616e+16
2.21267978107569e+16
2.15084172876521e+16
2.08817834147627e+16
2.02467840408972e+16
1.96032916889972e+16
1.89511456013295e+16
1.82901437203361e+16
1.76200417620389e+16
1.69405404093545e+16
1.62512723142107e+16
1.55518384891846e+16
1.48418666314123e+16
1.41210329072876e+16
1.33890835491564e+16
1.26459093129864e+16
1.18916719615027e+16
1.11269599447305e+16
1.03530149817256e+16
9.57197155216119e+15
8.7869628675526e+15
8.002230115866e+15
7.22327955337849e+15
6.4568258135443e+15
5.71053558176336e+15
4.99273038197657e+15
4.31188962823679e+15
3.67598740478409e+15
3.09190662583501e+15
2.56486533627022e+15
2.09795678729007e+15
1.69200940270955e+15
1.34566234027719e+15
1.05562475683543e+15
817134553457782
624489275446890
471539954814326
352125274487735
260091675024534
190052554114900
137499716028539
98533721312979.5
69865953085310.6
48747948024763
33371617578095.5
22483602370604.2
14859558821464.2
9639584317872.76
6272048546806.38
4244663426603.9
3088753426514.76
2443450654859.28
2078558491895.38
1865172174045.39
1735186396203.03
1652687189598.23
1598079999926.57
1560267624684.79
1532686254189.58
1511263233453.8
1493347064461.13
1477175323912.4
1461636022647.53
1446049262961.08
1429903357691.82
1412851132381.65
1394724649847.23
1375432036893.93
1354955997435.11
1333330335395.71
1310624488047.2
1286930887222.05
1262356621929.13
1237017352417.08
1211032749234.96
1184523576117.12
1157608501145.65
1130402381264.56
1103014989629.17
1075549643184.82
1048102398074.8
1020761939108.9
993608802171.811
966714042459.063
940139434195.922
913939981144.159
888165696904.19
862861148120.272
838065014822.101
813809857303.634
790121600718.275
767020441256.477
744521381946.154
722634895905.295
701368206269.188
680725215999.552
660706390810.353
641309089896.791
622528178410.301
604357520432.874
586787486363.518
569804073873.818
553394542111.423
537547013705.999
522247796926.582
507481947020.02
493234008910.153
479488077364.783
466228093624.22
453438155090.498
441101757616.063
429202161108.229
417722991691.291
406647850101.165
395959920651.951
385641730161.562
375676273968.753
366049993062.076
356751928117.454
347771952252.261
339100636817.846
330729096933.197
322649195081.674
314853579002.951
307335596559.663
300088724325.677
293105831470.328
286371048750.069
279858202126.646
273553745843.299
267463248450.273
261597339687.311
255967552686.577
250566790846.541
245368677950.176
240380493745.098
235647106089.506
231173502889.863
226986596125.925
223169718534.558
219848762516.691
217283533281.142
215905462624.139
216477990882.703
)
;

boundaryField
{
    electrode
    {
        type            calculated;
        value           uniform 6.18222717118156e+16;
    }
    ground
    {
        type            calculated;
        value           uniform 218286057173.048;
    }
    otherfaces
    {
        type            empty;
    }
}


// ************************************************************************* //
