/*--------------------------------*- C++ -*----------------------------------*\
| =========                 |                                                 |
| \\      /  F ield         | foam-extend: Open Source CFD                    |
|  \\    /   O peration     | Version:     4.0                                |
|   \\  /    A nd           | Web:         http://www.foam-extend.org         |
|    \\/     M anipulation  |                                                 |
\*---------------------------------------------------------------------------*/
FoamFile
{
    version     2.0;
    format      ascii;
    class       volScalarField;
    location    "8.6e-06";
    object      Phi;
}
// * * * * * * * * * * * * * * * * * * * * * * * * * * * * * * * * * * * * * //

dimensions      [0 0 0 1 0 0 0];

internalField   nonuniform List<scalar> 
300
(
699.99992933918
699.999707607196
699.999188042372
699.998403121067
699.99736118496
699.996056833716
699.994490933694
699.992663057979
699.990572643035
699.988219200858
699.985602147569
699.98272084776
699.979574612346
699.976162695234
699.972484294213
699.968538550392
699.964324547769
699.959841312832
699.955087814106
699.950062961674
699.944765606673
699.939194540758
699.933348495543
699.927226142007
699.920826089869
699.91414688694
699.90718701843
699.899944906234
699.892418908179
699.884607317235
699.876508360693
699.868120199307
699.859440926393
699.850468566897
699.841201076415
699.831636340175
699.821772171976
699.811606313084
699.801136431078
699.790360118652
699.779274892363
699.76787819134
699.756167375922
699.744139726256
699.731792440834
699.719122634962
699.706127339186
699.692803497632
699.679147966301
699.665157511275
699.650828806869
699.636158433693
699.621142876647
699.605778522826
699.590061659347
699.573988471084
699.557555038308
699.540757334237
699.52359122248
699.506052454374
699.488136666217
699.46983937638
699.4511559823
699.432081757348
699.412611847562
699.392741268245
699.372464900413
699.351777487091
699.330673629457
699.309147782805
699.287194252345
699.264807188808
699.241980583859
699.218708265313
699.194983892123
699.170800949151
699.146152741703
699.1210323898
699.095432822205
699.06934677015
699.042766760787
699.015685110321
698.988093916813
698.959985052652
698.93135015664
698.902180625717
698.872467606258
698.842201984947
698.811374379197
698.779975127081
698.747994276749
698.71542157531
698.682246457128
698.648458031508
698.614045069731
698.578995991398
698.54329885003
698.506941317897
698.469910670035
698.432193767316
698.393777038438
698.354646461003
698.314787542456
698.274185299919
698.232824233627
698.190688295003
698.14776087899
698.104024855821
698.059462487702
698.014055080711
697.967782940393
697.920625614189
697.872561893719
697.823569768744
697.773626384915
697.72270799831
697.670789926801
697.617846498081
697.563850994052
697.508775591269
697.452591297079
697.395267881097
697.336773801579
697.277076126244
697.216140447033
697.153930788219
697.090409507265
697.025537187699
696.959272523236
696.891572192273
696.822390721773
696.75168033944
696.679390812962
696.605469274931
696.529860031879
696.452504355686
696.373340255339
696.292302226823
696.209320978551
696.124323129428
696.037230876225
695.947961626451
695.856427592357
695.762535341073
695.666185295094
695.567271176443
695.465679386815
695.361288314688
695.253967559042
695.143577057496
695.029966104159
694.912972242488
694.79242000666
694.668119508113
694.539864785352
694.407432020743
694.270577271931
694.12903432985
693.98251135561
693.83068866527
693.673213033595
693.509696875804
693.339706663395
693.162767809226
692.978338593879
692.785831536174
692.584525039189
692.373459748306
692.151556921167
691.917668366178
691.67049766645
691.408548815137
691.129997579258
690.832728708064
690.51419038374
690.171512192053
689.801758064473
689.401527885111
688.966634393798
688.492772149344
687.975486538503
687.409430405025
686.789180719443
686.109434457453
685.364056798898
684.547468430419
683.654195035696
682.678559383057
681.615716466222
680.461571370587
679.211913438134
677.86368226598
676.414775310698
674.863529634603
673.208408323952
671.449257669403
669.586242570613
667.619906205702
665.550431920988
663.378334735327
661.10400805215
658.728293603715
656.251020152438
653.671352850186
650.988514407348
648.202213704015
645.312617340393
642.3203173137
639.226216150542
636.031302015611
632.73656774553
629.342951517342
625.851318446171
622.262439015583
618.577280881826
614.796929827179
610.922385543723
606.954551704893
602.894257739344
598.74224801157
594.499204586497
590.165733457252
585.742389357913
581.229659549193
576.627989223671
571.937762516003
567.15961068854
562.294148885787
557.341972009299
552.303614198016
547.179597029453
541.970385412442
536.67643817933
531.298160382178
525.835956500113
520.290179162737
514.661185161749
508.949280723544
503.154780510372
497.277949334661
491.319064324752
485.27835304318
479.156122846726
472.952783442777
466.668760207763
460.30443030414
453.860189851335
447.336386583915
440.733390150771
434.051521459654
427.291125945439
420.452500081173
413.535966924637
406.541800652286
399.470303606439
392.321729408424
385.096361197559
377.794433226815
370.416210667009
362.961909393362
355.431777444776
347.826013151947
340.144848231875
332.388464121101
324.55707693666
316.650851946939
308.670122273586
300.615169856181
292.486326236155
284.283856852119
276.008079401998
267.659243715353
259.237654524735
250.743546888973
242.177213426356
233.538875186221
224.828813383347
216.047235690848
207.194412552944
198.270538830988
189.275874780919
180.210602980197
171.074974019617
161.869158660887
152.593398323315
143.247852562272
133.83275434911
124.348252599974
114.794572326068
105.17185225281
95.4803098718006
85.7200740674562
75.8913555813281
65.9942741440959
56.0290340225224
45.9957462367231
35.8946095164648
25.7257267805335
15.4892924214031
5.18544530319943
)
;

boundaryField
{
    electrode
    {
        type            fixedValue;
        value           uniform 700;
    }
    ground
    {
        type            fixedValue;
        value           uniform 0;
    }
    otherfaces
    {
        type            empty;
    }
}


// ************************************************************************* //
