/*--------------------------------*- C++ -*----------------------------------*\
| =========                 |                                                 |
| \\      /  F ield         | foam-extend: Open Source CFD                    |
|  \\    /   O peration     | Version:     4.0                                |
|   \\  /    A nd           | Web:         http://www.foam-extend.org         |
|    \\/     M anipulation  |                                                 |
\*---------------------------------------------------------------------------*/
FoamFile
{
    version     2.0;
    format      ascii;
    class       volVectorField;
    location    "3e-10";
    object      E;
}
// * * * * * * * * * * * * * * * * * * * * * * * * * * * * * * * * * * * * * //

dimensions      [0 0 0 1 0 0 0];

internalField   nonuniform List<vector> 
249
(
(-0 6796.23359607984 -0)
(-0 4530.1708874976 -0)
(-0 4530.17089468704 -0)
(-0 4530.17090106171 -0)
(-0 4530.17090687554 -0)
(-0 4530.17091310856 -0)
(-0 4530.17091914077 -0)
(-0 4530.17092484232 -0)
(-0 4530.17093079947 -0)
(-0 4530.17093692453 -0)
(-0 4530.17094326631 -0)
(-0 4530.17094963851 -0)
(-0 4530.17095614428 -0)
(-0 4530.17096261263 -0)
(-0 4530.17096895524 -0)
(-0 4530.17097549389 -0)
(-0 4530.17098179495 -0)
(-0 4530.1709876975 -0)
(-0 4530.17099365279 -0)
(-0 4530.17099995466 -0)
(-0 4530.17100663415 -0)
(-0 4530.17101333513 -0)
(-0 4530.17101974372 -0)
(-0 4530.17102633511 -0)
(-0 4530.17103293353 -0)
(-0 4530.17103949018 -0)
(-0 4530.17104648977 -0)
(-0 4530.17105312997 -0)
(-0 4530.17105944591 -0)
(-0 4530.17106607493 -0)
(-0 4530.17107282431 -0)
(-0 4530.17107955839 -0)
(-0 4530.17108655695 -0)
(-0 4530.17109353485 -0)
(-0 4530.17110052163 -0)
(-0 4530.17110781612 -0)
(-0 4530.1711153356 -0)
(-0 4530.17112264002 -0)
(-0 4530.17112962536 -0)
(-0 4530.17113686857 -0)
(-0 4530.17114407682 -0)
(-0 4530.17115141102 -0)
(-0 4530.17115896401 -0)
(-0 4530.17116628869 -0)
(-0 4530.17117346345 -0)
(-0 4530.17118064214 -0)
(-0 4530.1711882065 -0)
(-0 4530.17119593278 -0)
(-0 4530.17120337264 -0)
(-0 4530.17121093679 -0)
(-0 4530.17121858057 -0)
(-0 4530.17122617181 -0)
(-0 4530.17123362761 -0)
(-0 4530.17124112331 -0)
(-0 4530.17124903466 -0)
(-0 4530.17125693238 -0)
(-0 4530.17126443119 -0)
(-0 4530.17127220793 -0)
(-0 4530.17128024667 -0)
(-0 4530.17128803458 -0)
(-0 4530.17129583054 -0)
(-0 4530.17130365692 -0)
(-0 4530.17131162701 -0)
(-0 4530.1713199409 -0)
(-0 4530.17132837576 -0)
(-0 4530.17133667362 -0)
(-0 4530.17134486675 -0)
(-0 4530.17135349579 -0)
(-0 4530.17136206973 -0)
(-0 4530.17137027422 -0)
(-0 4530.17137867931 -0)
(-0 4530.17138726471 -0)
(-0 4530.17139588673 -0)
(-0 4530.17140441723 -0)
(-0 4530.17141300565 -0)
(-0 4530.17142174802 -0)
(-0 4530.17143051985 -0)
(-0 4530.17143934763 -0)
(-0 4530.17144839554 -0)
(-0 4530.1714573141 -0)
(-0 4530.17146630503 -0)
(-0 4530.1714755162 -0)
(-0 4530.17148452978 -0)
(-0 4530.17149359547 -0)
(-0 4530.17150279187 -0)
(-0 4530.17151202434 -0)
(-0 4530.17152140829 -0)
(-0 4530.17153080702 -0)
(-0 4530.17154017474 -0)
(-0 4530.1715496715 -0)
(-0 4530.17155926183 -0)
(-0 4530.17156881018 -0)
(-0 4530.17157838583 -0)
(-0 4530.17158797171 -0)
(-0 4530.17159753796 -0)
(-0 4530.17160731937 -0)
(-0 4530.17161737106 -0)
(-0 4530.17162709395 -0)
(-0 4530.17163682304 -0)
(-0 4530.17164689592 -0)
(-0 4530.17165687452 -0)
(-0 4530.17166696767 -0)
(-0 4530.17167718325 -0)
(-0 4530.17168743926 -0)
(-0 4530.17169771376 -0)
(-0 4530.17170810957 -0)
(-0 4530.17171851302 -0)
(-0 4530.1717289994 -0)
(-0 4530.1717395628 -0)
(-0 4530.17175010481 -0)
(-0 4530.17176077677 -0)
(-0 4530.17177143666 -0)
(-0 4530.17178212279 -0)
(-0 4530.17179296641 -0)
(-0 4530.17180400173 -0)
(-0 4530.17181501398 -0)
(-0 4530.17182590019 -0)
(-0 4530.17183692496 -0)
(-0 4530.17184828742 -0)
(-0 4530.17185960884 -0)
(-0 4530.17187096282 -0)
(-0 4530.17188239124 -0)
(-0 4530.17189378825 -0)
(-0 4530.17190537219 -0)
(-0 4530.17191694745 -0)
(-0 4530.17192856313 -0)
(-0 4530.17194039398 -0)
(-0 4530.17195243162 -0)
(-0 4530.17196434696 -0)
(-0 4530.17197617616 -0)
(-0 4530.17198815457 -0)
(-0 4530.17200016461 -0)
(-0 4530.17201240688 -0)
(-0 4530.17202488469 -0)
(-0 4530.17203728144 -0)
(-0 4530.17204968181 -0)
(-0 4530.17206217265 -0)
(-0 4530.17207455844 -0)
(-0 4530.17208709704 -0)
(-0 4530.17210002816 -0)
(-0 4530.17211295151 -0)
(-0 4530.1721257298 -0)
(-0 4530.17213860486 -0)
(-0 4530.17215176189 -0)
(-0 4530.17216492565 -0)
(-0 4530.17217812848 -0)
(-0 4530.1721914373 -0)
(-0 4530.17220464882 -0)
(-0 4530.17221797553 -0)
(-0 4530.172231496 -0)
(-0 4530.1722451662 -0)
(-0 4530.17225884456 -0)
(-0 4530.17227258061 -0)
(-0 4530.17228644603 -0)
(-0 4530.17230032498 -0)
(-0 4530.17231425728 -0)
(-0 4530.17232838543 -0)
(-0 4530.17234279047 -0)
(-0 4530.17235721164 -0)
(-0 4530.17237150997 -0)
(-0 4530.17238585111 -0)
(-0 4530.17240038167 -0)
(-0 4530.17241499879 -0)
(-0 4530.17242972725 -0)
(-0 4530.17244463842 -0)
(-0 4530.17245953585 -0)
(-0 4530.17247450181 -0)
(-0 4530.17248956612 -0)
(-0 4530.17250474525 -0)
(-0 4530.17252012196 -0)
(-0 4530.17253564179 -0)
(-0 4530.17255128702 -0)
(-0 4530.17256694809 -0)
(-0 4530.17258264792 -0)
(-0 4530.17259845685 -0)
(-0 4530.17261436027 -0)
(-0 4530.17263042986 -0)
(-0 4530.1726465621 -0)
(-0 4530.17266275354 -0)
(-0 4530.17267902962 -0)
(-0 4530.17269538561 -0)
(-0 4530.17271185881 -0)
(-0 4530.17272850612 -0)
(-0 4530.17274530752 -0)
(-0 4530.17276225319 -0)
(-0 4530.17277933395 -0)
(-0 4530.17279647717 -0)
(-0 4530.17281370392 -0)
(-0 4530.17283098238 -0)
(-0 4530.17284835747 -0)
(-0 4530.17286593712 -0)
(-0 4530.17288361558 -0)
(-0 4530.17290132014 -0)
(-0 4530.1729192638 -0)
(-0 4530.17293740909 -0)
(-0 4530.17295559725 -0)
(-0 4530.172973851 -0)
(-0 4530.17299222935 -0)
(-0 4530.17301079418 -0)
(-0 4530.17302949813 -0)
(-0 4530.17304827332 -0)
(-0 4530.17306711908 -0)
(-0 4530.1730861114 -0)
(-0 4530.17310529621 -0)
(-0 4530.17312460544 -0)
(-0 4530.17314405178 -0)
(-0 4530.17316357439 -0)
(-0 4530.17318325079 -0)
(-0 4530.17320316506 -0)
(-0 4530.1732231346 -0)
(-0 4530.17324316048 -0)
(-0 4530.17326335073 -0)
(-0 4530.17328369415 -0)
(-0 4530.17330419913 -0)
(-0 4530.17332486484 -0)
(-0 4530.17334569284 -0)
(-0 4530.17336666713 -0)
(-0 4530.17338773229 -0)
(-0 4530.17340896192 -0)
(-0 4530.17343035616 -0)
(-0 4530.17345187514 -0)
(-0 4530.17347355093 -0)
(-0 4530.17349536636 -0)
(-0 4530.17351736018 -0)
(-0 4530.17353950784 -0)
(-0 4530.17356179558 -0)
(-0 4530.1735842245 -0)
(-0 4530.17360678662 -0)
(-0 4530.17362949982 -0)
(-0 4530.17365237865 -0)
(-0 4530.17367543587 -0)
(-0 4530.17369862854 -0)
(-0 4530.17372197055 -0)
(-0 4530.17374547958 -0)
(-0 4530.17376912635 -0)
(-0 4530.17379291454 -0)
(-0 4530.17381687204 -0)
(-0 4530.17384098356 -0)
(-0 4530.17386524877 -0)
(-0 4530.17388969346 -0)
(-0 4530.17391428331 -0)
(-0 4530.17393901855 -0)
(-0 4530.17396391684 -0)
(-0 4530.1739889682 -0)
(-0 4530.17401416983 -0)
(-0 4530.17403954037 -0)
(-0 4530.17406506786 -0)
(-0 4530.17409074686 -0)
(-0 4530.05343116466 -0)
)
;

boundaryField
{
    dielectric_2
    {
        type            calculated;
        value           uniform (-0 4529.93275870318 -0);
    }
    dielectric_1
    {
        type            calculated;
        value           nonuniform 0();
    }
    otherfaces
    {
        type            empty;
    }
    procBoundary3to2
    {
        type            processor;
        value           uniform (-0 6796.97623918617 -0);
    }
}


// ************************************************************************* //
