/*--------------------------------*- C++ -*----------------------------------*\
| =========                 |                                                 |
| \\      /  F ield         | foam-extend: Open Source CFD                    |
|  \\    /   O peration     | Version:     4.0                                |
|   \\  /    A nd           | Web:         http://www.foam-extend.org         |
|    \\/     M anipulation  |                                                 |
\*---------------------------------------------------------------------------*/
FoamFile
{
    version     2.0;
    format      ascii;
    class       volVectorField;
    location    "9e-10";
    object      E;
}
// * * * * * * * * * * * * * * * * * * * * * * * * * * * * * * * * * * * * * //

dimensions      [0 0 0 1 0 0 0];

internalField   nonuniform List<vector> 
249
(
(-0 20390.0389950361 -0)
(-0 13593.3560701335 -0)
(-0 13593.3559584164 -0)
(-0 13593.3559777928 -0)
(-0 13593.3559640937 -0)
(-0 13593.355996356 -0)
(-0 13593.35602878 -0)
(-0 13593.3560148268 -0)
(-0 13593.3560297472 -0)
(-0 13593.356039242 -0)
(-0 13593.3560519111 -0)
(-0 13593.3560612017 -0)
(-0 13593.3560769218 -0)
(-0 13593.3560840405 -0)
(-0 13593.3560790691 -0)
(-0 13593.3560980541 -0)
(-0 13593.3560900028 -0)
(-0 13593.3560890334 -0)
(-0 13593.3560996259 -0)
(-0 13593.3561253595 -0)
(-0 13593.3561508535 -0)
(-0 13593.3561401185 -0)
(-0 13593.3561191572 -0)
(-0 13593.3561070441 -0)
(-0 13593.3561116271 -0)
(-0 13593.3560913953 -0)
(-0 13593.3560852167 -0)
(-0 13593.3561122905 -0)
(-0 13593.3561301972 -0)
(-0 13593.3561386917 -0)
(-0 13593.3561197449 -0)
(-0 13593.3561119545 -0)
(-0 13593.3561198654 -0)
(-0 13593.3561345878 -0)
(-0 13593.3561558016 -0)
(-0 13593.3561428415 -0)
(-0 13593.3561312954 -0)
(-0 13593.3561158588 -0)
(-0 13593.3560861978 -0)
(-0 13593.3560859907 -0)
(-0 13593.3561064139 -0)
(-0 13593.3561408594 -0)
(-0 13593.3561497304 -0)
(-0 13593.3561373948 -0)
(-0 13593.3561386922 -0)
(-0 13593.356138019 -0)
(-0 13593.3561515632 -0)
(-0 13593.3561585507 -0)
(-0 13593.3561289054 -0)
(-0 13593.3561060054 -0)
(-0 13593.3561213292 -0)
(-0 13593.3561121185 -0)
(-0 13593.3560831106 -0)
(-0 13593.356077074 -0)
(-0 13593.3560717365 -0)
(-0 13593.3560601679 -0)
(-0 13593.3560323733 -0)
(-0 13593.3560158721 -0)
(-0 13593.3560104153 -0)
(-0 13593.3560204745 -0)
(-0 13593.3560506517 -0)
(-0 13593.3560812752 -0)
(-0 13593.356093235 -0)
(-0 13593.3561034043 -0)
(-0 13593.3561013767 -0)
(-0 13593.3560945042 -0)
(-0 13593.3561223216 -0)
(-0 13593.3561231173 -0)
(-0 13593.3561202686 -0)
(-0 13593.3561347306 -0)
(-0 13593.3561396597 -0)
(-0 13593.3561542726 -0)
(-0 13593.3561600542 -0)
(-0 13593.3561814223 -0)
(-0 13593.3562223562 -0)
(-0 13593.3562130659 -0)
(-0 13593.3561979795 -0)
(-0 13593.3562088282 -0)
(-0 13593.3562090842 -0)
(-0 13593.3562153414 -0)
(-0 13593.3562159147 -0)
(-0 13593.3562095703 -0)
(-0 13593.3561958881 -0)
(-0 13593.3561764354 -0)
(-0 13593.3561651686 -0)
(-0 13593.3561743417 -0)
(-0 13593.3561947356 -0)
(-0 13593.3561937176 -0)
(-0 13593.3561751093 -0)
(-0 13593.3561678294 -0)
(-0 13593.3561644318 -0)
(-0 13593.3561422507 -0)
(-0 13593.3561442782 -0)
(-0 13593.3561637948 -0)
(-0 13593.356173091 -0)
(-0 13593.3561792346 -0)
(-0 13593.3561724392 -0)
(-0 13593.3561698742 -0)
(-0 13593.3561837583 -0)
(-0 13593.3561775942 -0)
(-0 13593.3561825482 -0)
(-0 13593.356208405 -0)
(-0 13593.3562099187 -0)
(-0 13593.35622493 -0)
(-0 13593.356244526 -0)
(-0 13593.3562452231 -0)
(-0 13593.3562508747 -0)
(-0 13593.3562491489 -0)
(-0 13593.3562479042 -0)
(-0 13593.3562624688 -0)
(-0 13593.3562659751 -0)
(-0 13593.3562650496 -0)
(-0 13593.3562661356 -0)
(-0 13593.3562703592 -0)
(-0 13593.3562701665 -0)
(-0 13593.3562789075 -0)
(-0 13593.3562984883 -0)
(-0 13593.3563084666 -0)
(-0 13593.3563203603 -0)
(-0 13593.3563227776 -0)
(-0 13593.3563201927 -0)
(-0 13593.3563165307 -0)
(-0 13593.3563248365 -0)
(-0 13593.356341146 -0)
(-0 13593.3563446995 -0)
(-0 13593.356353136 -0)
(-0 13593.3563606608 -0)
(-0 13593.3563578451 -0)
(-0 13593.3563558032 -0)
(-0 13593.3563535567 -0)
(-0 13593.3563594055 -0)
(-0 13593.3563625507 -0)
(-0 13593.3563691265 -0)
(-0 13593.3563792522 -0)
(-0 13593.356385052 -0)
(-0 13593.3563872447 -0)
(-0 13593.3563821635 -0)
(-0 13593.3563838698 -0)
(-0 13593.3563882522 -0)
(-0 13593.356399609 -0)
(-0 13593.356415359 -0)
(-0 13593.3564140537 -0)
(-0 13593.3564201856 -0)
(-0 13593.3564341538 -0)
(-0 13593.3564391288 -0)
(-0 13593.3564362081 -0)
(-0 13593.3564359574 -0)
(-0 13593.3564612873 -0)
(-0 13593.3564840655 -0)
(-0 13593.3564878696 -0)
(-0 13593.3564938861 -0)
(-0 13593.3565018324 -0)
(-0 13593.3565083291 -0)
(-0 13593.3565032445 -0)
(-0 13593.3564901242 -0)
(-0 13593.3564778974 -0)
(-0 13593.3564715166 -0)
(-0 13593.3564887007 -0)
(-0 13593.3565037346 -0)
(-0 13593.3565034496 -0)
(-0 13593.356509325 -0)
(-0 13593.3565097461 -0)
(-0 13593.3565094461 -0)
(-0 13593.3565183628 -0)
(-0 13593.3565265657 -0)
(-0 13593.356531644 -0)
(-0 13593.3565283535 -0)
(-0 13593.3565325909 -0)
(-0 13593.3565386356 -0)
(-0 13593.3565501543 -0)
(-0 13593.3565647209 -0)
(-0 13593.3565739626 -0)
(-0 13593.3565885606 -0)
(-0 13593.3565975778 -0)
(-0 13593.3566018339 -0)
(-0 13593.3566189737 -0)
(-0 13593.3566280701 -0)
(-0 13593.3566327619 -0)
(-0 13593.3566408871 -0)
(-0 13593.3566415515 -0)
(-0 13593.3566459369 -0)
(-0 13593.3566618203 -0)
(-0 13593.3566733718 -0)
(-0 13593.3566721751 -0)
(-0 13593.3566771579 -0)
(-0 13593.3566870362 -0)
(-0 13593.3566913196 -0)
(-0 13593.3566949138 -0)
(-0 13593.3567075555 -0)
(-0 13593.3567169681 -0)
(-0 13593.3567204959 -0)
(-0 13593.3567284071 -0)
(-0 13593.3567321025 -0)
(-0 13593.3567378353 -0)
(-0 13593.3567502427 -0)
(-0 13593.3567634391 -0)
(-0 13593.3567669885 -0)
(-0 13593.356772195 -0)
(-0 13593.3567784607 -0)
(-0 13593.35677955 -0)
(-0 13593.3567835321 -0)
(-0 13593.3567915382 -0)
(-0 13593.3568052707 -0)
(-0 13593.3568184745 -0)
(-0 13593.3568251029 -0)
(-0 13593.3568321077 -0)
(-0 13593.3568415842 -0)
(-0 13593.3568442971 -0)
(-0 13593.3568477858 -0)
(-0 13593.3568555798 -0)
(-0 13593.3568609052 -0)
(-0 13593.3568624583 -0)
(-0 13593.3568648716 -0)
(-0 13593.3568643953 -0)
(-0 13593.3568649328 -0)
(-0 13593.356872596 -0)
(-0 13593.3568808251 -0)
(-0 13593.3568874967 -0)
(-0 13593.3568951287 -0)
(-0 13593.3569027831 -0)
(-0 13593.3569090836 -0)
(-0 13593.3569154108 -0)
(-0 13593.3569270758 -0)
(-0 13593.3569371969 -0)
(-0 13593.3569461583 -0)
(-0 13593.3569555181 -0)
(-0 13593.3569636174 -0)
(-0 13593.3569730684 -0)
(-0 13593.3569836076 -0)
(-0 13593.35699283 -0)
(-0 13593.3569991177 -0)
(-0 13593.3570020813 -0)
(-0 13593.3570053709 -0)
(-0 13593.3570140552 -0)
(-0 13593.3570237964 -0)
(-0 13593.3570318258 -0)
(-0 13593.3570390859 -0)
(-0 13593.3570454617 -0)
(-0 13593.3570518659 -0)
(-0 13593.3570602935 -0)
(-0 13593.3570683068 -0)
(-0 13593.3570753286 -0)
(-0 13593.3570824956 -0)
(-0 13593.3570887228 -0)
(-0 13593.3570962764 -0)
(-0 13593.3571114415 -0)
(-0 13593.3571193922 -0)
(-0 13593.3572779879 -0)
(-0 20390.0335388727 -0)
)
;

boundaryField
{
    dielectric_2
    {
        type            calculated;
        value           nonuniform 0();
    }
    dielectric_1
    {
        type            calculated;
        value           nonuniform 0();
    }
    otherfaces
    {
        type            empty;
    }
    procBoundary0to1
    {
        type            processor;
        value           uniform (-0 20390.0428006043 -0);
    }
    procBoundary0to2
    {
        type            processor;
        value           uniform (-0 20390.030661704 -0);
    }
}


// ************************************************************************* //
