/*--------------------------------*- C++ -*----------------------------------*\
| =========                 |                                                 |
| \\      /  F ield         | foam-extend: Open Source CFD                    |
|  \\    /   O peration     | Version:     4.0                                |
|   \\  /    A nd           | Web:         http://www.foam-extend.org         |
|    \\/     M anipulation  |                                                 |
\*---------------------------------------------------------------------------*/
FoamFile
{
    version     2.0;
    format      ascii;
    class       volScalarField;
    location    "5e-07";
    object      Ar;
}
// * * * * * * * * * * * * * * * * * * * * * * * * * * * * * * * * * * * * * //

dimensions      [0 0 0 1 0 0 0];

internalField   nonuniform List<scalar> 
300
(
3.21880306889725e+22
3.21880306628067e+22
3.2188030689561e+22
3.21880307028204e+22
3.21880307276961e+22
3.21880307599809e+22
3.21880307984837e+22
3.21880308447632e+22
3.21880308982959e+22
3.21880309590489e+22
3.21880310271375e+22
3.21880311025637e+22
3.21880311853504e+22
3.21880312755235e+22
3.21880313731077e+22
3.21880314781249e+22
3.21880315905962e+22
3.21880317105343e+22
3.21880318379461e+22
3.21880319728344e+22
3.21880321151948e+22
3.2188032265016e+22
3.21880324222795e+22
3.21880325869574e+22
3.21880327590322e+22
3.2188032938447e+22
3.2188033125152e+22
3.21880333190905e+22
3.21880335201867e+22
3.21880337283638e+22
3.21880339435589e+22
3.21880341656749e+22
3.21880343946013e+22
3.21880346302353e+22
3.21880348724678e+22
3.21880351211846e+22
3.21880353762722e+22
3.21880356376061e+22
3.21880359050578e+22
3.21880361784992e+22
3.21880364578e+22
3.21880367428256e+22
3.21880370334418e+22
3.21880373295132e+22
3.21880376309041e+22
3.21880379374788e+22
3.21880382491042e+22
3.21880385656467e+22
3.21880388869843e+22
3.2188039212987e+22
3.21880395435416e+22
3.21880398785065e+22
3.2188040217765e+22
3.21880405611751e+22
3.21880409086097e+22
3.21880412599343e+22
3.21880416150309e+22
3.21880419737842e+22
3.21880423360823e+22
3.21880427018186e+22
3.21880430708847e+22
3.21880434431797e+22
3.21880438186082e+22
3.21880441970954e+22
3.21880445785472e+22
3.21880449628495e+22
3.21880453499178e+22
3.21880457396695e+22
3.21880461320257e+22
3.21880465269129e+22
3.21880469242614e+22
3.21880473240123e+22
3.21880477261058e+22
3.21880481304746e+22
3.21880485370778e+22
3.21880489458647e+22
3.21880493567789e+22
3.21880497697865e+22
3.21880501848222e+22
3.21880506018886e+22
3.21880510209162e+22
3.21880514418784e+22
3.21880518647583e+22
3.21880522895349e+22
3.2188052716213e+22
3.21880531447776e+22
3.21880535752159e+22
3.2188054007531e+22
3.21880544417445e+22
3.21880548778662e+22
3.21880553159185e+22
3.21880557559809e+22
3.21880561980273e+22
3.21880566420994e+22
3.21880570882457e+22
3.21880575365211e+22
3.21880579869902e+22
3.21880584397248e+22
3.21880588948161e+22
3.21880593523528e+22
3.2188059812429e+22
3.21880602751475e+22
3.21880607406629e+22
3.21880612090716e+22
3.21880616805226e+22
3.21880621551794e+22
3.21880626331867e+22
3.2188063114743e+22
3.2188063600026e+22
3.21880640892328e+22
3.21880645825836e+22
3.21880650803121e+22
3.21880655826736e+22
3.21880660899358e+22
3.21880666023799e+22
3.21880671203225e+22
3.21880676441e+22
3.21880681740207e+22
3.21880687104409e+22
3.21880692537396e+22
3.21880698043436e+22
3.21880703626512e+22
3.21880709291332e+22
3.21880715042382e+22
3.21880720884388e+22
3.21880726822415e+22
3.2188073286207e+22
3.21880739008684e+22
3.21880745268147e+22
3.2188075164648e+22
3.21880758150081e+22
3.2188076478545e+22
3.21880771559366e+22
3.21880778478967e+22
3.21880785551789e+22
3.21880792784967e+22
3.21880800185994e+22
3.21880807762812e+22
3.21880815523495e+22
3.21880823475945e+22
3.21880831628438e+22
3.21880839989358e+22
3.21880848567322e+22
3.21880857370922e+22
3.21880866408766e+22
3.21880875688905e+22
3.21880885219672e+22
3.21880895009378e+22
3.21880905066194e+22
3.21880915398322e+22
3.2188092601318e+22
3.21880936918049e+22
3.21880948120418e+22
3.21880959626632e+22
3.21880971442742e+22
3.21880983574629e+22
3.21880996027388e+22
3.21881008805098e+22
3.21881021911223e+22
3.21881035348772e+22
3.21881049119874e+22
3.21881063223155e+22
3.21881077660746e+22
3.21881092434193e+22
3.21881107533201e+22
3.21881122939751e+22
3.21881138660146e+22
3.21881154764389e+22
3.21881171177701e+22
3.21881187605736e+22
3.21881204196251e+22
3.21881221220126e+22
3.21881238537677e+22
3.21881255783018e+22
3.21881272801422e+22
3.21881290460188e+22
3.21881308033613e+22
3.21881325219509e+22
3.21881342778988e+22
3.21881359496333e+22
3.21881376362966e+22
3.21881392101565e+22
3.21881407340464e+22
3.21881421987487e+22
3.21881433926483e+22
3.21881446366037e+22
3.21881457347532e+22
3.21881465098404e+22
3.21881472529391e+22
3.218814790763e+22
3.21881483916118e+22
3.21881487933339e+22
3.21881491507518e+22
3.21881493511375e+22
3.21881494760237e+22
3.21881496528011e+22
3.2188149823964e+22
3.21881499467726e+22
3.21881500319663e+22
3.21881500711421e+22
3.21881501105186e+22
3.21881501645583e+22
3.21881502333254e+22
3.21881502972392e+22
3.21881503517e+22
3.21881504161246e+22
3.21881504537814e+22
3.21881504802278e+22
3.21881505271967e+22
3.21881505753318e+22
3.21881506384404e+22
3.2188150698685e+22
3.21881507513284e+22
3.21881508211682e+22
3.21881508771504e+22
3.21881509262585e+22
3.21881509842923e+22
3.2188151018908e+22
3.2188151059179e+22
3.21881511200696e+22
3.21881511852137e+22
3.21881512518667e+22
3.21881513200492e+22
3.21881513902596e+22
3.21881514581205e+22
3.21881515282116e+22
3.21881515945179e+22
3.21881516613124e+22
3.21881517273828e+22
3.21881517898085e+22
3.21881518542587e+22
3.21881519129574e+22
3.21881519739962e+22
3.21881520326454e+22
3.21881520899833e+22
3.21881521584385e+22
3.21881522304251e+22
3.21881523026526e+22
3.21881523748387e+22
3.21881524464766e+22
3.21881525170997e+22
3.2188152586333e+22
3.21881526538901e+22
3.21881527196187e+22
3.21881527834588e+22
3.21881528455442e+22
3.21881529061459e+22
3.21881529656042e+22
3.21881530241547e+22
3.21881530819932e+22
3.21881531391076e+22
3.2188153195658e+22
3.21881532514638e+22
3.2188153306928e+22
3.21881533615739e+22
3.21881534161814e+22
3.21881534695652e+22
3.21881535232555e+22
3.21881535750885e+22
3.21881536277141e+22
3.21881536779266e+22
3.21881537293733e+22
3.21881537780469e+22
3.21881538281462e+22
3.21881538751138e+22
3.21881539237395e+22
3.21881539689439e+22
3.21881540168399e+22
3.21881540615042e+22
3.2188154108435e+22
3.21881541508237e+22
3.21881541959755e+22
3.21881542361762e+22
3.21881542794779e+22
3.21881543172577e+22
3.21881543587481e+22
3.21881543941373e+22
3.21881544338378e+22
3.21881544669569e+22
3.21881545050169e+22
3.21881545359299e+22
3.21881545725205e+22
3.21881546013794e+22
3.21881546366837e+22
3.21881546636202e+22
3.21881546977471e+22
3.21881547227516e+22
3.2188154755776e+22
3.2188154778941e+22
3.21881548109138e+22
3.21881548321858e+22
3.2188154863235e+22
3.21881548826406e+22
3.21881549127571e+22
3.21881549302851e+22
3.21881549594989e+22
3.21881549752601e+22
3.21881550036952e+22
3.21881550176586e+22
3.21881550513589e+22
)
;

boundaryField
{
    electrode
    {
        type            zeroGradient;
    }
    ground
    {
        type            zeroGradient;
    }
    otherfaces
    {
        type            empty;
    }
}


// ************************************************************************* //
