/*--------------------------------*- C++ -*----------------------------------*\
| =========                 |                                                 |
| \\      /  F ield         | foam-extend: Open Source CFD                    |
|  \\    /   O peration     | Version:     4.0                                |
|   \\  /    A nd           | Web:         http://www.foam-extend.org         |
|    \\/     M anipulation  |                                                 |
\*---------------------------------------------------------------------------*/
FoamFile
{
    version     2.0;
    format      ascii;
    class       volScalarField;
    location    "5e-07";
    object      Arm;
}
// * * * * * * * * * * * * * * * * * * * * * * * * * * * * * * * * * * * * * //

dimensions      [0 0 0 1 0 0 0];

internalField   nonuniform List<scalar> 
300
(
3.57416821705421e+15
3.5760489984541e+15
3.57799919427027e+15
3.57930487804591e+15
3.58012100126636e+15
3.58049943667558e+15
3.580484402003e+15
3.58010732126615e+15
3.57939384866978e+15
3.57836597399802e+15
3.5770394617996e+15
3.57542839901911e+15
3.5735448378229e+15
3.5713993802854e+15
3.56900148297746e+15
3.56635969709369e+15
3.56347882938411e+15
3.56036747550081e+15
3.55703398063379e+15
3.55348482084468e+15
3.54972619760929e+15
3.54576403266036e+15
3.54160401600893e+15
3.53725163029405e+15
3.5326961013647e+15
3.52795526101491e+15
3.52303278522439e+15
3.51793066004862e+15
3.51266252320216e+15
3.50723327795252e+15
3.50162906826856e+15
3.49586130946032e+15
3.48994815156145e+15
3.48389495017135e+15
3.47770679157354e+15
3.47138848706657e+15
3.46494018615932e+15
3.45836841802764e+15
3.45168026085204e+15
3.44487924229064e+15
3.4379688620755e+15
3.43095440354281e+15
3.42383974493442e+15
3.41662857792474e+15
3.40932440283114e+15
3.40193048804465e+15
3.39444777194634e+15
3.38687772442496e+15
3.37921254736008e+15
3.37145086980912e+15
3.36358000748079e+15
3.35561256160912e+15
3.34754304733108e+15
3.33938925688427e+15
3.33115928390041e+15
3.32286954708584e+15
3.31452331905772e+15
3.30612351598698e+15
3.29767271399682e+15
3.28917131754065e+15
3.28062365575036e+15
3.2720318470041e+15
3.26339256684725e+15
3.25468777021693e+15
3.24592143616277e+15
3.23711925199101e+15
3.22828325891386e+15
3.21941529673598e+15
3.21051695125365e+15
3.20158958647799e+15
3.19263236611602e+15
3.18363811200072e+15
3.17460527963191e+15
3.16554138271526e+15
3.1564327980694e+15
3.14728060554619e+15
3.13809118449085e+15
3.12886032617393e+15
3.11960818019461e+15
3.11030392302573e+15
3.10098236372353e+15
3.09164556649986e+15
3.08229042325118e+15
3.07291924559179e+15
3.06351712366447e+15
3.0540918417233e+15
3.04465514033776e+15
3.03520734178183e+15
3.02573646275528e+15
3.01625033371414e+15
3.00674299755556e+15
2.99716908114145e+15
2.98758420898989e+15
2.97798990061828e+15
2.96838618145665e+15
2.95877307815991e+15
2.94915037234644e+15
2.93951765488883e+15
2.92986394077408e+15
2.92018917931483e+15
2.91049965945828e+15
2.90079672525036e+15
2.89104839611173e+15
2.88128412689835e+15
2.87149461038693e+15
2.86167044532195e+15
2.8518267902161e+15
2.84194388351034e+15
2.83203222990913e+15
2.82209728643275e+15
2.81213716713622e+15
2.80214959707205e+15
2.79212681046322e+15
2.78206660769289e+15
2.77196680341853e+15
2.76180971285843e+15
2.75157634625019e+15
2.74129165865374e+15
2.73095648890205e+15
2.72056277881307e+15
2.71008400736284e+15
2.69953332349849e+15
2.68888155185811e+15
2.67813917472254e+15
2.66731765667104e+15
2.65641482513296e+15
2.6454024046159e+15
2.63429799956875e+15
2.62309069715655e+15
2.61177850766856e+15
2.60034572957673e+15
2.58878852240538e+15
2.57710193387801e+15
2.56525985239854e+15
2.55322566323932e+15
2.54101838261033e+15
2.52864196587819e+15
2.51607128932967e+15
2.50328744462969e+15
2.4902996745029e+15
2.47709193587746e+15
2.46364760750297e+15
2.44993450849301e+15
2.43592052306589e+15
2.42158095364352e+15
2.40693578148714e+15
2.39197006314392e+15
2.37666746367576e+15
2.36099745534757e+15
2.34491096540199e+15
2.32842064894381e+15
2.3115017584205e+15
2.29409180012744e+15
2.27618976518029e+15
2.25777742988965e+15
2.23880497809115e+15
2.21922907620468e+15
2.1990493128593e+15
2.17824655890722e+15
2.15677577358206e+15
2.13460132494066e+15
2.11170822179548e+15
2.08805804214431e+15
2.06366350423447e+15
2.03851165016107e+15
2.01254764295187e+15
1.98579242223643e+15
1.95829064714428e+15
1.93007122030315e+15
1.90117607997265e+15
1.87167397030525e+15
1.84159800268642e+15
1.81104051477005e+15
1.7801731482177e+15
1.74918995801786e+15
1.71826071648222e+15
1.68756458753427e+15
1.65730052494902e+15
1.62770761251716e+15
1.5989412300264e+15
1.57115566182366e+15
1.54449807274553e+15
1.51904958537346e+15
1.49492529033337e+15
1.47212490150229e+15
1.45055751819278e+15
1.43026302146027e+15
1.41118966370254e+15
1.39324837069954e+15
1.37634982763736e+15
1.36037201527609e+15
1.34526788563147e+15
1.33102197351492e+15
1.31756479939553e+15
1.30491960551275e+15
1.29319697223231e+15
1.28240377060373e+15
1.2722401490497e+15
1.26303423553046e+15
1.2544416080462e+15
1.24521474934801e+15
1.2353548677259e+15
1.22569083562214e+15
1.21657212539664e+15
1.20802421545675e+15
1.19994740160668e+15
1.19231342924497e+15
1.18504989700903e+15
1.17810124330355e+15
1.17143179769387e+15
1.16502711473628e+15
1.15887378244973e+15
1.15295092610801e+15
1.14722157001669e+15
1.14170889985765e+15
1.13638970654985e+15
1.13123684216709e+15
1.12627443080242e+15
1.1214781637997e+15
1.11683778875702e+15
1.11235851976664e+15
1.10802311379765e+15
1.10383213752942e+15
1.09978235397823e+15
1.09586124275838e+15
1.09206754383636e+15
1.08840787145758e+15
1.08486655231697e+15
1.08144306194443e+15
1.07814283909557e+15
1.07494895214919e+15
1.07186102162173e+15
1.06888427198746e+15
1.06600785675443e+15
1.06322523558994e+15
1.06054745803586e+15
1.05795310396332e+15
1.05545625799338e+15
1.05304076144001e+15
1.05071267506143e+15
1.04846818768086e+15
1.04629551154011e+15
1.04420586097701e+15
1.04218154221793e+15
1.04022544645357e+15
1.03835003736351e+15
1.03653872605122e+15
1.03479686651613e+15
1.03312476249305e+15
1.03151244061809e+15
1.02996505297076e+15
1.02847673267599e+15
1.02704333515815e+15
1.02566918379421e+15
1.02434710035538e+15
1.02307612923987e+15
1.02185656653921e+15
1.02067503413094e+15
1.01954251597284e+15
1.01845340872832e+15
1.01741561753477e+15
1.01641883923708e+15
1.01546839368112e+15
1.01455846633552e+15
1.01368932030057e+15
1.01285971013614e+15
1.01206484631352e+15
1.01130470609924e+15
1.0105715284575e+15
1.00987423209935e+15
1.00920789305779e+15
1.00858037847877e+15
1.00798057016233e+15
1.00741612289554e+15
1.00687656738984e+15
1.00636202324279e+15
1.00587216875036e+15
1.0054082816856e+15
1.00497356806382e+15
1.00456344309926e+15
1.00417832190827e+15
1.00381281179999e+15
1.00346675586786e+15
1.00314647885087e+15
1.00285004267374e+15
1.0025676088783e+15
1.00230511944088e+15
1.0020640463851e+15
1.00183948647371e+15
1.00163251867177e+15
1.00144423162087e+15
1.0012689627644e+15
1.00111054747135e+15
1.00096742501763e+15
1.00083555357663e+15
1.00071733610428e+15
1.00060678047865e+15
1.00050365274357e+15
1.00040126614187e+15
1.00029140382633e+15
)
;

boundaryField
{
    electrode
    {
        type            zeroGradient;
    }
    ground
    {
        type            zeroGradient;
    }
    otherfaces
    {
        type            empty;
    }
}


// ************************************************************************* //
