/*--------------------------------*- C++ -*----------------------------------*\
| =========                 |                                                 |
| \\      /  F ield         | foam-extend: Open Source CFD                    |
|  \\    /   O peration     | Version:     4.0                                |
|   \\  /    A nd           | Web:         http://www.foam-extend.org         |
|    \\/     M anipulation  |                                                 |
\*---------------------------------------------------------------------------*/
FoamFile
{
    version     2.0;
    format      ascii;
    class       volScalarField;
    location    "5e-07";
    object      Arp1;
}
// * * * * * * * * * * * * * * * * * * * * * * * * * * * * * * * * * * * * * //

dimensions      [0 0 0 1 0 0 0];

internalField   nonuniform List<scalar> 
300
(
6.13562984726512e+16
6.13831755528057e+16
6.13602570157838e+16
6.13548991901871e+16
6.13418238795854e+16
6.1325214311965e+16
6.13062212649558e+16
6.1283269012573e+16
6.12568742382937e+16
6.12270642067339e+16
6.11937254993131e+16
6.11568601945406e+16
6.11164514583782e+16
6.10724799000373e+16
6.10249272320094e+16
6.09737776666012e+16
6.09190174585554e+16
6.08606354374031e+16
6.07986233457598e+16
6.07329760266035e+16
6.06636921667518e+16
6.05907742168238e+16
6.05142279103619e+16
6.04340649896389e+16
6.03502986395063e+16
6.02629489991843e+16
6.01720388908065e+16
6.00775957970698e+16
5.99796507916855e+16
5.98782405319863e+16
5.97734030554781e+16
5.96651818016422e+16
5.95536233800231e+16
5.94387765857668e+16
5.93206940200816e+16
5.91994306985674e+16
5.9075043673461e+16
5.8947592338977e+16
5.88171378237792e+16
5.86837428554961e+16
5.85474710282792e+16
5.84083875937124e+16
5.82665579000166e+16
5.81220482187523e+16
5.79749249379269e+16
5.78252546095385e+16
5.7673103520883e+16
5.75185381279772e+16
5.73616232372515e+16
5.72024254269554e+16
5.70410068184243e+16
5.68774332900314e+16
5.67117649635033e+16
5.65440650439526e+16
5.63743924371144e+16
5.62028067709506e+16
5.60293653923433e+16
5.58541245070392e+16
5.56771389604234e+16
5.54984618945285e+16
5.53181456186699e+16
5.51362390734025e+16
5.49527924467368e+16
5.47678517599542e+16
5.45814619450961e+16
5.43936679574802e+16
5.42045105037766e+16
5.40140302418681e+16
5.38222660310266e+16
5.36292537285956e+16
5.3435028924519e+16
5.32396249308412e+16
5.30430718804454e+16
5.28454004236358e+16
5.26466378238128e+16
5.24468084536209e+16
5.2245938779505e+16
5.20440458196706e+16
5.1841155271341e+16
5.16372784670976e+16
5.1432434932107e+16
5.12266366895858e+16
5.1019893217782e+16
5.08122152975627e+16
5.06036073872184e+16
5.03940737157454e+16
5.01836150685135e+16
4.99722302371589e+16
4.97599148144363e+16
4.95466593356444e+16
4.93324583884685e+16
4.91172923706894e+16
4.89011493485109e+16
4.86840072095864e+16
4.84658421381375e+16
4.8246627814525e+16
4.80263321373859e+16
4.78049203897846e+16
4.75823530121241e+16
4.73585867671519e+16
4.71335712100366e+16
4.69072570798444e+16
4.66795817267716e+16
4.6450484570832e+16
4.62198969023506e+16
4.59877413398534e+16
4.57539410250256e+16
4.55184062587126e+16
4.528104488941e+16
4.50417572635826e+16
4.4800434960839e+16
4.45569642917635e+16
4.43112234025627e+16
4.40630802708288e+16
4.38123983021381e+16
4.35590294910453e+16
4.33028168893006e+16
4.3043596769633e+16
4.27811917242163e+16
4.25154203529787e+16
4.22460827243892e+16
4.19729780852719e+16
4.16958869042633e+16
4.14145831334284e+16
4.11288273791703e+16
4.0838371776359e+16
4.05429519835209e+16
4.02422975304719e+16
3.99361224907047e+16
3.96241308555436e+16
3.9306014852002e+16
3.89814561267149e+16
3.86501216362435e+16
3.83116745238785e+16
3.79657597649533e+16
3.76120175972457e+16
3.72500770212427e+16
3.68795608193734e+16
3.65000805632514e+16
3.61112447327566e+16
3.57126560594485e+16
3.53039124184056e+16
3.4884608254361e+16
3.4454343090071e+16
3.40127087249671e+16
3.35593075176602e+16
3.30937468662392e+16
3.26156336451408e+16
3.21245971961144e+16
3.16202748540875e+16
3.11023109611619e+16
3.05703894463782e+16
3.00241975231299e+16
2.94634597471942e+16
2.88879303468654e+16
2.82973924175439e+16
2.7691680806731e+16
2.70706665248816e+16
2.64342775301842e+16
2.57824880954465e+16
2.51153259012374e+16
2.44331227541028e+16
2.37358578819697e+16
2.30234867017803e+16
2.22971452222795e+16
2.15587746570499e+16
2.08077965188959e+16
2.00371505042781e+16
1.92541870411068e+16
1.84884913113339e+16
1.77260220044912e+16
1.69406587413966e+16
1.61469054983848e+16
1.5381599291702e+16
1.4660642210383e+16
1.38972627352871e+16
1.31623652279579e+16
1.24827959350973e+16
1.17769756928291e+16
1.11584000473388e+16
1.05169602089461e+16
9.96656546015815e+15
9.42836640636903e+15
8.89405662721648e+15
8.55828435987369e+15
8.08547310234449e+15
7.65992338035617e+15
7.45296539721241e+15
7.1740363399296e+15
6.885535330349e+15
6.68032087732088e+15
6.48351935532386e+15
6.27186149628893e+15
6.17227120391958e+15
6.11572947477978e+15
5.98488087306236e+15
5.84484217586835e+15
5.74387866561912e+15
5.6747958823145e+15
5.64842509560975e+15
5.62079290116262e+15
5.57796890644444e+15
5.519515498533e+15
5.46502742550981e+15
5.41926340412516e+15
5.36299024043712e+15
5.33300562906532e+15
5.31384189016029e+15
5.27383032765717e+15
5.23236766651345e+15
5.17566374631625e+15
5.12157070309336e+15
5.07484750586052e+15
5.01073403186553e+15
4.96026159430751e+15
4.91647009386785e+15
4.86358706911203e+15
4.83393236635941e+15
4.79845677593645e+15
4.74220645395513e+15
4.68154203443646e+15
4.61922561030925e+15
4.55523589734362e+15
4.4890775933689e+15
4.42514064544226e+15
4.35884658253295e+15
4.29620380918915e+15
4.23295478393881e+15
4.17031245184532e+15
4.11119176925907e+15
4.04994055671829e+15
3.99433504043179e+15
3.93627850808365e+15
3.88051125917695e+15
3.82596164026663e+15
3.76018992742972e+15
3.69080350945733e+15
3.62107860306333e+15
3.5513137288706e+15
3.48200968298933e+15
3.41363669948626e+15
3.34658162837809e+15
3.28111966280286e+15
3.21742074663525e+15
3.15554205573378e+15
3.09533723901197e+15
3.03655183094183e+15
2.9788403113604e+15
2.92196659279317e+15
2.8657450341767e+15
2.81018248913542e+15
2.75512475023843e+15
2.70075657539338e+15
2.64667061989414e+15
2.59335075292274e+15
2.54001800385972e+15
2.48785743155259e+15
2.43535224919949e+15
2.38465514206609e+15
2.33312204875167e+15
2.28395050054716e+15
2.23350370772633e+15
2.18578353897979e+15
2.13659699457679e+15
2.09050136191222e+15
2.04270794782077e+15
1.99830103440913e+15
1.95116776012756e+15
1.90723907534748e+15
1.86100791060795e+15
1.81928781839065e+15
1.77476578620932e+15
1.7351671157026e+15
1.69243190339003e+15
1.65519370523376e+15
1.61421974649157e+15
1.57932227994065e+15
1.54008756031793e+15
1.50740495726518e+15
1.46975679561515e+15
1.43923062092075e+15
1.40300711799999e+15
1.37449586917382e+15
1.33951342446154e+15
1.31287483788495e+15
1.27903177755371e+15
1.25429114602308e+15
1.22150924404386e+15
1.19857009655361e+15
1.16680550667974e+15
1.14572306564503e+15
1.11485028092571e+15
1.09560419014876e+15
1.06563182746016e+15
1.04823668135644e+15
1.01914192612353e+15
1.00349192043115e+15
975160367203508
961299492231612
927708412824691
)
;

boundaryField
{
    electrode
    {
        type            driftDiffusionPositiveIonDensity;
        seec            0;
        fieldName       Arp1;
        value           uniform 6.12736498326473e+16;
    }
    ground
    {
        type            driftDiffusionPositiveIonDensity;
        seec            0;
        fieldName       Arp1;
        value           uniform 927708412824691;
    }
    otherfaces
    {
        type            empty;
    }
}


// ************************************************************************* //
