/*--------------------------------*- C++ -*----------------------------------*\
| =========                 |                                                 |
| \\      /  F ield         | foam-extend: Open Source CFD                    |
|  \\    /   O peration     | Version:     4.0                                |
|   \\  /    A nd           | Web:         http://www.foam-extend.org         |
|    \\/     M anipulation  |                                                 |
\*---------------------------------------------------------------------------*/
FoamFile
{
    version     2.0;
    format      ascii;
    class       volVectorField;
    location    "5e-07";
    object      E;
}
// * * * * * * * * * * * * * * * * * * * * * * * * * * * * * * * * * * * * * //

dimensions      [0 0 0 1 0 0 0];

internalField   nonuniform List<vector> 
300
(
(4.3218140524659 -0 -0)
(10.3999971551305 -0 -0)
(17.7941068629783 -0 -0)
(24.9190260134815 -0 -0)
(32.1079380499738 -0 -0)
(39.3091134559546 -0 -0)
(46.5247288777842 -0 -0)
(53.7950809606491 -0 -0)
(61.1072715761558 -0 -0)
(68.4631710531909 -0 -0)
(75.8683529208922 -0 -0)
(83.3236179345617 -0 -0)
(90.8290336193449 -0 -0)
(98.3841131646493 -0 -0)
(105.987432255651 -0 -0)
(113.636630305615 -0 -0)
(121.328496179016 -0 -0)
(129.059035874903 -0 -0)
(136.823539573229 -0 -0)
(144.61664980536 -0 -0)
(152.432452189823 -0 -0)
(160.264569024073 -0 -0)
(168.106228520811 -0 -0)
(175.950399670945 -0 -0)
(183.789847370277 -0 -0)
(191.617220474112 -0 -0)
(199.425184541082 -0 -0)
(207.206454286293 -0 -0)
(214.953865856899 -0 -0)
(222.660496507212 -0 -0)
(230.319685665139 -0 -0)
(237.925063126206 -0 -0)
(245.470659998605 -0 -0)
(252.950901083486 -0 -0)
(260.36062470142 -0 -0)
(267.695137927432 -0 -0)
(274.950211748309 -0 -0)
(282.122082162437 -0 -0)
(289.207464310189 -0 -0)
(296.203548992598 -0 -0)
(303.107980435752 -0 -0)
(309.918855603862 -0 -0)
(316.634709701699 -0 -0)
(323.254486982109 -0 -0)
(329.777529059525 -0 -0)
(336.203550328798 -0 -0)
(342.532613772859 -0 -0)
(348.765114113781 -0 -0)
(354.901733459792 -0 -0)
(360.943458400859 -0 -0)
(366.891509898142 -0 -0)
(372.747354948668 -0 -0)
(378.512682255785 -0 -0)
(384.189360874737 -0 -0)
(389.779458522015 -0 -0)
(395.285187823536 -0 -0)
(400.708924928922 -0 -0)
(406.053173601691 -0 -0)
(411.320561323399 -0 -0)
(416.513833340111 -0 -0)
(421.63585439324 -0 -0)
(426.689558252671 -0 -0)
(431.677995120553 -0 -0)
(436.604331929867 -0 -0)
(441.471767834067 -0 -0)
(446.283630467547 -0 -0)
(451.04334644724 -0 -0)
(455.754400573069 -0 -0)
(460.420405031013 -0 -0)
(465.045054452761 -0 -0)
(469.632146479678 -0 -0)
(474.185629761922 -0 -0)
(478.709531369406 -0 -0)
(483.208017785966 -0 -0)
(487.685440855917 -0 -0)
(492.146255752547 -0 -0)
(496.595137398822 -0 -0)
(501.036881842045 -0 -0)
(505.476554313371 -0 -0)
(509.919426791467 -0 -0)
(514.370929657949 -0 -0)
(518.836876449488 -0 -0)
(523.32326097155 -0 -0)
(527.836403689581 -0 -0)
(532.382985479803 -0 -0)
(536.969984955727 -0 -0)
(541.604768188102 -0 -0)
(546.295132435091 -0 -0)
(551.049306843243 -0 -0)
(555.875897416456 -0 -0)
(560.784136560745 -0 -0)
(565.783727010551 -0 -0)
(570.884870805588 -0 -0)
(576.098500666756 -0 -0)
(581.436107997709 -0 -0)
(586.909891520161 -0 -0)
(592.532794159505 -0 -0)
(598.318518030149 -0 -0)
(604.281617323846 -0 -0)
(610.437536739731 -0 -0)
(616.802596044175 -0 -0)
(623.394207779972 -0 -0)
(630.230812245838 -0 -0)
(637.331908614907 -0 -0)
(644.718333736645 -0 -0)
(652.412086658899 -0 -0)
(660.436555493962 -0 -0)
(668.816609515683 -0 -0)
(677.578564647962 -0 -0)
(686.750424894051 -0 -0)
(696.361876445571 -0 -0)
(706.444407488988 -0 -0)
(717.031491618966 -0 -0)
(728.158566576446 -0 -0)
(739.863236380664 -0 -0)
(752.185442648286 -0 -0)
(765.167450912733 -0 -0)
(778.854088527639 -0 -0)
(793.292844589017 -0 -0)
(808.53407405526 -0 -0)
(824.631020660085 -0 -0)
(841.640058562961 -0 -0)
(859.620932061665 -0 -0)
(878.636727849707 -0 -0)
(898.75417404582 -0 -0)
(920.043889607416 -0 -0)
(942.580443721943 -0 -0)
(966.442593119767 -0 -0)
(991.713598150302 -0 -0)
(1018.48134124322 -0 -0)
(1046.83864743361 -0 -0)
(1076.88357444272 -0 -0)
(1108.71957270955 -0 -0)
(1142.45602032802 -0 -0)
(1178.20853129265 -0 -0)
(1216.099184262 -0 -0)
(1256.25717196351 -0 -0)
(1298.81935671969 -0 -0)
(1343.93071648823 -0 -0)
(1391.74500402961 -0 -0)
(1442.4257133301 -0 -0)
(1496.14685842919 -0 -0)
(1553.09389265026 -0 -0)
(1613.46520170265 -0 -0)
(1677.47330031153 -0 -0)
(1745.34642057681 -0 -0)
(1817.33083036447 -0 -0)
(1893.6925597084 -0 -0)
(1974.72037222998 -0 -0)
(2060.72931100995 -0 -0)
(2152.0635105884 -0 -0)
(2249.10135115061 -0 -0)
(2352.26083780843 -0 -0)
(2462.00528975946 -0 -0)
(2578.85141399328 -0 -0)
(2703.37798777165 -0 -0)
(2836.2371591278 -0 -0)
(2978.16777494962 -0 -0)
(3130.01068896789 -0 -0)
(3292.72681293022 -0 -0)
(3467.42289433418 -0 -0)
(3655.39612036151 -0 -0)
(3858.13687979226 -0 -0)
(4077.33221601867 -0 -0)
(4315.05800824647 -0 -0)
(4574.00262803869 -0 -0)
(4857.10966773619 -0 -0)
(5166.79758904909 -0 -0)
(5506.9691501436 -0 -0)
(5887.57855015967 -0 -0)
(6321.41122395061 -0 -0)
(6816.72489295596 -0 -0)
(7381.27146063517 -0 -0)
(8032.43844391758 -0 -0)
(8796.12014800467 -0 -0)
(9689.09843552874 -0 -0)
(10726.2912204445 -0 -0)
(11935.419157656 -0 -0)
(13337.2495407516 -0 -0)
(14953.779652875 -0 -0)
(16802.9763025231 -0 -0)
(18899.0567137497 -0 -0)
(21251.6891234612 -0 -0)
(23848.5605194582 -0 -0)
(26703.8861868064 -0 -0)
(29789.5141779694 -0 -0)
(33036.6585477501 -0 -0)
(36454.2694564921 -0 -0)
(40023.0969120288 -0 -0)
(43664.2496265651 -0 -0)
(47342.2224023021 -0 -0)
(51035.6928245767 -0 -0)
(54703.8369398234 -0 -0)
(58345.2372700815 -0 -0)
(61983.6242506912 -0 -0)
(65593.842717489 -0 -0)
(69138.7073737973 -0 -0)
(72621.6686798097 -0 -0)
(76060.3028982037 -0 -0)
(79472.1052582415 -0 -0)
(82868.9108322012 -0 -0)
(86245.1518798454 -0 -0)
(89591.2872188903 -0 -0)
(92903.7524394277 -0 -0)
(96186.0431605022 -0 -0)
(99437.5820320838 -0 -0)
(102663.109045645 -0 -0)
(105873.816079596 -0 -0)
(109066.684389079 -0 -0)
(112234.990639729 -0 -0)
(115373.702649671 -0 -0)
(118479.003058639 -0 -0)
(121553.90292564 -0 -0)
(124595.383525845 -0 -0)
(127602.30652745 -0 -0)
(130580.79882438 -0 -0)
(133530.135832644 -0 -0)
(136454.575779749 -0 -0)
(139359.373804284 -0 -0)
(142236.516424119 -0 -0)
(145078.406492792 -0 -0)
(147883.213924109 -0 -0)
(150649.936145655 -0 -0)
(153377.413821878 -0 -0)
(156065.661882779 -0 -0)
(158714.639182185 -0 -0)
(161324.735188897 -0 -0)
(163896.868602766 -0 -0)
(166431.03939259 -0 -0)
(168928.492065589 -0 -0)
(171389.646427115 -0 -0)
(173815.561990235 -0 -0)
(176207.203262757 -0 -0)
(178564.521467357 -0 -0)
(180888.575305822 -0 -0)
(183176.350579707 -0 -0)
(185423.371851692 -0 -0)
(187628.445262045 -0 -0)
(189791.45628998 -0 -0)
(191912.531157859 -0 -0)
(193992.088895239 -0 -0)
(196030.80709889 -0 -0)
(198029.563150034 -0 -0)
(199989.368813762 -0 -0)
(201911.304527224 -0 -0)
(203796.424048589 -0 -0)
(205645.660429513 -0 -0)
(207459.76585499 -0 -0)
(209239.317059235 -0 -0)
(210984.763399709 -0 -0)
(212696.500291989 -0 -0)
(214374.878652566 -0 -0)
(216020.258580576 -0 -0)
(217632.933082455 -0 -0)
(219213.218250304 -0 -0)
(220761.341080403 -0 -0)
(222277.651039393 -0 -0)
(223762.397491271 -0 -0)
(225216.021617779 -0 -0)
(226638.816461944 -0 -0)
(228031.241951669 -0 -0)
(229393.625627778 -0 -0)
(230726.405027644 -0 -0)
(232029.96007262 -0 -0)
(233304.78056256 -0 -0)
(234551.286520531 -0 -0)
(235769.987020632 -0 -0)
(236961.08085625 -0 -0)
(238124.712266563 -0 -0)
(239261.153366007 -0 -0)
(240371.070158526 -0 -0)
(241454.978052763 -0 -0)
(242513.516728403 -0 -0)
(243547.224909875 -0 -0)
(244556.814416881 -0 -0)
(245542.816364472 -0 -0)
(246505.936621388 -0 -0)
(247446.699712928 -0 -0)
(248365.77358678 -0 -0)
(249263.636698971 -0 -0)
(250140.939418585 -0 -0)
(250998.111390239 -0 -0)
(251835.760307827 -0 -0)
(252654.260485402 -0 -0)
(253454.176677365 -0 -0)
(254235.852441101 -0 -0)
(254999.860147524 -0 -0)
(255746.519848417 -0 -0)
(256476.374802283 -0 -0)
(257189.731757356 -0 -0)
(257887.15066909 -0 -0)
(258568.900478781 -0 -0)
(259235.534917584 -0 -0)
(259887.32548366 -0 -0)
(260524.830339656 -0 -0)
(261148.314101786 -0 -0)
(261758.302717432 -0 -0)
(262355.026638225 -0 -0)
(262939.036166266 -0 -0)
(263508.724070767 -0 -0)
)
;

boundaryField
{
    electrode
    {
        type            calculated;
        value           uniform (2.09220504984842 -0 -0);
    }
    ground
    {
        type            calculated;
        value           uniform (263788.49223318 -0 -0);
    }
    otherfaces
    {
        type            empty;
    }
}


// ************************************************************************* //
