/*--------------------------------*- C++ -*----------------------------------*\
| =========                 |                                                 |
| \\      /  F ield         | foam-extend: Open Source CFD                    |
|  \\    /   O peration     | Version:     4.0                                |
|   \\  /    A nd           | Web:         http://www.foam-extend.org         |
|    \\/     M anipulation  |                                                 |
\*---------------------------------------------------------------------------*/
FoamFile
{
    version     2.0;
    format      ascii;
    class       volScalarField;
    location    "5e-07";
    object      electron;
}
// * * * * * * * * * * * * * * * * * * * * * * * * * * * * * * * * * * * * * //

dimensions      [0 0 0 1 0 0 0];

internalField   nonuniform List<scalar> 
300
(
6.13598819995152e+16
6.13572898514919e+16
6.13515038174516e+16
6.13422963237776e+16
6.13296796104263e+16
6.13136255970428e+16
6.12941305401215e+16
6.12711798947766e+16
6.12447549938839e+16
6.12148394637704e+16
6.11814156650076e+16
6.11444653140792e+16
6.11039705128287e+16
6.10599140984179e+16
6.10122800575913e+16
6.09610539816476e+16
6.0906223501615e+16
6.08477786875429e+16
6.07857124120139e+16
6.07200206762979e+16
6.06507028941365e+16
6.05777621270569e+16
6.05012052756962e+16
6.04210432186088e+16
6.03372909011556e+16
6.02499673848878e+16
6.01590958420108e+16
6.00647035068617e+16
5.99668215974097e+16
5.98654851903961e+16
5.9760733061305e+16
5.96526075085736e+16
5.95411541451391e+16
5.94264216658677e+16
5.93084616099636e+16
5.91873281066042e+16
5.90630776103505e+16
5.89357686375136e+16
5.88054615005957e+16
5.86722180427024e+16
5.85361013795468e+16
5.83971756490828e+16
5.8255505767737e+16
5.81111571992381e+16
5.79641957356249e+16
5.78146872897534e+16
5.76626977021186e+16
5.75082925599606e+16
5.73515370331583e+16
5.71924957198699e+16
5.70312325068301e+16
5.68678104454881e+16
5.67022916343801e+16
5.65347371185793e+16
5.63652067969256e+16
5.6193759339829e+16
5.60204521171819e+16
5.58453411325452e+16
5.56684809678839e+16
5.54899247330098e+16
5.53097240183777e+16
5.51279288590075e+16
5.49445877017154e+16
5.47597473651772e+16
5.45734530175574e+16
5.43857481536563e+16
5.41966745613087e+16
5.4006272302666e+16
5.38145796911261e+16
5.36216332652326e+16
5.3427467768762e+16
5.32321161192558e+16
5.30356093821292e+16
5.28379767483406e+16
5.2639245493503e+16
5.24394409457155e+16
5.22385864473824e+16
5.20367033152616e+16
5.18338107942804e+16
5.16299259960082e+16
5.14250638595043e+16
5.12192370819303e+16
5.101245604759e+16
5.08047287689375e+16
5.05960607976209e+16
5.03864551438493e+16
5.01759121924331e+16
4.99644295998508e+16
4.97520021858888e+16
4.9538621837633e+16
4.93242773847754e+16
4.91089544622653e+16
4.88926353991103e+16
4.86752990671258e+16
4.84569207260421e+16
4.82374718773761e+16
4.80169200928047e+16
4.77952288414744e+16
4.75723573064082e+16
4.73482601866456e+16
4.71228875042143e+16
4.68961843879812e+16
4.66680908420247e+16
4.6438541531196e+16
4.6207465528283e+16
4.59747860583967e+16
4.57404202497064e+16
4.55042788485457e+16
4.52662659441592e+16
4.50262786791084e+16
4.47842069437884e+16
4.45399330769438e+16
4.42933315439256e+16
4.40442686177866e+16
4.37926020632598e+16
4.35381807972358e+16
4.32808445627437e+16
4.30204236083064e+16
4.27567383618018e+16
4.24895991083119e+16
4.2218805686357e+16
4.19441472045805e+16
4.16654017523124e+16
4.13823361494807e+16
4.10947057337328e+16
4.08022541536437e+16
4.0504713210251e+16
4.02018027563206e+16
3.98932306276289e+16
3.95786926336753e+16
3.9257872618259e+16
3.89304425774589e+16
3.85960628708404e+16
3.82543825072853e+16
3.79050395009449e+16
3.75476613541339e+16
3.71818656395932e+16
3.68072606618466e+16
3.64234462442703e+16
3.60300146509192e+16
3.56265516056398e+16
3.52126374218408e+16
3.47878482810074e+16
3.43517576088149e+16
3.3903937556113e+16
3.34439606220973e+16
3.29714013383119e+16
3.2485838059813e+16
3.19868548628833e+16
3.14740434244014e+16
3.09470050040654e+16
3.04053524668983e+16
2.98487122107871e+16
2.92767261196771e+16
2.86890534547529e+16
2.80853726302072e+16
2.74653828582384e+16
2.68288055813546e+16
2.61753857654956e+16
2.55048930915166e+16
2.48171229078151e+16
2.41118956797277e+16
2.33890575404162e+16
2.26484857691047e+16
2.18900867224679e+16
2.11137760986971e+16
2.03194808606423e+16
1.95072163676783e+16
1.86770811058698e+16
1.78288831206201e+16
1.69618196183538e+16
1.60748897065959e+16
1.51674652175683e+16
1.42391263277946e+16
1.32892501743873e+16
1.23177079748065e+16
1.1325985737824e+16
1.03172567437182e+16
9.2967490735439e+15
8.27238273681308e+15
7.25496935203594e+15
6.25818396692993e+15
5.29796049289444e+15
4.39170727125639e+15
3.55639180560627e+15
2.80682208262458e+15
2.15451928805993e+15
1.60546312846596e+15
1.15923267379988e+15
809937466022282
547143035462023
357321510387506
225802779275790
138460835584190
82758857435724.2
48550892837904.1
28218651489531.5
16536294693565
9630742447782.76
5417959983314.43
2900307361809.52
1544306585502.38
894537302979.796
587511733405.857
438603776995.705
363960894802.013
325717238017.488
306603547884.147
297903011841.902
294942051357.403
294916845066.738
296672779597.815
299333479505.418
302324296596.787
305242673482.606
307823267634.141
309907544721.011
311395090930.253
312207320918.831
312372475532.407
311884648502.509
310749762273.811
308995252528.094
306658863755.879
303784512452.519
300419650161.76
296613532113.371
292415845407.172
287875750312.678
283041089073.231
277957767374.005
272669360208.129
267216596091.802
261637509284.234
255964096437.906
250226005968.442
244453951330.583
238676073656.192
232917724499.033
227201282726.329
221546257185.457
215969416461.171
210484958052.526
205104696568.803
199838264042.922
194693326193.872
189675789817.802
184790169717.875
180039757209.83
175425824399.504
170948374153.622
166607607430.842
162403063343.358
158333238651.841
154396097652.53
150589142561.743
146909519334.825
143354090432.306
139919499462.527
136602227933.649
133398642861.963
130305018586.119
127317488738.536
124431633667.249
121640901047.676
118939551870.321
116324288659.247
113792026628.978
111339937612.773
108965321116.801
106665598861.169
104438309647.757
102281119520.577
100191830391.15
98168387221.8532
96208887736.9148
94311580147.3079
92474858105.1867
90697000467.304
88975793000.6322
87302805773.9953
85671486821.9824
84083297197.1252
82540361195.4483
81045355753.4118
79600621817.1692
78207421225.1737
76856195088.0968
75541534074.7307
74272428912.2876
73059125068.6969
71899421058.0649
70792533886.3473
69759846415.879
68810610642.467
67969914284.2357
67284111524.5785
66855172196.8917
66770728237.049
67355266017.2539
)
;

boundaryField
{
    electrode
    {
        type            driftDiffusionElectronDensity;
        seec            0.05;
        Edepend         1;
        field_emission  0;
        field_enhancement_factor 55;
        work_function   5;
        value           uniform 6.13598819995154e+16;
    }
    ground
    {
        type            driftDiffusionElectronDensity;
        seec            0.05;
        Edepend         1;
        field_emission  0;
        field_enhancement_factor 55;
        work_function   5;
        value           uniform 68129926702.9585;
    }
    otherfaces
    {
        type            empty;
    }
}


// ************************************************************************* //
