/*--------------------------------*- C++ -*----------------------------------*\
| =========                 |                                                 |
| \\      /  F ield         | foam-extend: Open Source CFD                    |
|  \\    /   O peration     | Version:     4.0                                |
|   \\  /    A nd           | Web:         http://www.foam-extend.org         |
|    \\/     M anipulation  |                                                 |
\*---------------------------------------------------------------------------*/
FoamFile
{
    version     2.0;
    format      ascii;
    class       volVectorField;
    location    "5e-07";
    object      J_Arp1;
}
// * * * * * * * * * * * * * * * * * * * * * * * * * * * * * * * * * * * * * //

dimensions      [1 -1 -1 0 0 0 0];

internalField   nonuniform List<vector> 
300
(
(1.92503618047186e+16 -0 -0)
(6.40532542697279e+16 -0 -0)
(1.10390168445685e+17 -0 -0)
(1.53519797562511e+17 -0 -0)
(1.97965264217859e+17 -0 -0)
(2.42232279753352e+17 -0 -0)
(2.86554952394181e+17 -0 -0)
(3.31190428580193e+17 -0 -0)
(3.75991669221045e+17 -0 -0)
(4.20986589891401e+17 -0 -0)
(4.66201149870115e+17 -0 -0)
(5.1162792547972e+17 -0 -0)
(5.57259316305164e+17 -0 -0)
(6.03083397174243e+17 -0 -0)
(6.49082217299527e+17 -0 -0)
(6.952320218777e+17 -0 -0)
(7.4150384883769e+17 -0 -0)
(7.87863964129006e+17 -0 -0)
(8.34274338586922e+17 -0 -0)
(8.80693102932415e+17 -0 -0)
(9.27075174401095e+17 -0 -0)
(9.73372926314238e+17 -0 -0)
(1.01953654605866e+18 -0 -0)
(1.06551510498252e+18 -0 -0)
(1.11125675816338e+18 -0 -0)
(1.15670940565717e+18 -0 -0)
(1.20182159423579e+18 -0 -0)
(1.24654266192864e+18 -0 -0)
(1.2908231831599e+18 -0 -0)
(1.33461587302513e+18 -0 -0)
(1.37787556561519e+18 -0 -0)
(1.42055940856749e+18 -0 -0)
(1.46262767535475e+18 -0 -0)
(1.50404354907343e+18 -0 -0)
(1.54477329245686e+18 -0 -0)
(1.58478660894043e+18 -0 -0)
(1.6240565248469e+18 -0 -0)
(1.66255939559456e+18 -0 -0)
(1.70027496794181e+18 -0 -0)
(1.73718633550892e+18 -0 -0)
(1.77327972474874e+18 -0 -0)
(1.80854451626203e+18 -0 -0)
(1.84297308064192e+18 -0 -0)
(1.87656057228596e+18 -0 -0)
(1.90930483306703e+18 -0 -0)
(1.94120620293488e+18 -0 -0)
(1.97226731748564e+18 -0 -0)
(2.00249304490342e+18 -0 -0)
(2.03189002215675e+18 -0 -0)
(2.06046700648195e+18 -0 -0)
(2.08823404201832e+18 -0 -0)
(2.11520291341327e+18 -0 -0)
(2.14138660971321e+18 -0 -0)
(2.16679930470831e+18 -0 -0)
(2.19145630373093e+18 -0 -0)
(2.2153737368028e+18 -0 -0)
(2.23856867122035e+18 -0 -0)
(2.26105882386725e+18 -0 -0)
(2.28286256487297e+18 -0 -0)
(2.30399880596096e+18 -0 -0)
(2.32448710714585e+18 -0 -0)
(2.34434713156263e+18 -0 -0)
(2.363599186559e+18 -0 -0)
(2.38226403496784e+18 -0 -0)
(2.40036229846389e+18 -0 -0)
(2.4179152898098e+18 -0 -0)
(2.43494452788792e+18 -0 -0)
(2.45147158861907e+18 -0 -0)
(2.46751858569859e+18 -0 -0)
(2.48310768452616e+18 -0 -0)
(2.49826134734272e+18 -0 -0)
(2.5130026123215e+18 -0 -0)
(2.52735442956425e+18 -0 -0)
(2.54134024850023e+18 -0 -0)
(2.55498417104544e+18 -0 -0)
(2.56831018281821e+18 -0 -0)
(2.58134343295364e+18 -0 -0)
(2.59410863356635e+18 -0 -0)
(2.60663211953033e+18 -0 -0)
(2.61894018795462e+18 -0 -0)
(2.63105966304316e+18 -0 -0)
(2.64301888718009e+18 -0 -0)
(2.6548461554739e+18 -0 -0)
(2.66657109544051e+18 -0 -0)
(2.67822430930993e+18 -0 -0)
(2.68983716182295e+18 -0 -0)
(2.70144218708467e+18 -0 -0)
(2.71307324700084e+18 -0 -0)
(2.7247655375088e+18 -0 -0)
(2.73655476337706e+18 -0 -0)
(2.7484794089249e+18 -0 -0)
(2.76057841482676e+18 -0 -0)
(2.77289243604091e+18 -0 -0)
(2.78546438861397e+18 -0 -0)
(2.79833835090108e+18 -0 -0)
(2.81156058339129e+18 -0 -0)
(2.82517925438497e+18 -0 -0)
(2.83924453709053e+18 -0 -0)
(2.8538088678451e+18 -0 -0)
(2.86892710669909e+18 -0 -0)
(2.8846558336354e+18 -0 -0)
(2.90105512375137e+18 -0 -0)
(2.91818691628225e+18 -0 -0)
(2.93611575226869e+18 -0 -0)
(2.95490982429104e+18 -0 -0)
(2.97463917456492e+18 -0 -0)
(2.9953775575672e+18 -0 -0)
(3.01720168520603e+18 -0 -0)
(3.04019113914838e+18 -0 -0)
(3.06442925054908e+18 -0 -0)
(3.09000231697677e+18 -0 -0)
(3.11700005814938e+18 -0 -0)
(3.14551602437738e+18 -0 -0)
(3.17564659531717e+18 -0 -0)
(3.20749195294032e+18 -0 -0)
(3.24115591946644e+18 -0 -0)
(3.27674515361823e+18 -0 -0)
(3.31437005600019e+18 -0 -0)
(3.35414369655092e+18 -0 -0)
(3.39618294867541e+18 -0 -0)
(3.44060633320496e+18 -0 -0)
(3.48753565610364e+18 -0 -0)
(3.53709478297469e+18 -0 -0)
(3.58940903402115e+18 -0 -0)
(3.64460496043902e+18 -0 -0)
(3.70281053868701e+18 -0 -0)
(3.76415311628565e+18 -0 -0)
(3.82875983210054e+18 -0 -0)
(3.89675656448013e+18 -0 -0)
(3.96826681471798e+18 -0 -0)
(4.04341101530363e+18 -0 -0)
(4.12230574162352e+18 -0 -0)
(4.20506123768287e+18 -0 -0)
(4.29178247138548e+18 -0 -0)
(4.38256592767941e+18 -0 -0)
(4.47749867656743e+18 -0 -0)
(4.57665714846533e+18 -0 -0)
(4.6801061682173e+18 -0 -0)
(4.78789602101139e+18 -0 -0)
(4.90006157386042e+18 -0 -0)
(5.01662108575383e+18 -0 -0)
(5.13757390400683e+18 -0 -0)
(5.26289810326584e+18 -0 -0)
(5.39255137363805e+18 -0 -0)
(5.52646618374629e+18 -0 -0)
(5.664550322039e+18 -0 -0)
(5.80668650561419e+18 -0 -0)
(5.95272694771651e+18 -0 -0)
(6.10249714277192e+18 -0 -0)
(6.25579408107832e+18 -0 -0)
(6.4123801849858e+18 -0 -0)
(6.57199232285113e+18 -0 -0)
(6.73433401190112e+18 -0 -0)
(6.89907921430612e+18 -0 -0)
(7.06587354206348e+18 -0 -0)
(7.23433200901853e+18 -0 -0)
(7.40404673308019e+18 -0 -0)
(7.57458434528254e+18 -0 -0)
(7.74549058543001e+18 -0 -0)
(7.91628605741524e+18 -0 -0)
(8.08646436058675e+18 -0 -0)
(8.25563159785018e+18 -0 -0)
(8.42321989472888e+18 -0 -0)
(8.58843559023281e+18 -0 -0)
(8.751010208522e+18 -0 -0)
(8.91154048617899e+18 -0 -0)
(9.06942249983688e+18 -0 -0)
(9.21860470824483e+18 -0 -0)
(9.35961361566703e+18 -0 -0)
(9.51396911476219e+18 -0 -0)
(9.66418786381401e+18 -0 -0)
(9.79946945646286e+18 -0 -0)
(9.92373537757603e+18 -0 -0)
(1.00562921117975e+19 -0 -0)
(1.02111284157696e+19 -0 -0)
(1.03150404960914e+19 -0 -0)
(1.0430210118075e+19 -0 -0)
(1.05735116140527e+19 -0 -0)
(1.06318767501713e+19 -0 -0)
(1.08009573525093e+19 -0 -0)
(1.08424196424589e+19 -0 -0)
(1.10012279170859e+19 -0 -0)
(1.108001919818e+19 -0 -0)
(1.1127207316386e+19 -0 -0)
(1.1379443128953e+19 -0 -0)
(1.13590796200215e+19 -0 -0)
(1.13972195421488e+19 -0 -0)
(1.16328471782546e+19 -0 -0)
(1.17695158410482e+19 -0 -0)
(1.18352763598282e+19 -0 -0)
(1.19305438565565e+19 -0 -0)
(1.20360245839125e+19 -0 -0)
(1.2095693154628e+19 -0 -0)
(1.22950157722767e+19 -0 -0)
(1.25230835745007e+19 -0 -0)
(1.26139985711374e+19 -0 -0)
(1.26876916959953e+19 -0 -0)
(1.27950706810407e+19 -0 -0)
(1.29317016937226e+19 -0 -0)
(1.31315964747867e+19 -0 -0)
(1.3303458333299e+19 -0 -0)
(1.35122327167734e+19 -0 -0)
(1.3657142398572e+19 -0 -0)
(1.37859648457923e+19 -0 -0)
(1.39132555119665e+19 -0 -0)
(1.39905705229077e+19 -0 -0)
(1.41152744175944e+19 -0 -0)
(1.42508717470188e+19 -0 -0)
(1.43524856331908e+19 -0 -0)
(1.44764863294021e+19 -0 -0)
(1.45419082516455e+19 -0 -0)
(1.45979107525584e+19 -0 -0)
(1.46598186885753e+19 -0 -0)
(1.46562193116673e+19 -0 -0)
(1.46775257245235e+19 -0 -0)
(1.47056721830014e+19 -0 -0)
(1.46937662005606e+19 -0 -0)
(1.47403990162148e+19 -0 -0)
(1.47591890440516e+19 -0 -0)
(1.47537524619845e+19 -0 -0)
(1.47318878322529e+19 -0 -0)
(1.46935650554027e+19 -0 -0)
(1.46389811558061e+19 -0 -0)
(1.45667318715722e+19 -0 -0)
(1.44914897479148e+19 -0 -0)
(1.43987592687841e+19 -0 -0)
(1.43088034927256e+19 -0 -0)
(1.42081187957004e+19 -0 -0)
(1.41010968951242e+19 -0 -0)
(1.39981902837526e+19 -0 -0)
(1.38806050814828e+19 -0 -0)
(1.37754146592362e+19 -0 -0)
(1.36552607492789e+19 -0 -0)
(1.35367778504674e+19 -0 -0)
(1.34167909212572e+19 -0 -0)
(1.32724914256813e+19 -0 -0)
(1.31205519871859e+19 -0 -0)
(1.29606320950179e+19 -0 -0)
(1.27940722320539e+19 -0 -0)
(1.26229539527714e+19 -0 -0)
(1.24492946840732e+19 -0 -0)
(1.22748424002977e+19 -0 -0)
(1.21009557967058e+19 -0 -0)
(1.19286115858961e+19 -0 -0)
(1.17583634304227e+19 -0 -0)
(1.15899877966853e+19 -0 -0)
(1.14228224067319e+19 -0 -0)
(1.1255821666692e+19 -0 -0)
(1.10883139350542e+19 -0 -0)
(1.09197904280112e+19 -0 -0)
(1.07504586265623e+19 -0 -0)
(1.05798979958497e+19 -0 -0)
(1.04089814030362e+19 -0 -0)
(1.02362897773442e+19 -0 -0)
(1.00638393427633e+19 -0 -0)
(9.88873980997585e+18 -0 -0)
(9.71573863376662e+18 -0 -0)
(9.53903838289271e+18 -0 -0)
(9.36719736774184e+18 -0 -0)
(9.18995342995544e+18 -0 -0)
(9.02001141296745e+18 -0 -0)
(8.84313056790991e+18 -0 -0)
(8.6752471193779e+18 -0 -0)
(8.49983799697036e+18 -0 -0)
(8.33511659995737e+18 -0 -0)
(8.16210276224232e+18 -0 -0)
(8.00119058126954e+18 -0 -0)
(7.83268390943395e+18 -0 -0)
(7.67841812369361e+18 -0 -0)
(7.51318531561897e+18 -0 -0)
(7.36456910731476e+18 -0 -0)
(7.20309260475193e+18 -0 -0)
(7.06016537485683e+18 -0 -0)
(6.90311468233289e+18 -0 -0)
(6.76720751599528e+18 -0 -0)
(6.61481167651892e+18 -0 -0)
(6.48617680361554e+18 -0 -0)
(6.33864653714819e+18 -0 -0)
(6.21706725207381e+18 -0 -0)
(6.07404108342078e+18 -0 -0)
(5.95954164718754e+18 -0 -0)
(5.82058616182534e+18 -0 -0)
(5.7128157476503e+18 -0 -0)
(5.57737384757804e+18 -0 -0)
(5.47594620500119e+18 -0 -0)
(5.34377198859516e+18 -0 -0)
(5.24897596932039e+18 -0 -0)
(5.11990339817329e+18 -0 -0)
(5.03150108196056e+18 -0 -0)
(4.9054882336312e+18 -0 -0)
(4.82386212819094e+18 -0 -0)
(4.70051055246498e+18 -0 -0)
(4.62571107380938e+18 -0 -0)
(4.50517211410989e+18 -0 -0)
(4.43738648653519e+18 -0 -0)
(4.31967005220398e+18 -0 -0)
(4.25856453274845e+18 -0 -0)
(4.14327855809492e+18 -0 -0)
(4.08917858121029e+18 -0 -0)
(3.95067121144959e+18 -0 -0)
)
;

boundaryField
{
    electrode
    {
        type            calculated;
        value           uniform (-88815846159.0848 -0 -0);
    }
    ground
    {
        type            calculated;
        value           uniform (3.95264412007257e+18 -0 -0);
    }
    otherfaces
    {
        type            empty;
    }
}


// ************************************************************************* //
