/*--------------------------------*- C++ -*----------------------------------*\
| =========                 |                                                 |
| \\      /  F ield         | foam-extend: Open Source CFD                    |
|  \\    /   O peration     | Version:     4.0                                |
|   \\  /    A nd           | Web:         http://www.foam-extend.org         |
|    \\/     M anipulation  |                                                 |
\*---------------------------------------------------------------------------*/
FoamFile
{
    version     2.0;
    format      ascii;
    class       volVectorField;
    location    "5e-07";
    object      J_electron;
}
// * * * * * * * * * * * * * * * * * * * * * * * * * * * * * * * * * * * * * //

dimensions      [1 -1 -1 0 0 0 0];

internalField   nonuniform List<vector> 
300
(
(-9.32049339705628e+18 0 0)
(-9.63632457646234e+18 0 0)
(-1.12794852327418e+19 0 0)
(-1.08603935713844e+19 0 0)
(-1.09704428901801e+19 0 0)
(-1.09048220868942e+19 0 0)
(-1.08223122706079e+19 0 0)
(-1.07928443940768e+19 0 0)
(-1.07450175745486e+19 0 0)
(-1.06956217147659e+19 0 0)
(-1.06507247305829e+19 0 0)
(-1.06064861575684e+19 0 0)
(-1.05630357919395e+19 0 0)
(-1.0520616752798e+19 0 0)
(-1.04792426891428e+19 0 0)
(-1.04388380398071e+19 0 0)
(-1.03993402302165e+19 0 0)
(-1.03606851923614e+19 0 0)
(-1.03228115989028e+19 0 0)
(-1.0285636728498e+19 0 0)
(-1.02490733001647e+19 0 0)
(-1.02130691818995e+19 0 0)
(-1.01774952033729e+19 0 0)
(-1.01423166001826e+19 0 0)
(-1.01074631878838e+19 0 0)
(-1.00728163849104e+19 0 0)
(-1.00383704118107e+19 0 0)
(-1.00040760915756e+19 0 0)
(-9.96983492876986e+18 0 0)
(-9.9356547966067e+18 0 0)
(-9.90153862750142e+18 0 0)
(-9.86739628849417e+18 0 0)
(-9.83327101356081e+18 0 0)
(-9.79917061299818e+18 0 0)
(-9.76506698798465e+18 0 0)
(-9.73099635791312e+18 0 0)
(-9.69698451897844e+18 0 0)
(-9.6630445230601e+18 0 0)
(-9.62920510065633e+18 0 0)
(-9.59551381497053e+18 0 0)
(-9.56199271774552e+18 0 0)
(-9.52867691267411e+18 0 0)
(-9.49561489227645e+18 0 0)
(-9.46283346684124e+18 0 0)
(-9.43037166932827e+18 0 0)
(-9.39826651068e+18 0 0)
(-9.36654099698994e+18 0 0)
(-9.33525227666853e+18 0 0)
(-9.30438084265955e+18 0 0)
(-9.2740067597657e+18 0 0)
(-9.24411399301235e+18 0 0)
(-9.21472675164901e+18 0 0)
(-9.18588578361718e+18 0 0)
(-9.15756217351353e+18 0 0)
(-9.12980961796686e+18 0 0)
(-9.10259512363241e+18 0 0)
(-9.07594953558642e+18 0 0)
(-9.04986204530095e+18 0 0)
(-9.02433026547044e+18 0 0)
(-8.99933490645251e+18 0 0)
(-8.97491517977657e+18 0 0)
(-8.9510084890371e+18 0 0)
(-8.92759554399221e+18 0 0)
(-8.90474870719801e+18 0 0)
(-8.8823497648843e+18 0 0)
(-8.86041359075115e+18 0 0)
(-8.83896225090214e+18 0 0)
(-8.81790493088704e+18 0 0)
(-8.79726999390441e+18 0 0)
(-8.77701703820693e+18 0 0)
(-8.75707646529608e+18 0 0)
(-8.73750091843266e+18 0 0)
(-8.71820972473844e+18 0 0)
(-8.69913310069627e+18 0 0)
(-8.68033891322928e+18 0 0)
(-8.66167641540316e+18 0 0)
(-8.64323493507e+18 0 0)
(-8.62483906615234e+18 0 0)
(-8.60652581520251e+18 0 0)
(-8.58832612422137e+18 0 0)
(-8.56998724102783e+18 0 0)
(-8.55169418964212e+18 0 0)
(-8.53326861436453e+18 0 0)
(-8.51466223874343e+18 0 0)
(-8.49590489455526e+18 0 0)
(-8.47688272359247e+18 0 0)
(-8.45753662002378e+18 0 0)
(-8.43782443666506e+18 0 0)
(-8.41778208475395e+18 0 0)
(-8.39713967638105e+18 0 0)
(-8.37601609987496e+18 0 0)
(-8.35435296974386e+18 0 0)
(-8.33190160097817e+18 0 0)
(-8.30879824588518e+18 0 0)
(-8.28486014799865e+18 0 0)
(-8.26002972221532e+18 0 0)
(-8.23425411144797e+18 0 0)
(-8.20741689518326e+18 0 0)
(-8.17944112268103e+18 0 0)
(-8.1503100543288e+18 0 0)
(-8.11978769384709e+18 0 0)
(-8.08789179348654e+18 0 0)
(-8.05456079003478e+18 0 0)
(-8.01949988674024e+18 0 0)
(-7.98283446597452e+18 0 0)
(-7.94431468761829e+18 0 0)
(-7.90382528625954e+18 0 0)
(-7.86135729634017e+18 0 0)
(-7.81665561286961e+18 0 0)
(-7.76969201421333e+18 0 0)
(-7.72032330508586e+18 0 0)
(-7.66835513887189e+18 0 0)
(-7.61377133333106e+18 0 0)
(-7.55636803590108e+18 0 0)
(-7.49597127323104e+18 0 0)
(-7.432568853392e+18 0 0)
(-7.36593108514741e+18 0 0)
(-7.29597201567659e+18 0 0)
(-7.2225016971977e+18 0 0)
(-7.14549950851685e+18 0 0)
(-7.06477458574331e+18 0 0)
(-6.98014478858768e+18 0 0)
(-6.89165531427845e+18 0 0)
(-6.79910006586553e+18 0 0)
(-6.70233658088279e+18 0 0)
(-6.6013770286933e+18 0 0)
(-6.4961179660887e+18 0 0)
(-6.38641486717832e+18 0 0)
(-6.27230053193692e+18 0 0)
(-6.15367554732183e+18 0 0)
(-6.0304892817986e+18 0 0)
(-5.90282684706744e+18 0 0)
(-5.77052345074241e+18 0 0)
(-5.63362385933317e+18 0 0)
(-5.49226586767989e+18 0 0)
(-5.3463317772286e+18 0 0)
(-5.19583233008573e+18 0 0)
(-5.04089499239449e+18 0 0)
(-4.88156966881749e+18 0 0)
(-4.71776302483217e+18 0 0)
(-4.54958117316565e+18 0 0)
(-4.37712643802897e+18 0 0)
(-4.20020359825614e+18 0 0)
(-4.01892664829123e+18 0 0)
(-3.83328134269973e+18 0 0)
(-3.64289531946992e+18 0 0)
(-3.44795831971978e+18 0 0)
(-3.24804673400943e+18 0 0)
(-3.04257883868076e+18 0 0)
(-2.83170290550597e+18 0 0)
(-2.6143913325877e+18 0 0)
(-2.38987867377684e+18 0 0)
(-2.15761843286809e+18 0 0)
(-1.91613646309373e+18 0 0)
(-1.66428220669506e+18 0 0)
(-1.40013549331992e+18 0 0)
(-1.12161720844472e+18 0 0)
(-8.26633416528101e+17 0 0)
(-5.12606094788395e+17 0 0)
(-1.75791644428206e+17 0 0)
(1.9458412303614e+17 0 0)
(5.89575136282149e+17 0 0)
(9.99619546337772e+17 0 0)
(1.48643073619499e+18 0 0)
(2.10337970279416e+18 0 0)
(2.70057453718602e+18 0 0)
(3.02564293840103e+18 0 0)
(3.7898652856164e+18 0 0)
(6.40205811545748e+18 0 0)
(9.37925273367609e+18 0 0)
(1.02496162660567e+19 0 0)
(1.0502636189543e+19 0 0)
(1.27830275383225e+19 0 0)
(1.62008579820455e+19 0 0)
(1.58399075965563e+19 0 0)
(1.3989279865812e+19 0 0)
(1.41338198405378e+19 0 0)
(1.15863305897388e+19 0 0)
(9.09396506829233e+18 0 0)
(6.15194212586802e+18 0 0)
(3.91070151987325e+18 0 0)
(3.64633501806153e+18 0 0)
(4.22027515204207e+18 0 0)
(1.14074674089721e+19 0 0)
(1.86925917593875e+19 0 0)
(2.75308330932419e+19 0 0)
(4.18238165137354e+19 0 0)
(5.27120621774202e+19 0 0)
(5.92187637678541e+19 0 0)
(6.26557577416184e+19 0 0)
(6.09338837405841e+19 0 0)
(5.44940330034948e+19 0 0)
(4.50031082787342e+19 0 0)
(3.48400516474309e+19 0 0)
(2.42179560599738e+19 0 0)
(1.56263591936144e+19 0 0)
(8.37232209603441e+18 0 0)
(5.95613151398579e+18 0 0)
(1.09662265925948e+18 0 0)
(5.41845903452793e+17 0 0)
(-4.09941088090199e+17 0 0)
(-4.19841308747644e+17 0 0)
(-5.91710644398601e+17 0 0)
(-7.1167677775757e+17 0 0)
(-7.89455681653697e+17 0 0)
(-8.28124576583729e+17 0 0)
(-8.41330802872644e+17 0 0)
(-8.4519521416394e+17 0 0)
(-8.39623666781626e+17 0 0)
(-8.30406510164535e+17 0 0)
(-8.18138910958459e+17 0 0)
(-8.07090905325422e+17 0 0)
(-7.95307936789006e+17 0 0)
(-7.83021841349667e+17 0 0)
(-7.70708970705164e+17 0 0)
(-7.578763884661e+17 0 0)
(-7.4487132303341e+17 0 0)
(-7.31479763139881e+17 0 0)
(-7.18099920696709e+17 0 0)
(-7.04990612039512e+17 0 0)
(-6.91694219350406e+17 0 0)
(-6.78331658245782e+17 0 0)
(-6.64995820940257e+17 0 0)
(-6.51721369597859e+17 0 0)
(-6.38540749012235e+17 0 0)
(-6.25478871604494e+17 0 0)
(-6.12558303124858e+17 0 0)
(-5.99800284611403e+17 0 0)
(-5.87220429098281e+17 0 0)
(-5.74835678243459e+17 0 0)
(-5.62658104293617e+17 0 0)
(-5.50696750743678e+17 0 0)
(-5.38968654269684e+17 0 0)
(-5.27432615400907e+17 0 0)
(-5.1621890527523e+17 0 0)
(-5.0520776331313e+17 0 0)
(-4.9444342566962e+17 0 0)
(-4.83924015630064e+17 0 0)
(-4.73652862282935e+17 0 0)
(-4.63628910668198e+17 0 0)
(-4.53850568770903e+17 0 0)
(-4.44315225409616e+17 0 0)
(-4.35019583670986e+17 0 0)
(-4.2595970619459e+17 0 0)
(-4.17131298920918e+17 0 0)
(-4.08529289664537e+17 0 0)
(-4.00150658099001e+17 0 0)
(-3.91985748376782e+17 0 0)
(-3.84021827189361e+17 0 0)
(-3.76278031575304e+17 0 0)
(-3.68733216456969e+17 0 0)
(-3.61369811731234e+17 0 0)
(-3.54198976645625e+17 0 0)
(-3.47208897629027e+17 0 0)
(-3.40394902284167e+17 0 0)
(-3.33750963959867e+17 0 0)
(-3.2727178214184e+17 0 0)
(-3.20951860443542e+17 0 0)
(-3.14786147716661e+17 0 0)
(-3.08769416647967e+17 0 0)
(-3.0289670893012e+17 0 0)
(-2.97162588952324e+17 0 0)
(-2.91559049991581e+17 0 0)
(-2.86071733147091e+17 0 0)
(-2.80757227348178e+17 0 0)
(-2.75537623459487e+17 0 0)
(-2.70438678859019e+17 0 0)
(-2.65453182952601e+17 0 0)
(-2.60579362297642e+17 0 0)
(-2.55813608166781e+17 0 0)
(-2.51152983158888e+17 0 0)
(-2.4659426971134e+17 0 0)
(-2.42134548308189e+17 0 0)
(-2.37770802840576e+17 0 0)
(-2.33500337590718e+17 0 0)
(-2.29320166191044e+17 0 0)
(-2.2522784531634e+17 0 0)
(-2.21218072006729e+17 0 0)
(-2.17289967796851e+17 0 0)
(-2.13393428983237e+17 0 0)
(-2.09711593848805e+17 0 0)
(-2.06038969383491e+17 0 0)
(-2.02449816853194e+17 0 0)
(-1.98935072274434e+17 0 0)
(-1.95493371446354e+17 0 0)
(-1.92123988227422e+17 0 0)
(-1.88751695997572e+17 0 0)
(-1.8565176120435e+17 0 0)
(-1.8252054957961e+17 0 0)
(-1.79473467767805e+17 0 0)
(-1.76401586282196e+17 0 0)
(-1.73606509047213e+17 0 0)
(-1.70837942327258e+17 0 0)
(-1.67997364209211e+17 0 0)
(-1.65572135126248e+17 0 0)
(-1.62951661721038e+17 0 0)
(-1.60882802407403e+17 0 0)
(-1.587679081647e+17 0 0)
(-1.56916990404609e+17 0 0)
(-1.54112429721164e+17 0 0)
)
;

boundaryField
{
    electrode
    {
        type            calculated;
        value           uniform (-1.11685929095175e+19 0 0);
    }
    ground
    {
        type            calculated;
        value           uniform (-1.53509049354717e+17 0 0);
    }
    otherfaces
    {
        type            empty;
    }
}


// ************************************************************************* //
