/*--------------------------------*- C++ -*----------------------------------*\
| =========                 |                                                 |
| \\      /  F ield         | foam-extend: Open Source CFD                    |
|  \\    /   O peration     | Version:     4.0                                |
|   \\  /    A nd           | Web:         http://www.foam-extend.org         |
|    \\/     M anipulation  |                                                 |
\*---------------------------------------------------------------------------*/
FoamFile
{
    version     2.0;
    format      ascii;
    class       volScalarField;
    location    "5e-07";
    object      N_electronMean;
}
// * * * * * * * * * * * * * * * * * * * * * * * * * * * * * * * * * * * * * //

dimensions      [0 0 0 1 0 0 0];

internalField   nonuniform List<scalar> 
300
(
6.08041304575397e+16
6.08074078934977e+16
6.0809586290669e+16
6.08088029265839e+16
6.08050381418364e+16
6.07979391159377e+16
6.0787274548308e+16
6.07728787511052e+16
6.07546035369272e+16
6.0732327752116e+16
6.07059532195031e+16
6.06754021272234e+16
6.06406147500419e+16
6.06015474643935e+16
6.05581712573014e+16
6.05104702367471e+16
6.0458440368058e+16
6.04020883846287e+16
6.03414307430408e+16
6.02764926498822e+16
6.02073072160259e+16
6.01339146797197e+16
6.00563616822425e+16
5.99747005557792e+16
5.98889888432565e+16
5.9799288964457e+16
5.97056675603107e+16
5.96081948731071e+16
5.95069442988201e+16
5.94019917516307e+16
5.92934153607948e+16
5.91812955981094e+16
5.90657148059319e+16
5.89467562791071e+16
5.88245037219774e+16
5.8699040910352e+16
5.85704513876494e+16
5.84388182401315e+16
5.83042238308626e+16
5.81667495399161e+16
5.80264756467789e+16
5.7883481208847e+16
5.77378438307955e+16
5.75896394989801e+16
5.74389425099908e+16
5.72858254191904e+16
5.71303590302835e+16
5.69726124453984e+16
5.68126532233335e+16
5.66505476446417e+16
5.64863612243986e+16
5.63201592322623e+16
5.61520068155112e+16
5.59819687838188e+16
5.58101090799022e+16
5.56364902154735e+16
5.54611728510481e+16
5.52842155631834e+16
5.51056747694167e+16
5.49256046648981e+16
5.47440572103398e+16
5.45610821488877e+16
5.43767269707326e+16
5.419103725084e+16
5.40040574286474e+16
5.38158307708801e+16
5.36263985714545e+16
5.3435799828691e+16
5.3244071288801e+16
5.3051247474133e+16
5.28573606971552e+16
5.26624412697323e+16
5.24665180830546e+16
5.22696187758697e+16
5.20717694337347e+16
5.18729949583414e+16
5.16733196846663e+16
5.14727673851277e+16
5.12713606942243e+16
5.10691208736066e+16
5.08660680489472e+16
5.06622205844549e+16
5.04575944842164e+16
5.02522033743191e+16
5.00460586512066e+16
4.98391699039774e+16
4.96315447656321e+16
4.94231882952183e+16
4.92141028324401e+16
4.90042881901917e+16
4.87937415325756e+16
4.85824577817219e+16
4.83704301523421e+16
4.81576492609449e+16
4.79441022841534e+16
4.7729772853786e+16
4.75146409308267e+16
4.72986826681706e+16
4.70818702596638e+16
4.68641719237475e+16
4.66455518508827e+16
4.64259698395586e+16
4.62053813542774e+16
4.59837378305601e+16
4.57609861470283e+16
4.55370682495807e+16
4.5311921053778e+16
4.50854761523854e+16
4.48576597252627e+16
4.46283920508589e+16
4.43975868543298e+16
4.41651509434904e+16
4.39309839685709e+16
4.36949783832632e+16
4.34570191318393e+16
4.32169833020939e+16
4.29747403991334e+16
4.27301521739995e+16
4.24830715412565e+16
4.22333415780605e+16
4.198079526558e+16
4.17252554411727e+16
4.14665345941745e+16
4.12044347495172e+16
4.0938746478979e+16
4.06692472952827e+16
4.03957008818129e+16
4.01178566385461e+16
3.98354486798128e+16
3.95481949344187e+16
3.92557965858625e+16
3.89579374728293e+16
3.86542833192881e+16
3.83444809152389e+16
3.80281581563713e+16
3.77049243649771e+16
3.73743691757328e+16
3.70360611461306e+16
3.66895476165724e+16
3.63343546327302e+16
3.59699859789044e+16
3.55959223546169e+16
3.5211621180205e+16
3.48165167634321e+16
3.44100211910846e+16
3.39915250320381e+16
3.35603970167078e+16
3.31159836738229e+16
3.2657609113232e+16
3.21845759732109e+16
3.16961674947212e+16
3.11916484177781e+16
3.06702663118308e+16
3.01312537744862e+16
2.95738296539988e+16
2.8997201005571e+16
2.84005661985197e+16
2.7783117912266e+16
2.71440451604789e+16
2.64825351469386e+16
2.57977754492907e+16
2.5088952833192e+16
2.4355248405071e+16
2.35958270481871e+16
2.28098084966716e+16
2.19962063289789e+16
2.1153857335849e+16
2.02813913123912e+16
1.93772430549322e+16
1.84397380579877e+16
1.74673261855094e+16
1.64589137076111e+16
1.54141919635916e+16
1.43340078985502e+16
1.32209075551195e+16
1.20797746370011e+16
1.09182920487083e+16
9.74721593846718e+15
8.58048192195308e+15
7.43490338764379e+15
6.32940715868425e+15
5.2837970198897e+15
4.31712934034595e+15
3.44589798249436e+15
2.68229269665188e+15
2.03295903384243e+15
1.49837476653662e+15
1.07302466129256e+15
746462593296700
504855658985855
332729325828365
214682179430147
136716079768610
87048033113806.3
56375784985376.5
37911593519860.9
26964139394996.9
20486537279075.5
16516793504849.8
13993697118063.5
12382906663848.4
11355526551194
10653457894234.6
10115432995246.3
9663436524682.92
9261849368986.37
8893810008632.27
8550755513213.73
8227788884722.48
7921830417619.23
7630798399611.25
7353216315137.62
7087871703942.43
6833773360409.76
6590086936393.93
6356097007194.07
6131183731386.77
5914804025313.38
5706467694355.1
5505745154171.36
5312267913266.76
5125667076719.15
4945616153809.55
4771821780199.08
4604011402282.13
4441933288375.06
4285356019618.05
4134061028990.02
3987846403851.4
3846521557121.7
3709904014385.48
3577826442219.3
3450125650976.23
3326646355262.68
3207244223079.93
3091780436011.36
2980119923473.02
2872138371710.95
2767712180696.62
2666722579750.39
2569059400776.78
2474613718160.32
2383285479139.87
2294976942678.04
2209593296090.17
2127045515940.57
2047245046188.04
1970107200895.29
1895547595361.72
1823485245090.47
1753842253118.73
1686540855954.8
1621506274188.06
1558664079602.82
1497944084830.25
1439281273576.31
1382612317354.4
1327876938875.79
1275018362055.66
1223980034179.01
1174708587265.26
1127149539185.11
1081250101667.2
1036956109299.59
994215115450.732
952979123294.799
913202346866.127
874842368594.289
837857194055.683
802207882883.895
767854388613.501
734756846972.99
702875195013.805
672173114963.445
642615385375.318
614168354465.365
586798921432.063
560473054939.058
535158616713.355
510825493758.063
487444478964.346
464983837760.372
443415321381.135
422714730735.266
402854787986.961
383809181458.886
365554968212.533
348067935509.579
331326834494.473
315313260660.12
300005977770.645
285383286956.946
271430719557.689
258137688391.616
245499700352.398
233520472088.856
222215260611.159
211597047564.416
201844996891.462
192978389674.039
)
;

boundaryField
{
    electrode
    {
        type            calculated;
        value           uniform 6.08041304598972e+16;
    }
    ground
    {
        type            calculated;
        value           uniform 189161181209.432;
    }
    otherfaces
    {
        type            empty;
    }
}


// ************************************************************************* //
