/*--------------------------------*- C++ -*----------------------------------*\
| =========                 |                                                 |
| \\      /  F ield         | foam-extend: Open Source CFD                    |
|  \\    /   O peration     | Version:     4.0                                |
|   \\  /    A nd           | Web:         http://www.foam-extend.org         |
|    \\/     M anipulation  |                                                 |
\*---------------------------------------------------------------------------*/
FoamFile
{
    version     2.0;
    format      ascii;
    class       volScalarField;
    location    "5e-07";
    object      Phi;
}
// * * * * * * * * * * * * * * * * * * * * * * * * * * * * * * * * * * * * * //

dimensions      [0 0 0 1 0 0 0];

internalField   nonuniform List<scalar> 
300
(
699.999965129916
699.999746749147
699.999271796772
699.998560475356
699.997610528372
699.996419946153
699.994989920808
699.993318297561
699.991403582077
699.989244479456
699.986839370674
699.984186589261
699.981284462811
699.978131320353
699.974725521934
699.971065491536
699.96714974658
699.962976925125
699.958545810855
699.95385535582
699.948904700868
699.94369319234
699.938220396266
699.932486110439
699.926490369621
699.920233453948
699.913715888257
699.906938441645
699.899902124637
699.892608183921
699.885058091537
699.87725353821
699.869196420662
699.860888827543
699.852333027257
699.843531452563
699.834486684728
699.825201438446
699.815678545918
699.805920940826
699.795931642651
699.78571374213
699.775270385611
699.764604761483
699.753720086479
699.742619592879
699.731306516457
699.719784085294
699.708055508849
699.69612396973
699.683992611623
699.671664535737
699.659142787959
699.64643035692
699.633530163901
699.620445059685
699.607177818046
699.593731131357
699.580107606473
699.566309760602
699.552340017583
699.538200703642
699.523894047033
699.509422170634
699.494787091572
699.479990719445
699.46503484954
699.449921163015
699.434651222836
699.419226469346
699.403648219205
699.387917659581
699.372035843887
699.356003690823
699.339821976035
699.323491328099
699.307012225652
699.290384985606
699.273609766862
699.256686548652
699.23961513841
699.222395153341
699.205026013313
699.187506935943
699.169836919734
699.152014736911
699.134038920737
699.115907752366
699.097619245241
699.079171131909
699.06056085208
699.041785522805
699.022841936946
699.003726531418
698.984435370235
698.964964124218
698.945308044133
698.925461937941
698.905420142931
698.885176496786
698.864724307149
698.844056323716
698.823164693297
698.802040936233
698.780675899389
698.759059713984
698.737181760279
698.715030610284
698.692593986311
698.669858705974
698.646810624652
698.623434580878
698.599714330819
698.575632481437
698.551170426381
698.526308265678
698.501024730204
698.475297102284
698.449101124303
698.422410912644
698.395198852699
698.367435511267
698.339089515461
698.31012744913
698.280513733604
698.250210504193
698.219177474298
698.187371807945
698.15474796809
698.121257568068
698.086849212007
698.051468324906
698.015056973711
697.977553686725
697.938893239022
697.899006451305
697.857819960072
697.815255973175
697.771232002957
697.725660592075
697.678449002688
697.629498877853
697.578705878793
697.52595928501
697.471141532013
697.414127731656
697.354785103974
697.292972342965
697.228538933327
697.16132431815
697.09115697926
697.017853417444
696.941216889183
696.861036028257
696.777083203199
696.689112600657
696.596858004014
696.500030123382
696.398313485684
696.291362744118
696.178798364822
696.060201217829
695.935105290131
695.802992092509
695.663283142396
695.515321558627
695.35834963386
695.191514247444
695.013896461257
694.824382970768
694.62139122458
694.402955555838
694.166942898383
693.910870791795
693.631447002122
693.324462781928
692.98550710642
692.609376700565
692.18981249591
691.720226731182
691.192893852385
690.600028311013
689.932956738134
689.183249036116
688.343052703504
687.402989956995
686.35708509164
685.200546053812
683.926800461206
682.532339593011
681.015850486102
679.376191432857
677.613470964464
675.729268970202
673.723788479792
671.597027353489
669.350865631959
666.987780195235
664.509421053306
661.917093335355
659.211280702756
656.392499279875
653.461603910766
650.419746798616
647.268020414804
644.007343921249
640.638848279332
637.16313665154
633.580593874025
629.892024358935
626.098261164709
622.200444182289
618.1996609608
614.096850653914
609.893302059078
605.590030218751
601.187915470786
596.688021163241
592.090943752136
587.397396242956
582.608509323861
577.725502476769
572.749628395588
567.682173400392
562.524467474129
557.27779594154
551.94349152865
546.522813595613
541.0170336218
535.427410969441
529.755134150759
524.001434540967
518.167430018077
512.254287656782
506.263128586921
500.19504930306
494.051371881607
487.833491179614
481.542808864137
475.180727426948
468.748640120281
462.2479215006
455.679919647021
449.045950623931
442.347295059436
435.585196988782
428.760866789532
421.87548629348
414.930215732532
407.926198489532
400.864564839219
393.746431803399
386.57290626238
379.345081231362
372.064044056883
364.73086668134
357.34662131819
349.912356612047
342.429128152105
334.897955170862
327.319873721308
319.695872374086
312.026965346123
304.314112038909
296.558301341282
288.760460001405
280.921548906579
273.042460866696
265.124143516163
257.167480048925
249.173399958429
241.142742038357
233.076401421577
224.975174256461
216.839919760919
208.67138662867
200.470398669955
192.237657520578
183.973952022427
175.67993928146
167.356376242496
159.003876653553
150.62316881648
142.214825966365
133.779551450786
125.317880854542
116.830494621379
108.317890178039
99.7807266314856
91.2194651912197
82.6347445143263
74.0269884799485
65.3968178157424
56.744619485442
48.0709961168324
39.3762974627997
30.6611085100467
21.9257439483036
13.17077340083
4.39647487055161
)
;

boundaryField
{
    electrode
    {
        type            fixedValue;
        value           uniform 700;
    }
    ground
    {
        type            fixedValue;
        value           uniform 0;
    }
    otherfaces
    {
        type            empty;
    }
}


// ************************************************************************* //
