/*--------------------------------*- C++ -*----------------------------------*\
| =========                 |                                                 |
| \\      /  F ield         | foam-extend: Open Source CFD                    |
|  \\    /   O peration     | Version:     4.0                                |
|   \\  /    A nd           | Web:         http://www.foam-extend.org         |
|    \\/     M anipulation  |                                                 |
\*---------------------------------------------------------------------------*/
FoamFile
{
    version     2.0;
    format      ascii;
    class       volScalarField;
    location    "5e-07";
    object      PhiMean;
}
// * * * * * * * * * * * * * * * * * * * * * * * * * * * * * * * * * * * * * //

dimensions      [0 0 0 1 0 0 0];

internalField   nonuniform List<scalar> 
300
(
699.853360714088
699.840822492861
699.827923203612
699.814738022807
699.801283946678
699.787515326039
699.773420198254
699.758986149066
699.744201922307
699.72905887463
699.71354995883
699.697669791597
699.681414276344
699.664780504309
699.647766619972
699.630371690345
699.612595599955
699.594438978331
699.575903111388
699.55698985854
699.537701595424
699.518041154711
699.498011773853
699.477617042029
699.456860845032
699.435747435696
699.414281316328
699.39246720199
699.370310018234
699.347814820538
699.324986741775
699.301831141276
699.278353535353
699.254559446742
699.230454389425
699.206043847085
699.181333245946
699.156327957982
699.131033275656
699.105454380486
699.079596346631
699.053464147526
699.027062612684
699.000396421592
698.973470099235
698.946288012139
698.918854365395
698.891173212114
698.86324846406
698.835083940726
698.806683407488
698.778050729807
698.749189810549
698.720104644697
698.690799175131
698.661277260782
698.631542589455
698.601598667147
698.571448816077
698.541096161211
698.510543634976
698.479793975817
698.448849718274
698.41771318282
698.386386708007
698.354872635376
698.323173080395
698.29128993901
698.259224895635
698.226979421236
698.194554771659
698.161951974392
698.12917196479
698.096215632708
698.063083658645
698.029776617496
697.996295135507
697.96263982042
697.928811239225
697.894809702183
697.860635607664
697.826289109408
697.791770083422
697.757078161787
697.722212682504
697.687172873556
697.651957787996
697.616566153003
697.580996352847
697.545246522738
697.509314484143
697.473197716389
697.436893762669
697.400399777896
697.363712473277
697.326828125958
697.28974254191
697.252451057822
697.214948478069
697.177229100803
697.139286718651
697.101114531021
697.062705063422
697.024050448535
696.98514211653
696.945970785185
696.906526518963
696.866798528517
696.826775318107
696.786444502413
696.745792676111
696.704805380258
696.663467002514
696.621760805786
696.579668868881
696.537171887797
696.494249341712
696.450879487374
696.407039019209
696.362702887022
696.317844171831
696.272434211904
696.226442306393
696.179835900558
696.132580243115
696.084637973204
696.035968913215
695.986530075033
695.936275205259
695.885154579772
695.833114755684
695.780098342392
695.726043663625
695.670884352896
695.614549079891
695.556961661113
695.498040312928
695.437696974447
695.375836973767
695.312358719156
695.247152829117
695.18010140951
695.111077377839
695.039943698622
694.966552743647
694.890745655029
694.812350895525
694.731183046183
694.647041192243
694.559707298216
694.468945192845
694.37449823829
694.276086929374
694.173407008303
694.066125762394
693.953878782584
693.836266111241
693.712847671217
693.583137464604
693.44659624538
693.302623871283
693.150548449749
692.989611879933
692.818953493949
692.637584595118
692.444347565163
692.237853502865
692.016425805612
691.778035993965
691.520214857181
691.240000812781
690.933895226611
690.597783838188
690.226820588873
689.815370720744
689.357042647401
688.844677306553
688.270296479783
687.625268253293
686.900430387269
686.086297433588
685.173403144334
684.152530935424
683.015222878273
681.753896976473
680.362234575484
678.835515160862
677.170242518211
675.364469138379
673.417737583279
671.330514108751
669.104176481459
666.740863182012
664.2430124038
661.61319988907
658.854272977561
655.969141850225
652.960573374594
649.831169754883
646.583422219523
643.219733273974
639.742496647863
636.154100596306
632.456876258108
628.653080253256
624.744921427981
620.734549840013
616.624076734231
612.415628178438
608.111323813672
603.713237428426
599.223390172839
594.643743350331
589.97622190249
585.222710838975
580.385049735874
575.465064263303
570.464550777682
565.385290756378
560.229070404078
554.997649277164
549.6927411795
544.316012248302
538.869086460264
533.353543342036
527.770922609195
522.122726014508
516.410416832601
510.635427358565
504.799153691583
498.902964335517
492.948197223554
486.936175070991
480.868228293964
474.745677680286
468.569841530563
462.342023167812
456.063492757167
449.735486613747
443.359207719854
436.935826796942
430.466483051732
423.952285533427
417.394314230241
410.793621362525
404.151232674058
397.46814860387
390.745345182355
383.98377505241
377.184367883024
370.348031103942
363.475650171434
356.568089192989
349.626191045035
342.650778157813
335.642652155905
328.602595118031
321.531368478895
314.429715295811
307.298357892279
300.138001865127
292.949331426744
285.733016121231
278.489703008408
271.220026876983
263.924598658848
256.60401977438
249.258866114022
241.889707514325
234.497087230569
227.08154622038
219.643595685818
212.183748012784
204.702482441602
197.200283634185
189.67759955474
182.134888544191
174.572568278822
166.991072395633
159.390789289291
151.772129369085
144.135452607254
136.481147715611
128.809547069248
121.121019225827
113.415869593383
105.694447838047
97.9570330331285
90.2039574281299
82.4354742045895
74.6518995266772
66.8534611709704
59.0404605715744
51.2131004505026
43.3716689180993
35.5163439342942
27.6474017124221
19.7649957452401
11.8693916944753
3.9607204645269
)
;

boundaryField
{
    electrode
    {
        type            calculated;
        value           uniform 699.999999999967;
    }
    ground
    {
        type            calculated;
        value           uniform 0;
    }
    otherfaces
    {
        type            empty;
    }
}


// ************************************************************************* //
