/*--------------------------------*- C++ -*----------------------------------*\
| =========                 |                                                 |
| \\      /  F ield         | foam-extend: Open Source CFD                    |
|  \\    /   O peration     | Version:     4.0                                |
|   \\  /    A nd           | Web:         http://www.foam-extend.org         |
|    \\/     M anipulation  |                                                 |
\*---------------------------------------------------------------------------*/
FoamFile
{
    version     2.0;
    format      ascii;
    class       volScalarField;
    location    "5e-07";
    object      Sy_electron;
}
// * * * * * * * * * * * * * * * * * * * * * * * * * * * * * * * * * * * * * //

dimensions      [1 -3 -1 0 0 0 0];

internalField   nonuniform List<scalar> 
300
(
3.689131888658e-13
3.68930803604323e-13
3.6886798872185e-13
3.68734640979706e-13
3.68557304745513e-13
3.68329903772972e-13
3.68055831441134e-13
3.67734499766603e-13
3.67365323498561e-13
3.66948668424606e-13
3.66484504159743e-13
3.65972768070496e-13
3.65413471916227e-13
3.64806635505518e-13
3.64152291717564e-13
3.63450495062845e-13
3.62701320359051e-13
3.61904878617101e-13
3.61061311703843e-13
3.60170791536259e-13
3.59233524971219e-13
3.58249754504633e-13
3.57219759994826e-13
3.56143859004724e-13
3.55022377043584e-13
3.53855730240816e-13
3.52644346420561e-13
3.5138868597125e-13
3.50089266611379e-13
3.48746624567136e-13
3.47361293725239e-13
3.45933884968709e-13
3.44465050404675e-13
3.4295544505204e-13
3.41405748752321e-13
3.39816663832839e-13
3.38188904532309e-13
3.36523215119402e-13
3.34820357525867e-13
3.33081101654756e-13
3.31306229925512e-13
3.2949653888076e-13
3.27652831416017e-13
3.25775917435861e-13
3.23866612446592e-13
3.21925735858201e-13
3.19954106216257e-13
3.1795254460336e-13
3.15921857151386e-13
3.13862860853676e-13
3.11776351804354e-13
3.09663168280131e-13
3.07524114106644e-13
3.05360029832902e-13
3.03171735063688e-13
3.00960058750799e-13
2.98725802328633e-13
2.96469760773073e-13
2.94192722670138e-13
2.9189546682093e-13
2.89578771502052e-13
2.87243404401498e-13
2.84890117799581e-13
2.82519630891302e-13
2.80132692417227e-13
2.77730080231013e-13
2.75312523484065e-13
2.72880743142359e-13
2.70435451588602e-13
2.67977351730263e-13
2.65507134967694e-13
2.63025472935001e-13
2.60533037082365e-13
2.58030505623434e-13
2.55518512182219e-13
2.52997704978655e-13
2.50468730861627e-13
2.47932209826402e-13
2.45388791564215e-13
2.42365692924794e-13
2.39181071305702e-13
2.3599710358617e-13
2.32814665812198e-13
2.29634628749416e-13
2.2645781798375e-13
2.23285077591583e-13
2.20117241544043e-13
2.16955107987259e-13
2.13799436124217e-13
2.10650999685249e-13
2.0751053280674e-13
2.04378687090258e-13
2.01256253242953e-13
1.98143918335694e-13
1.95042345690805e-13
1.91952179982327e-13
1.88874044397275e-13
1.85808541320942e-13
1.82756236779463e-13
1.79717691037337e-13
1.76693453604852e-13
1.73684045455162e-13
1.7068991429444e-13
1.67711579594052e-13
1.64749480689747e-13
1.6180403361944e-13
1.58875670357823e-13
1.55964748076741e-13
1.53071646424971e-13
1.50196715875254e-13
1.47340273012557e-13
1.44502612900008e-13
1.41684000176353e-13
1.38884685222302e-13
1.36104898277078e-13
1.33344825318202e-13
1.30604629507567e-13
1.27884516054902e-13
1.25184635822146e-13
1.22505106988011e-13
1.19846002736695e-13
1.17207434728978e-13
1.1458943735501e-13
1.11992082712661e-13
1.09415429860537e-13
1.06859503839368e-13
1.04324280264483e-13
1.01809786422356e-13
9.93160003758109e-14
9.68429033672944e-14
9.43904523189107e-14
9.19586146581573e-14
8.95473543675131e-14
8.71566085770634e-14
8.47863021653876e-14
8.24364385876201e-14
8.01070106627959e-14
7.77979839718904e-14
7.55093460494898e-14
7.32411393388104e-14
7.09933953369417e-14
6.87661685495217e-14
6.65595235098335e-14
6.43735581062302e-14
6.22084147709711e-14
6.00643329106748e-14
5.79415512770961e-14
5.58403533934768e-14
5.3761059862024e-14
5.17040221712507e-14
4.96697241491678e-14
4.76586691114904e-14
4.56713789194038e-14
4.37085160983107e-14
4.17707932730175e-14
3.98589588730379e-14
3.79738451713643e-14
3.61164072522986e-14
3.42876513427503e-14
3.24886319269297e-14
3.07205235629597e-14
2.89845648293814e-14
2.72819212319276e-14
2.56140719863127e-14
2.39829360368682e-14
2.23899475163022e-14
2.08351264658889e-14
1.9320408961317e-14
1.78549123557027e-14
1.64460478697787e-14
1.50871355676687e-14
1.37693236643429e-14
1.24976935032823e-14
1.12818482334451e-14
1.01146020621234e-14
8.98387077879557e-15
7.89541769638686e-15
6.85373640300079e-15
5.86050673600351e-15
4.92490234333985e-15
4.05841850002105e-15
3.27654115507375e-15
2.59234728539707e-15
2.01977344191322e-15
1.56372775320633e-15
1.21547381060609e-15
9.65859913724072e-16
7.97737936227975e-16
6.88337030839962e-16
6.20886094969583e-16
5.8528429691905e-16
5.82046921781177e-16
6.50455390661718e-16
1.1254748281415e-15
4.04470944171736e-15
3.92791192521168e-14
8.153694467327e-13
8.92388139385342e-11
5.80507621383187e-10
1.14102235382703e-09
1.23325090161358e-09
9.79214904259251e-10
7.25019313267283e-10
5.48530168776503e-10
4.45583589824958e-10
3.88345989286955e-10
3.58675697044761e-10
3.43694604101732e-10
3.38976102487198e-10
3.38107442059041e-10
3.40057367760544e-10
3.43793415012589e-10
3.48368712548671e-10
3.53163120860014e-10
3.57737270631763e-10
3.61265100923182e-10
3.641540557835e-10
3.66302780839088e-10
3.67623308075092e-10
3.68151450456025e-10
3.67882730276996e-10
3.66826509261345e-10
3.65016938911484e-10
3.62499964624239e-10
3.59328604877598e-10
3.55559898040135e-10
3.51252903216167e-10
3.46467105700057e-10
3.41261307279363e-10
3.35692705072414e-10
3.29816169425285e-10
3.23683790479354e-10
3.17344260632684e-10
3.10843124197607e-10
3.0421862413357e-10
2.97506223681401e-10
2.90742802475428e-10
2.83962124343413e-10
2.77194645323019e-10
2.70467289438854e-10
2.63803574028091e-10
2.57223761870883e-10
2.50745060763663e-10
2.44381845418813e-10
2.38145893734462e-10
2.32046642752095e-10
2.26091430550605e-10
2.20285940002125e-10
2.14634339072269e-10
2.09138430850881e-10
2.03798680848615e-10
1.98615487407339e-10
1.93588579286747e-10
1.88716420673028e-10
1.83996839413619e-10
1.79427102444075e-10
1.75004042734969e-10
1.70724145357035e-10
1.66583624325486e-10
1.62578490272268e-10
1.58704607598273e-10
1.54957720459931e-10
1.51333401707734e-10
1.47826565934713e-10
1.44429544310187e-10
1.41135658345612e-10
1.3794115987658e-10
1.348425055263e-10
1.31836448431514e-10
1.28919880797239e-10
1.2608982892606e-10
1.23343447139343e-10
1.20678029544134e-10
1.18091019657513e-10
1.15580018136498e-10
1.13142793489209e-10
1.10777278101578e-10
1.08481563915125e-10
1.06191851912418e-10
1.038679367879e-10
1.01598262678378e-10
9.93750949963774e-11
9.72001682384665e-11
9.50757059420541e-11
9.30044952661208e-11
9.09888258197813e-11
8.89680780546546e-11
8.6745200490782e-11
8.45608974962044e-11
8.24244205150523e-11
8.03457524648297e-11
7.80334537845494e-11
7.55399176123786e-11
7.31190721310603e-11
7.03152517038198e-11
6.72645383067607e-11
6.37155701903702e-11
5.96838903188704e-11
5.43036982772273e-11
4.65275764536243e-11
)
;

boundaryField
{
    electrode
    {
        type            zeroGradient;
    }
    ground
    {
        type            zeroGradient;
    }
    otherfaces
    {
        type            empty;
    }
}


// ************************************************************************* //
