/*--------------------------------*- C++ -*----------------------------------*\
| =========                 |                                                 |
| \\      /  F ield         | foam-extend: Open Source CFD                    |
|  \\    /   O peration     | Version:     4.0                                |
|   \\  /    A nd           | Web:         http://www.foam-extend.org         |
|    \\/     M anipulation  |                                                 |
\*---------------------------------------------------------------------------*/
FoamFile
{
    version     2.0;
    format      ascii;
    class       volScalarField;
    location    "5e-07";
    object      Te;
}
// * * * * * * * * * * * * * * * * * * * * * * * * * * * * * * * * * * * * * //

dimensions      [0 0 0 1 0 0 0];

internalField   nonuniform List<scalar> 
300
(
30035.89779198
30035.9606677515
30035.8929485094
30035.7212138346
30035.500973684
30035.2193648921
30034.8833149545
30034.4914544839
30034.0424594649
30033.5369817724
30032.974838128
30032.355758004
30031.6795993597
30030.9462002455
30030.1553828725
30029.3069650906
30028.4007630829
30027.4365908813
30026.4142602701
30025.3335814354
30024.1943639031
30022.9964154281
30021.7395435557
30020.4235550371
30019.0482537243
30017.6134437312
30016.1189271689
30014.5645016877
30012.9499640163
30011.2751079943
30009.539720943
30007.7435874318
30005.8864879385
30003.9681953395
30001.988477703
29999.9470973757
29997.843809098
29995.6783609978
29993.4504946054
29991.1599436716
29988.8064345249
29986.3896866441
29983.9094117519
29981.3653142102
29978.7570914578
29976.0844336919
29973.3470245397
29970.5445403411
29967.6766518237
29964.7430232694
29961.7433124012
29958.6771725777
29955.5442506118
29952.3441888446
29949.0766246571
29945.741190625
29942.3375154195
29938.8652229205
29935.323933515
29931.7132644194
29928.032828002
29924.2822334614
29920.4610891488
29916.5689971202
29912.6055570265
29908.5703684134
29904.463024981
29900.2831187764
29896.0302398828
29891.7039742588
29887.3039076604
29882.8296217246
29878.2806942718
29873.6567042677
29868.9572255292
29864.1818299062
29859.3300862405
29854.4015611866
29849.3958212619
29844.3124238652
29839.1509292924
29833.9108940068
29828.5918670835
29823.1933999374
29817.7150370413
29812.1563183362
29806.5167827131
29800.7959644738
29794.9933886587
29789.1085804961
29783.1410612871
29777.090338342
29770.9559206255
29764.7373094638
29758.4339947177
29752.045462674
29745.5711892846
29739.0106418229
29732.3632789328
29725.6285448953
29718.8058756514
29711.894695945
29704.8944097069
29697.8044129996
29690.6240836892
29683.3527773704
29675.9898367882
29668.5345783046
29660.9862961663
29653.3442610025
29645.6077117025
29637.7758605307
29629.8478838625
29621.822919167
29613.7000691357
29605.478388316
29597.1568814935
29588.7345027955
29580.2101487286
29571.582649502
29562.8507631493
29554.0131775258
29545.0684914529
29536.0152084037
29526.8517383407
29517.5763777614
29508.1872981352
29498.6825440494
29489.0600150448
29479.3174511555
29469.452424482
29459.4623150502
29449.3443016208
29439.095347455
29428.712165223
29418.1912060531
29407.5286453352
29396.7203451867
29385.7618260695
29374.648251285
29363.3743929084
29351.9345858863
29340.3227084428
29328.5321404966
29316.5557067475
29304.3856565776
29292.0135962216
29279.4304297178
29266.6263411484
29253.5906822318
29240.3119161208
29226.7775867441
29212.974182204
29198.887066352
29184.5003923881
29169.7969895549
29154.7582699495
29139.3640593978
29123.5924270523
29107.4195810456
29090.8202949501
29073.766600214
29056.2255403706
29038.1648988031
29019.5593729475
29000.3709424971
28980.5152063031
28959.943533034
28938.8353595236
28917.3964245504
28895.3887720863
28872.3966263909
28848.4800245534
28823.977826387
28798.4325108205
28770.8081749514
28740.8020710872
28707.8321483828
28670.6614098798
28628.1586139027
28578.9271951365
28521.7969995914
28455.3690894364
28379.8534137867
28296.7586570939
28206.7445317309
28117.4340354578
28042.6827072845
27996.7813583272
28005.654996097
28113.1252715922
28383.8528508491
28918.3089209761
29887.4995593706
31581.6968435205
34491.2490699514
39514.0682103393
48667.3018465272
64795.8693609038
89290.8715066269
128384.401216022
181798.259500571
252084.830495061
332649.840625591
414786.681485045
490987.30230071
557809.577809144
614627.658895568
662362.312565272
702548.638685328
736623.578390268
765756.715306497
790811.332947311
812564.278109735
831604.144266405
848412.327279236
863394.307925998
876872.456151772
889102.616889885
900264.924832992
910513.506734399
919991.51192292
928810.676315671
937059.878349624
944811.488727437
952124.461655967
959046.841177715
965617.498041763
971867.669890896
977822.116052668
983500.004346296
988915.882057463
994079.851874786
999000.591958587
1003678.94285871
1008112.84279284
1012303.4602934
1016247.62082036
1019940.32512385
1023374.79589121
1026542.88266153
1029435.24795277
1032041.55766005
1034350.64268309
1036350.63457003
1038029.10966035
1039373.05386404
1040369.25882103
1041001.47928228
1041255.70224403
1041128.41532944
1040598.80465015
1039653.67737373
1038278.8982044
1036460.87661054
1034186.0788139
1031441.11873651
1028212.73973655
1024487.81474466
1020253.33555645
1015496.4207509
1010204.34856651
1004364.90269446
997967.670539778
990997.61202739
983440.673473388
975286.995874784
966523.196334699
957135.785538361
947110.667856761
936433.241674868
925088.299209653
913059.953436605
900331.530343275
886885.452258006
872703.124211482
857764.769734937
842049.627484589
825535.551837658
808206.168069714
790031.344493816
770978.609274116
751022.760559999
730123.720095006
708238.830033098
685320.755510819
661330.549179371
636210.623094441
609892.082105715
582304.478330717
553362.646544136
522963.610360266
490974.545728373
457258.954916562
421619.059058188
383812.758591753
343499.56826205
300213.425616935
253298.844146918
201830.81657085
)
;

boundaryField
{
    electrode
    {
        type            electronTemperature;
        seec            0.05;
        Tse             1000;
        Edepend         1;
        TFN             1000;
        field_emission  0;
        field_enhancement_factor 55;
        work_function   5;
        value           uniform 30035.89779198;
    }
    ground
    {
        type            electronTemperature;
        seec            0.05;
        Tse             1000;
        Edepend         1;
        TFN             1000;
        field_emission  0;
        field_enhancement_factor 55;
        work_function   5;
        value           uniform 172824.428221719;
    }
    otherfaces
    {
        type            empty;
    }
}


// ************************************************************************* //
