/*--------------------------------*- C++ -*----------------------------------*\
| =========                 |                                                 |
| \\      /  F ield         | foam-extend: Open Source CFD                    |
|  \\    /   O peration     | Version:     4.0                                |
|   \\  /    A nd           | Web:         http://www.foam-extend.org         |
|    \\/     M anipulation  |                                                 |
\*---------------------------------------------------------------------------*/
FoamFile
{
    version     2.0;
    format      ascii;
    class       volScalarField;
    location    "5e-07";
    object      TeMean;
}
// * * * * * * * * * * * * * * * * * * * * * * * * * * * * * * * * * * * * * //

dimensions      [0 0 0 1 0 0 0];

internalField   nonuniform List<scalar> 
300
(
41032.2323304176
41033.2330640409
41033.1412388129
41032.0847146794
41030.7312993349
41028.9964082657
41026.9048640927
41024.4778792202
41021.7210624667
41018.6420341093
41015.2480742795
41011.5462234299
41007.5432212729
41003.2453930516
40998.6588304388
40993.7893658259
40988.6425591105
40983.2237574884
40977.5380889757
40971.5904595678
40965.3855880574
40958.9279789231
40952.2219521548
40945.2716334316
40938.0809490392
40930.6537653091
40922.993795133
40915.1045641389
40906.9895193884
40898.6518804553
40890.0946231255
40881.3207917019
40872.3334673082
40863.1355171994
40853.7296650707
40844.1184392331
40834.3042749075
40824.2896265772
40814.0768559186
40803.6681739573
40793.0656665822
40782.2714392476
40771.2875114393
40760.1157792168
40748.7580588087
40737.2160822488
40725.4914900909
40713.5858182729
40701.5004550719
40689.2366393677
40676.7954631442
40664.1780579996
40651.3857005482
40638.4195755444
40625.2808358413
40611.9706772913
40598.4901348304
40584.8401063419
40571.0215157392
40557.0352295558
40542.8820353779
40528.5627559019
40514.0779366063
40499.42797642
40484.613577075
40469.635550168
40454.4945778493
40439.1912351431
40423.7260356106
40408.0994912943
40392.3120045817
40376.3637538824
40360.2550231077
40343.9861497072
40327.5572490084
40310.968241777
40294.2192076298
40277.3104777181
40260.2421390372
40243.0141099727
40225.6265726027
40208.0797093248
40190.3734195279
40172.5074085431
40154.4813092209
40136.2949666202
40117.9483752313
40099.4413194892
40080.7733976228
40061.9442631798
40042.953337428
40023.799952859
40004.4839601462
39985.0049406848
39965.3622517963
39945.5554559527
39925.5839427355
39905.4470549219
39885.1440102002
39864.6740049639
39844.0363954301
39823.2301080146
39802.2539645394
39781.1071561269
39759.7887364506
39738.2975967305
39716.632489598
39694.7921192011
39672.7752766528
39650.5806402485
39628.2068111632
39605.6522741214
39582.9153135817
39559.9943848743
39536.887707369
39513.5932147435
39490.1086682612
39466.4319852723
39442.561234435
39418.4938391927
39394.226990895
39369.7578837446
39345.083469265
39320.200740483
39295.1067982323
39269.7983133538
39244.2714087335
39218.5222053029
39192.5467536477
39166.3405106495
39139.8985528277
39113.2158502131
39086.2871506741
39059.1062353683
39031.6662602282
39003.9607578238
38975.9828085353
38947.7244432937
38919.1772655313
38890.3325905945
38861.181012412
38831.7121290414
38801.9144944201
38771.7755460631
38741.2819721314
38710.4198824249
38679.1743830313
38647.5295001514
38615.4670898982
38582.9671975666
38550.0091704703
38516.5701405389
38482.62503484
38448.147366308
38413.1076397342
38377.4733902251
38341.2095898223
38304.2785762111
38266.639637432
38228.2482154624
38189.0578838752
38149.0205758725
38108.0873674837
38066.2173008361
38023.3882240788
37979.5850707569
37934.7698918917
37888.8792361549
37841.8039870001
37793.3303011877
37743.1442809951
37690.8773874215
37636.0576506007
37577.9643913828
37515.5938130548
37447.7951553912
37373.2305596703
37290.2756806039
37197.2214325287
37092.45361467
36974.7392307724
36843.6943064643
36700.3644852192
36548.1357703506
36393.4960338678
36247.4753561516
36127.6539388664
36059.8825125445
36082.89522304
36255.3190574569
36666.0745876518
37457.3876273578
38865.189381699
41331.3314485207
45538.2402590252
52508.816799762
64488.887958461
84058.8173344796
114826.779006254
159217.372271377
219012.908196092
291645.469725068
372332.967179955
453676.051678409
529235.006249325
595360.691161883
651273.570069151
697838.505681968
736500.535731694
768730.005770008
795768.65295689
818599.170226755
838007.903917182
854637.577275981
868998.034434124
881496.835719155
892457.00725267
902139.046340181
910753.353637472
918454.819623199
925360.801317714
931583.940032015
937221.795105583
942347.977000977
947022.925281547
951295.941743025
955207.343485827
958790.046067523
962070.81555717
965071.059459949
967807.742983094
970294.153964686
972540.523594343
974553.478564933
976337.093747954
977894.276910064
979226.000689031
980331.530553376
981208.686238247
981854.085076239
982263.294736376
982430.9772215
982351.071716679
982016.801595534
981420.887527849
980555.577446972
979412.724409412
977983.86796701
976260.332798892
974233.669148374
971894.455686492
969233.399600397
966241.1855612
962908.442243852
959225.720621892
955183.557888164
950772.449578927
945982.822052534
940805.044963445
935229.452201469
929246.295036383
922845.680793669
916017.642650341
908751.838155398
901037.868116934
892865.09768916
884222.457769415
875098.420581159
865481.100692486
855358.023476952
844716.162381333
833541.786381065
821820.428817818
809536.691100293
796674.303306745
783215.776017866
769142.555967675
754434.684030782
739071.100504989
723028.43078697
706280.758201271
688800.458353548
670556.685035119
651515.02624905
631637.628848921
610883.553780642
589206.281420318
566551.897837615
542859.819436396
518060.13545475
492071.987179725
464798.511492491
436125.164749818
405912.944613782
373983.79662805
340111.072770139
303970.408946883
265139.658744343
223021.108802865
176776.58345162
)
;

boundaryField
{
    electrode
    {
        type            calculated;
        value           uniform 41032.2323304424;
    }
    ground
    {
        type            calculated;
        value           uniform 150680.023089187;
    }
    otherfaces
    {
        type            empty;
    }
}


// ************************************************************************* //
