/*--------------------------------*- C++ -*----------------------------------*\
| =========                 |                                                 |
| \\      /  F ield         | foam-extend: Open Source CFD                    |
|  \\    /   O peration     | Version:     4.0                                |
|   \\  /    A nd           | Web:         http://www.foam-extend.org         |
|    \\/     M anipulation  |                                                 |
\*---------------------------------------------------------------------------*/
FoamFile
{
    version     2.0;
    format      ascii;
    class       volScalarField;
    location    "1.6e-06";
    object      Arp1;
}
// * * * * * * * * * * * * * * * * * * * * * * * * * * * * * * * * * * * * * //

dimensions      [0 0 0 1 0 0 0];

internalField   nonuniform List<scalar> 
300
(
6.03609700897811e+16
6.03864549193122e+16
6.03703904430986e+16
6.03600043450791e+16
6.03482923256897e+16
6.03328364144681e+16
6.03139528539823e+16
6.0291771067289e+16
6.02662588962077e+16
6.02374206477022e+16
6.02052673163026e+16
6.01698077030223e+16
6.01310515495738e+16
6.00890097794367e+16
6.00436942672339e+16
5.99951178445868e+16
5.99432943221053e+16
5.98882384865732e+16
5.98299660996992e+16
5.97684938977898e+16
5.97038395891077e+16
5.96360218506976e+16
5.95650603226144e+16
5.9490975601581e+16
5.94137892313144e+16
5.93335236931088e+16
5.92502023912588e+16
5.91638496391542e+16
5.90744906410728e+16
5.89821514724948e+16
5.88868590567226e+16
5.87886411408219e+16
5.86875262667263e+16
5.85835437405795e+16
5.84767236000044e+16
5.83670965769015e+16
5.82546940588069e+16
5.81395480473327e+16
5.80216911127326e+16
5.79011563471585e+16
5.77779773145562e+16
5.76521879976067e+16
5.75238227426703e+16
5.73929162023322e+16
5.72595032746003e+16
5.71236190409246e+16
5.69852987015154e+16
5.68445775082812e+16
5.67014906956008e+16
5.65560734113054e+16
5.64083606411121e+16
5.62583871376775e+16
5.61061873420222e+16
5.59517953079625e+16
5.57952446219218e+16
5.5636568324137e+16
5.54757988263834e+16
5.53129678297688e+16
5.5148106241812e+16
5.49812440908147e+16
5.48124104418088e+16
5.46416333093077e+16
5.44689395709769e+16
5.42943548795965e+16
5.41179035747425e+16
5.39396085940574e+16
5.3759491383072e+16
5.35775718058108e+16
5.3393868053688e+16
5.32083965542182e+16
5.30211718800763e+16
5.28322066567817e+16
5.26415114698578e+16
5.24490947732908e+16
5.22549627958016e+16
5.20591194465934e+16
5.18615662256763e+16
5.16623021241586e+16
5.14613235376012e+16
5.1258624166403e+16
5.10541949261214e+16
5.08480238526415e+16
5.06400960086838e+16
5.04303933928121e+16
5.02188948453624e+16
5.00055759590246e+16
4.97904089871547e+16
4.95733627544566e+16
4.93544025708285e+16
4.91334901407209e+16
4.89105834839454e+16
4.86856368471716e+16
4.84586006278728e+16
4.82294212937287e+16
4.7998041308291e+16
4.7764399059465e+16
4.75284287901024e+16
4.72900605344674e+16
4.70492200563777e+16
4.68058287953639e+16
4.65598038126242e+16
4.63110577491578e+16
4.60594987817426e+16
4.58050305910633e+16
4.5547552334488e+16
4.52869586216769e+16
4.50231395047506e+16
4.47559804685043e+16
4.44853624320864e+16
4.42111617590761e+16
4.39332502732663e+16
4.3651495284443e+16
4.33657596242878e+16
4.30759016875602e+16
4.27817754858405e+16
4.24832307095504e+16
4.21801127969792e+16
4.18722630181067e+16
4.15595185603866e+16
4.12417126333556e+16
4.09186745729993e+16
4.05902299651185e+16
4.02562007709402e+16
3.99164054680469e+16
3.95706591969734e+16
3.92187739221271e+16
3.88605585983702e+16
3.84958193525651e+16
3.81243596728382e+16
3.77459806121334e+16
3.73604810007389e+16
3.69676576777782e+16
3.65673057299196e+16
3.6159218754544e+16
3.57431891348006e+16
3.5319008340647e+16
3.48864672514218e+16
3.44453565089435e+16
3.39954669028414e+16
3.35365897974879e+16
3.30685176000796e+16
3.25910442907446e+16
3.21039660957588e+16
3.16070820120055e+16
3.11001943241778e+16
3.05831098070478e+16
3.00556408173762e+16
2.95176060656083e+16
2.89688320518569e+16
2.84091549069511e+16
2.78384222709294e+16
2.72564955341098e+16
2.66632525767362e+16
2.60585910848706e+16
2.54424325232041e+16
2.48147271245858e+16
2.41754598702778e+16
2.35246579730511e+16
2.28624001500156e+16
2.21888275154961e+16
2.15041642491458e+16
2.0808707326028e+16
2.01029291962316e+16
1.93873565131299e+16
1.86627018901252e+16
1.79300777178936e+16
1.71909809056272e+16
1.64424750406577e+16
1.57040504777076e+16
1.49760551842326e+16
1.42450407805282e+16
1.35251580798801e+16
1.28192491141052e+16
1.21471455289836e+16
1.14892967915921e+16
1.08383155455654e+16
1.02395205587745e+16
9.64396423162124e+15
9.11234600281907e+15
8.59946215382386e+15
8.13585632549698e+15
7.72766330137295e+15
7.30028469645482e+15
6.9520638427585e+15
6.61558785234506e+15
6.3228287626205e+15
6.08335357345072e+15
5.84000923620796e+15
5.62727810162288e+15
5.45039856504314e+15
5.31104324470225e+15
5.14084653731814e+15
5.00828866554335e+15
4.88772781079068e+15
4.81828331551902e+15
4.80258377385673e+15
4.78801912075493e+15
4.77514083411749e+15
4.75378742477394e+15
4.72586192152106e+15
4.69662496109723e+15
4.66844863273994e+15
4.63056120939642e+15
4.57947916773896e+15
4.53484756224625e+15
4.49405496195392e+15
4.45919715844264e+15
4.42692099916396e+15
4.40116316910171e+15
4.37707478009895e+15
4.36004841950468e+15
4.33879474233861e+15
4.30869743200628e+15
4.28057175638762e+15
4.25711227977921e+15
4.23420206663808e+15
4.2148570643015e+15
4.19546652897082e+15
4.17954965156459e+15
4.1637102053847e+15
4.15122305677331e+15
4.13925599535885e+15
4.13050722909927e+15
4.12197479940812e+15
4.10806182754295e+15
4.08701036103461e+15
4.06775552941888e+15
4.04745746834944e+15
4.02852963497729e+15
4.00907766944407e+15
3.99171700298152e+15
3.97428011402648e+15
3.95896702595976e+15
3.94315709223044e+15
3.92925733054807e+15
3.91479263338814e+15
3.90273301712843e+15
3.89010079153676e+15
3.88005044865634e+15
3.86926717038776e+15
3.86079717825282e+15
3.85119277314555e+15
3.83326454914537e+15
3.81445371286454e+15
3.79631188602468e+15
3.7777503990134e+15
3.75947842422183e+15
3.74147995407524e+15
3.72434773067632e+15
3.70755604051435e+15
3.69289054346062e+15
3.67759247932313e+15
3.66523996440151e+15
3.65148867885876e+15
3.64105522034637e+15
3.62864486905752e+15
3.61879334721016e+15
3.60670113330067e+15
3.5964024454014e+15
3.58417494793296e+15
3.57399085342282e+15
3.56209673208459e+15
3.55275040753125e+15
3.54142478434272e+15
3.53330365852999e+15
3.52336731727949e+15
3.51481707478505e+15
3.5004462519843e+15
3.48933790118199e+15
3.47656299262949e+15
3.46683606140174e+15
3.45532121827446e+15
3.44654694039334e+15
3.43579471305312e+15
3.42745287742007e+15
3.4169402261318e+15
3.40859485397646e+15
3.3981339626542e+15
3.38993506158014e+15
3.37993535848861e+15
3.37240200025548e+15
3.36337849080831e+15
3.35699739864914e+15
3.349381545527e+15
3.34446583285291e+15
3.33835612430105e+15
3.3346996343428e+15
3.32958108124338e+15
3.32645202594224e+15
3.32153350669238e+15
3.31823099674285e+15
3.31301775030372e+15
3.30937013190074e+15
3.3039762789454e+15
3.30033627010331e+15
3.29517191143371e+15
3.29211948130965e+15
3.2874367663076e+15
3.28529497249872e+15
3.2802489146619e+15
)
;

boundaryField
{
    electrode
    {
        type            driftDiffusionPositiveIonDensity;
        seec            0;
        fieldName       Arp1;
        value           uniform 6.0273136671418e+16;
    }
    ground
    {
        type            driftDiffusionPositiveIonDensity;
        seec            0;
        fieldName       Arp1;
        value           uniform 3.2802489146619e+15;
    }
    otherfaces
    {
        type            empty;
    }
}


// ************************************************************************* //
