/*--------------------------------*- C++ -*----------------------------------*\
| =========                 |                                                 |
| \\      /  F ield         | foam-extend: Open Source CFD                    |
|  \\    /   O peration     | Version:     4.0                                |
|   \\  /    A nd           | Web:         http://www.foam-extend.org         |
|    \\/     M anipulation  |                                                 |
\*---------------------------------------------------------------------------*/
FoamFile
{
    version     2.0;
    format      ascii;
    class       volVectorField;
    location    "1.6e-06";
    object      E;
}
// * * * * * * * * * * * * * * * * * * * * * * * * * * * * * * * * * * * * * //

dimensions      [0 0 0 1 0 0 0];

internalField   nonuniform List<vector> 
300
(
(3.93096569462071 -0 -0)
(8.66793133519337 -0 -0)
(14.833440829809 -0 -0)
(20.9092541531011 -0 -0)
(26.8621286297893 -0 -0)
(32.818472855967 -0 -0)
(38.7763700232528 -0 -0)
(44.7295366620683 -0 -0)
(50.67810506243 -0 -0)
(56.6216094344268 -0 -0)
(62.559206277789 -0 -0)
(68.490129305488 -0 -0)
(74.4136129965386 -0 -0)
(80.3288697101541 -0 -0)
(86.2350973504519 -0 -0)
(92.1314799492988 -0 -0)
(98.0171871708936 -0 -0)
(103.891374957089 -0 -0)
(109.753186355867 -0 -0)
(115.601752649628 -0 -0)
(121.436194716608 -0 -0)
(127.255624837731 -0 -0)
(133.059148590961 -0 -0)
(138.845867253547 -0 -0)
(144.614880412399 -0 -0)
(150.365288832663 -0 -0)
(156.096197630186 -0 -0)
(161.806719785331 -0 -0)
(167.495979769279 -0 -0)
(173.163117532517 -0 -0)
(178.807292643154 -0 -0)
(184.427688737461 -0 -0)
(190.023517995815 -0 -0)
(195.594026025667 -0 -0)
(201.138496666546 -0 -0)
(206.656257127646 -0 -0)
(212.146683178948 -0 -0)
(217.60920438092 -0 -0)
(223.043309538507 -0 -0)
(228.448552191974 -0 -0)
(233.824556138082 -0 -0)
(239.17102102147 -0 -0)
(244.487727991984 -0 -0)
(249.774545375787 -0 -0)
(255.031434391619 -0 -0)
(260.258454837264 -0 -0)
(265.455770856406 -0 -0)
(270.623656675766 -0 -0)
(275.762502374738 -0 -0)
(280.87281958572 -0 -0)
(285.955247339461 -0 -0)
(291.010557826349 -0 -0)
(296.039662180055 -0 -0)
(301.043616356164 -0 -0)
(306.023626972548 -0 -0)
(310.981057201282 -0 -0)
(315.917432788834 -0 -0)
(320.834448054617 -0 -0)
(325.733971999411 -0 -0)
(330.618054525421 -0 -0)
(335.488932755345 -0 -0)
(340.349037453101 -0 -0)
(345.200999601929 -0 -0)
(350.047657143893 -0 -0)
(354.892061862828 -0 -0)
(359.737486461988 -0 -0)
(364.587431878103 -0 -0)
(369.445634755475 -0 -0)
(374.316075169058 -0 -0)
(379.202984625328 -0 -0)
(384.110854294219 -0 -0)
(389.044443498175 -0 -0)
(394.008788549876 -0 -0)
(399.009211812715 -0 -0)
(404.051331114082 -0 -0)
(409.141069482348 -0 -0)
(414.284665214905 -0 -0)
(419.488682248986 -0 -0)
(424.760020960354 -0 -0)
(430.105929272084 -0 -0)
(435.534014091347 -0 -0)
(441.052253265284 -0 -0)
(446.669007805789 -0 -0)
(452.393034579323 -0 -0)
(458.2334994369 -0 -0)
(464.199990704477 -0 -0)
(470.302533263408 -0 -0)
(476.551602987587 -0 -0)
(482.958141745274 -0 -0)
(489.533572978255 -0 -0)
(496.289817800194 -0 -0)
(503.239311805306 -0 -0)
(510.39502240035 -0 -0)
(517.770467076179 -0 -0)
(525.379732339744 -0 -0)
(533.237493598234 -0 -0)
(541.359036070115 -0 -0)
(549.760276698117 -0 -0)
(558.457787384946 -0 -0)
(567.468819572036 -0 -0)
(576.811330349366 -0 -0)
(586.504010220766 -0 -0)
(596.566312978441 -0 -0)
(607.018487524968 -0 -0)
(617.881612316522 -0 -0)
(629.17763246079 -0 -0)
(640.929399848995 -0 -0)
(653.16071688754 -0 -0)
(665.896383904361 -0 -0)
(679.16225101314 -0 -0)
(692.985274834754 -0 -0)
(707.393580583277 -0 -0)
(722.416530254806 -0 -0)
(738.084797626065 -0 -0)
(754.430450819542 -0 -0)
(771.487043336864 -0 -0)
(789.289714457714 -0 -0)
(807.875300336341 -0 -0)
(827.28245662228 -0 -0)
(847.551794297494 -0 -0)
(868.726030087237 -0 -0)
(890.850153070597 -0 -0)
(913.971609432865 -0 -0)
(938.140507507457 -0 -0)
(963.409845287727 -0 -0)
(989.835763162804 -0 -0)
(1017.4778249398 -0 -0)
(1046.39933008862 -0 -0)
(1076.66766147191 -0 -0)
(1108.35467245369 -0 -0)
(1141.53711809039 -0 -0)
(1176.29713604221 -0 -0)
(1212.72278300764 -0 -0)
(1250.9086334431 -0 -0)
(1290.95644821623 -0 -0)
(1332.9759217252 -0 -0)
(1377.08551688459 -0 -0)
(1423.41339889067 -0 -0)
(1472.0984808732 -0 -0)
(1523.29159764761 -0 -0)
(1577.1568317878 -0 -0)
(1633.87306695452 -0 -0)
(1693.63497816954 -0 -0)
(1756.65418008111 -0 -0)
(1823.16963755636 -0 -0)
(1893.44509443041 -0 -0)
(1967.76410284919 -0 -0)
(2046.44758037017 -0 -0)
(2129.8558641743 -0 -0)
(2218.38646550391 -0 -0)
(2312.48339536442 -0 -0)
(2412.64405012547 -0 -0)
(2519.42755901564 -0 -0)
(2633.46471384733 -0 -0)
(2755.46979998877 -0 -0)
(2886.25474998862 -0 -0)
(3026.74614699625 -0 -0)
(3178.00573440491 -0 -0)
(3341.255248138 -0 -0)
(3517.90667119833 -0 -0)
(3709.59921274569 -0 -0)
(3918.24364293814 -0 -0)
(4146.08058130803 -0 -0)
(4395.74549250995 -0 -0)
(4670.3528752778 -0 -0)
(4973.64805216769 -0 -0)
(5310.12508006888 -0 -0)
(5685.20703294257 -0 -0)
(6107.72831430496 -0 -0)
(6590.07580160892 -0 -0)
(7144.21065387326 -0 -0)
(7782.92170177895 -0 -0)
(8522.6130754828 -0 -0)
(9383.96726632524 -0 -0)
(10387.1657601766 -0 -0)
(11547.7122072955 -0 -0)
(12884.1922447969 -0 -0)
(14412.2244063697 -0 -0)
(16145.440743563 -0 -0)
(18093.6318549681 -0 -0)
(20258.0365775384 -0 -0)
(22637.3592227061 -0 -0)
(25207.8000711411 -0 -0)
(27943.1519995919 -0 -0)
(30818.2678532328 -0 -0)
(33798.7603294821 -0 -0)
(36858.4954032476 -0 -0)
(39964.4143623755 -0 -0)
(43080.9889686182 -0 -0)
(46187.3377682678 -0 -0)
(49276.2221412501 -0 -0)
(52327.8080991903 -0 -0)
(55321.4059820368 -0 -0)
(58264.5905852221 -0 -0)
(61170.6688183939 -0 -0)
(64057.2895502193 -0 -0)
(66939.8357239949 -0 -0)
(69817.7539883759 -0 -0)
(72687.1007125869 -0 -0)
(75543.4149619705 -0 -0)
(78383.2863876632 -0 -0)
(81206.2275818439 -0 -0)
(84009.4316976067 -0 -0)
(86785.9098895278 -0 -0)
(89533.5867652758 -0 -0)
(92255.541556708 -0 -0)
(94954.7068515973 -0 -0)
(97633.6393667203 -0 -0)
(100295.077831684 -0 -0)
(102941.488966596 -0 -0)
(105575.502305078 -0 -0)
(108197.9710071 -0 -0)
(110804.953433385 -0 -0)
(113394.378396275 -0 -0)
(115968.249176974 -0 -0)
(118528.14047824 -0 -0)
(121075.294901608 -0 -0)
(123610.775479343 -0 -0)
(126135.617510844 -0 -0)
(128650.893118541 -0 -0)
(131157.637923912 -0 -0)
(133657.021161494 -0 -0)
(136150.171167504 -0 -0)
(138638.124927237 -0 -0)
(141119.326545 -0 -0)
(143590.001644521 -0 -0)
(146048.540056732 -0 -0)
(148495.169664143 -0 -0)
(150929.98940962 -0 -0)
(153353.254317731 -0 -0)
(155765.43677986 -0 -0)
(158167.14436644 -0 -0)
(160558.994617504 -0 -0)
(162941.478224409 -0 -0)
(165315.021274266 -0 -0)
(167680.029052712 -0 -0)
(170037.056015914 -0 -0)
(172386.654371669 -0 -0)
(174729.429652396 -0 -0)
(177065.939154394 -0 -0)
(179396.65923185 -0 -0)
(181721.945295185 -0 -0)
(184038.944740366 -0 -0)
(186344.88074121 -0 -0)
(188639.688357922 -0 -0)
(190923.442241636 -0 -0)
(193196.102598972 -0 -0)
(195457.83827327 -0 -0)
(197708.992234006 -0 -0)
(199949.92753936 -0 -0)
(202181.387510889 -0 -0)
(204403.82219755 -0 -0)
(206617.928648987 -0 -0)
(208824.173046286 -0 -0)
(211023.133777 -0 -0)
(213215.215248299 -0 -0)
(215400.593114365 -0 -0)
(217579.363024673 -0 -0)
(219751.389953732 -0 -0)
(221916.63278785 -0 -0)
(224075.125376041 -0 -0)
(226226.967751401 -0 -0)
(228372.412154546 -0 -0)
(230511.629605736 -0 -0)
(232644.989012049 -0 -0)
(234772.908974712 -0 -0)
(236895.2596762 -0 -0)
(239010.703398724 -0 -0)
(241118.468503325 -0 -0)
(243219.036196161 -0 -0)
(245312.822940598 -0 -0)
(247400.208696209 -0 -0)
(249481.480781866 -0 -0)
(251556.869180328 -0 -0)
(253626.504327583 -0 -0)
(255690.458462907 -0 -0)
(257748.730423955 -0 -0)
(259801.335596979 -0 -0)
(261848.317841478 -0 -0)
(263889.815885305 -0 -0)
(265926.030108761 -0 -0)
(267957.254552723 -0 -0)
(269983.836376603 -0 -0)
(272006.199888665 -0 -0)
(274024.786844413 -0 -0)
(276040.0513884 -0 -0)
(278052.373431449 -0 -0)
(280062.05205009 -0 -0)
(282069.246436241 -0 -0)
(284074.017099853 -0 -0)
(286076.311845587 -0 -0)
(288076.041635813 -0 -0)
(290073.102222726 -0 -0)
(292067.438890238 -0 -0)
(294059.053435158 -0 -0)
(296048.014576473 -0 -0)
(298034.498567064 -0 -0)
(300018.649840137 -0 -0)
(302000.743755664 -0 -0)
(303980.675532986 -0 -0)
)
;

boundaryField
{
    electrode
    {
        type            calculated;
        value           uniform (2.26039399422007 -0 -0);
    }
    ground
    {
        type            calculated;
        value           uniform (304969.882935936 -0 -0);
    }
    otherfaces
    {
        type            empty;
    }
}


// ************************************************************************* //
