/*--------------------------------*- C++ -*----------------------------------*\
| =========                 |                                                 |
| \\      /  F ield         | foam-extend: Open Source CFD                    |
|  \\    /   O peration     | Version:     4.0                                |
|   \\  /    A nd           | Web:         http://www.foam-extend.org         |
|    \\/     M anipulation  |                                                 |
\*---------------------------------------------------------------------------*/
FoamFile
{
    version     2.0;
    format      ascii;
    class       volVectorField;
    location    "1.6e-06";
    object      J_electron;
}
// * * * * * * * * * * * * * * * * * * * * * * * * * * * * * * * * * * * * * //

dimensions      [1 -1 -1 0 0 0 0];

internalField   nonuniform List<vector> 
300
(
(-1.3121047715811e+19 0 0)
(-1.30371129488063e+19 0 0)
(-1.50335316444773e+19 0 0)
(-1.50452592412519e+19 0 0)
(-1.49356659852373e+19 0 0)
(-1.49060200757932e+19 0 0)
(-1.48762090702308e+19 0 0)
(-1.48413983334352e+19 0 0)
(-1.48075314477184e+19 0 0)
(-1.47740253591853e+19 0 0)
(-1.47405453933451e+19 0 0)
(-1.47071808041889e+19 0 0)
(-1.46739555768403e+19 0 0)
(-1.46408720303254e+19 0 0)
(-1.46079392937971e+19 0 0)
(-1.45751668687472e+19 0 0)
(-1.45425629496805e+19 0 0)
(-1.45101354477989e+19 0 0)
(-1.44778917028033e+19 0 0)
(-1.44458386951649e+19 0 0)
(-1.44139826369821e+19 0 0)
(-1.43823295668584e+19 0 0)
(-1.43508846739193e+19 0 0)
(-1.43196527547591e+19 0 0)
(-1.42886381073312e+19 0 0)
(-1.42578444709955e+19 0 0)
(-1.42272749412275e+19 0 0)
(-1.41969323317441e+19 0 0)
(-1.41668187611787e+19 0 0)
(-1.41369359707792e+19 0 0)
(-1.4107285043699e+19 0 0)
(-1.4077866859886e+19 0 0)
(-1.40486814458391e+19 0 0)
(-1.40197287545065e+19 0 0)
(-1.39910079908799e+19 0 0)
(-1.39625180340326e+19 0 0)
(-1.39342574235015e+19 0 0)
(-1.3906224061141e+19 0 0)
(-1.38784154932743e+19 0 0)
(-1.38508288871039e+19 0 0)
(-1.38234609580468e+19 0 0)
(-1.37963079426496e+19 0 0)
(-1.37693656762661e+19 0 0)
(-1.37426295313835e+19 0 0)
(-1.37160944824311e+19 0 0)
(-1.36897549251867e+19 0 0)
(-1.36636048635063e+19 0 0)
(-1.36376377584418e+19 0 0)
(-1.36118466865316e+19 0 0)
(-1.35862239904161e+19 0 0)
(-1.35607615939774e+19 0 0)
(-1.35354508632324e+19 0 0)
(-1.35102824559131e+19 0 0)
(-1.34852465198988e+19 0 0)
(-1.34603325487755e+19 0 0)
(-1.34355292302339e+19 0 0)
(-1.341082471271e+19 0 0)
(-1.33862063559048e+19 0 0)
(-1.33616607378706e+19 0 0)
(-1.33371736833838e+19 0 0)
(-1.33127302235947e+19 0 0)
(-1.3288314546437e+19 0 0)
(-1.32639099626515e+19 0 0)
(-1.32394989431565e+19 0 0)
(-1.3215063056956e+19 0 0)
(-1.31905828960781e+19 0 0)
(-1.31660382089576e+19 0 0)
(-1.31414077707712e+19 0 0)
(-1.31166693545741e+19 0 0)
(-1.30917998005298e+19 0 0)
(-1.30667749922494e+19 0 0)
(-1.30415697518285e+19 0 0)
(-1.30161580396246e+19 0 0)
(-1.29905127799922e+19 0 0)
(-1.29646059140906e+19 0 0)
(-1.29384084395791e+19 0 0)
(-1.29118904617269e+19 0 0)
(-1.28850210339123e+19 0 0)
(-1.28577683921667e+19 0 0)
(-1.28300999430342e+19 0 0)
(-1.28019820350831e+19 0 0)
(-1.27733803627651e+19 0 0)
(-1.27442597429924e+19 0 0)
(-1.27145842016607e+19 0 0)
(-1.2684317134185e+19 0 0)
(-1.26534210629261e+19 0 0)
(-1.26218580325884e+19 0 0)
(-1.25895893870513e+19 0 0)
(-1.2556575840632e+19 0 0)
(-1.25227776781782e+19 0 0)
(-1.2488154554087e+19 0 0)
(-1.2452665874062e+19 0 0)
(-1.24162703951124e+19 0 0)
(-1.23789266501821e+19 0 0)
(-1.23405927478041e+19 0 0)
(-1.23012264641157e+19 0 0)
(-1.22607853725176e+19 0 0)
(-1.22192266544278e+19 0 0)
(-1.21765072808538e+19 0 0)
(-1.21325839467838e+19 0 0)
(-1.20874131804159e+19 0 0)
(-1.20409510361505e+19 0 0)
(-1.19931535465712e+19 0 0)
(-1.19439761766828e+19 0 0)
(-1.18933741514072e+19 0 0)
(-1.18413023221352e+19 0 0)
(-1.17877148594675e+19 0 0)
(-1.17325656122568e+19 0 0)
(-1.16758076010812e+19 0 0)
(-1.16173930519771e+19 0 0)
(-1.15572733626076e+19 0 0)
(-1.14953988236431e+19 0 0)
(-1.14317184602163e+19 0 0)
(-1.13661798942355e+19 0 0)
(-1.12987290838064e+19 0 0)
(-1.12293101992783e+19 0 0)
(-1.11578650960561e+19 0 0)
(-1.10843334542418e+19 0 0)
(-1.1008652091608e+19 0 0)
(-1.09307547967286e+19 0 0)
(-1.08505720036346e+19 0 0)
(-1.07680303563905e+19 0 0)
(-1.06830522358783e+19 0 0)
(-1.05955554700522e+19 0 0)
(-1.05054527560687e+19 0 0)
(-1.0412651045274e+19 0 0)
(-1.03170514082333e+19 0 0)
(-1.02185479661116e+19 0 0)
(-1.01170276440264e+19 0 0)
(-1.00123696321444e+19 0 0)
(-9.90444458088858e+18 0 0)
(-9.7931142520583e+18 0 0)
(-9.67823106192703e+18 0 0)
(-9.55963773529516e+18 0 0)
(-9.43716703134233e+18 0 0)
(-9.31064186795039e+18 0 0)
(-9.17987536597313e+18 0 0)
(-9.04467020466514e+18 0 0)
(-8.90481662834822e+18 0 0)
(-8.76008391480915e+18 0 0)
(-8.61019610562009e+18 0 0)
(-8.4547504179396e+18 0 0)
(-8.29377909664147e+18 0 0)
(-8.1063183976948e+18 0 0)
(-7.91585261149382e+18 0 0)
(-7.76714575067428e+18 0 0)
(-7.57227992570659e+18 0 0)
(-7.36959085515846e+18 0 0)
(-7.1571825219894e+18 0 0)
(-6.93425892832366e+18 0 0)
(-6.69976786039315e+18 0 0)
(-6.45245958850242e+18 0 0)
(-6.19088767569678e+18 0 0)
(-5.91340519128931e+18 0 0)
(-5.61814170702551e+18 0 0)
(-5.30297610241363e+18 0 0)
(-4.96551021841272e+18 0 0)
(-4.60303954226656e+18 0 0)
(-4.21254147110181e+18 0 0)
(-3.79052657339584e+18 0 0)
(-3.3337985139055e+18 0 0)
(-2.83694698986891e+18 0 0)
(-2.29659468247859e+18 0 0)
(-1.70689802646376e+18 0 0)
(-1.04523535622131e+18 0 0)
(-2.76026214815105e+17 0 0)
(5.89622202010173e+17 0 0)
(2.2787111375371e+18 0 0)
(4.55510466971147e+18 0 0)
(5.89098224884017e+18 0 0)
(6.70457305170235e+18 0 0)
(7.59157992915468e+18 0 0)
(8.44110172803773e+18 0 0)
(8.02489965217002e+18 0 0)
(5.67428924949135e+18 0 0)
(3.67882935469919e+18 0 0)
(1.15700119741084e+18 0 0)
(-8.13909750501605e+17 0 0)
(-1.68861249330741e+18 0 0)
(-1.22871166823249e+18 0 0)
(2.1378514195107e+18 0 0)
(6.8605566050401e+18 0 0)
(1.46643847381642e+19 0 0)
(2.41247959728762e+19 0 0)
(3.28596276440465e+19 0 0)
(4.00680575701012e+19 0 0)
(4.29664261354936e+19 0 0)
(4.56780240705222e+19 0 0)
(3.80429867664671e+19 0 0)
(3.29809498472563e+19 0 0)
(2.52393268521305e+19 0 0)
(1.63616290618978e+19 0 0)
(8.22408827931093e+18 0 0)
(8.73103832011889e+18 0 0)
(-1.64935563567564e+18 0 0)
(-1.43252826378504e+18 0 0)
(-3.42097610054988e+18 0 0)
(-2.97105915096362e+18 0 0)
(-3.19734419101386e+18 0 0)
(-3.48087037302641e+18 0 0)
(-3.69987246733375e+18 0 0)
(-3.8022342329424e+18 0 0)
(-3.83552358701481e+18 0 0)
(-3.82108577821777e+18 0 0)
(-3.78730683271259e+18 0 0)
(-3.73762649736535e+18 0 0)
(-3.68584068809052e+18 0 0)
(-3.627402779184e+18 0 0)
(-3.56642638565273e+18 0 0)
(-3.50130503090755e+18 0 0)
(-3.43741680978157e+18 0 0)
(-3.37171571949786e+18 0 0)
(-3.30551586975213e+18 0 0)
(-3.23883345537934e+18 0 0)
(-3.17194449328832e+18 0 0)
(-3.10501812299708e+18 0 0)
(-3.03822490732288e+18 0 0)
(-2.97172460311061e+18 0 0)
(-2.90563391386865e+18 0 0)
(-2.84017681404909e+18 0 0)
(-2.77493709482004e+18 0 0)
(-2.71136298252512e+18 0 0)
(-2.64827091049578e+18 0 0)
(-2.58622248714906e+18 0 0)
(-2.52526810845896e+18 0 0)
(-2.46549405906332e+18 0 0)
(-2.40695871263804e+18 0 0)
(-2.34971635702894e+18 0 0)
(-2.29380031850466e+18 0 0)
(-2.23923591051935e+18 0 0)
(-2.18603973525845e+18 0 0)
(-2.13422066850211e+18 0 0)
(-2.08378047840245e+18 0 0)
(-2.03471392474253e+18 0 0)
(-1.98701040864327e+18 0 0)
(-1.94065410273051e+18 0 0)
(-1.89562609108218e+18 0 0)
(-1.85190322788139e+18 0 0)
(-1.80945988812604e+18 0 0)
(-1.76826813478496e+18 0 0)
(-1.72829728948977e+18 0 0)
(-1.68952241058135e+18 0 0)
(-1.6519023707329e+18 0 0)
(-1.61539343962616e+18 0 0)
(-1.57998098168422e+18 0 0)
(-1.5455406547961e+18 0 0)
(-1.51224170298526e+18 0 0)
(-1.47993528357517e+18 0 0)
(-1.44853194210322e+18 0 0)
(-1.41804989954586e+18 0 0)
(-1.38845474965254e+18 0 0)
(-1.35971707209824e+18 0 0)
(-1.33180697521813e+18 0 0)
(-1.30469534934802e+18 0 0)
(-1.27835170627624e+18 0 0)
(-1.25277099466692e+18 0 0)
(-1.22782252080565e+18 0 0)
(-1.20363696665871e+18 0 0)
(-1.18014739370744e+18 0 0)
(-1.15721545356726e+18 0 0)
(-1.13493244615019e+18 0 0)
(-1.11323798194372e+18 0 0)
(-1.09211757441104e+18 0 0)
(-1.0715482861066e+18 0 0)
(-1.05151102774837e+18 0 0)
(-1.03198760680829e+18 0 0)
(-1.01295663815031e+18 0 0)
(-9.94398928226519e+17 0 0)
(-9.76222628216322e+17 0 0)
(-9.58683792520755e+17 0 0)
(-9.41472462260196e+17 0 0)
(-9.24688346557456e+17 0 0)
(-9.08303965426509e+17 0 0)
(-8.9231354635086e+17 0 0)
(-8.76704223378945e+17 0 0)
(-8.61464822081554e+17 0 0)
(-8.46583992975932e+17 0 0)
(-8.32050973603179e+17 0 0)
(-8.17854806639261e+17 0 0)
(-8.03986021581026e+17 0 0)
(-7.90426995402353e+17 0 0)
(-7.77179780333915e+17 0 0)
(-7.64086876872804e+17 0 0)
(-7.51488903474107e+17 0 0)
(-7.39317051418836e+17 0 0)
(-7.27294195920844e+17 0 0)
(-7.15548060536695e+17 0 0)
(-7.04078636671264e+17 0 0)
(-6.92668201012996e+17 0 0)
(-6.8183480292176e+17 0 0)
(-6.71465093480291e+17 0 0)
(-6.61183414022045e+17 0 0)
(-6.506827353218e+17 0 0)
(-6.4159768629552e+17 0 0)
(-6.32009796323713e+17 0 0)
(-6.23347973917681e+17 0 0)
(-6.14960003395665e+17 0 0)
(-6.08076592684527e+17 0 0)
(-6.01721158715818e+17 0 0)
(-5.91207751190556e+17 0 0)
)
;

boundaryField
{
    electrode
    {
        type            calculated;
        value           uniform (-1.50975694290385e+19 0 0);
    }
    ground
    {
        type            calculated;
        value           uniform (-5.88554702144899e+17 0 0);
    }
    otherfaces
    {
        type            empty;
    }
}


// ************************************************************************* //
