/*--------------------------------*- C++ -*----------------------------------*\
| =========                 |                                                 |
| \\      /  F ield         | foam-extend: Open Source CFD                    |
|  \\    /   O peration     | Version:     4.0                                |
|   \\  /    A nd           | Web:         http://www.foam-extend.org         |
|    \\/     M anipulation  |                                                 |
\*---------------------------------------------------------------------------*/
FoamFile
{
    version     2.0;
    format      ascii;
    class       volScalarField;
    location    "1.6e-06";
    object      N_electronMean;
}
// * * * * * * * * * * * * * * * * * * * * * * * * * * * * * * * * * * * * * //

dimensions      [0 0 0 1 0 0 0];

internalField   nonuniform List<scalar> 
300
(
6.08337235139712e+16
6.0833000258436e+16
6.08297620955496e+16
6.0823218966566e+16
6.08133732675757e+16
6.08001196088594e+16
6.07833865785334e+16
6.07631231464464e+16
6.07392841216104e+16
6.07118333134564e+16
6.06807420106838e+16
6.0645988312994e+16
6.06075565227413e+16
6.05654365671031e+16
6.05196235994143e+16
6.04701176031e+16
6.04169230621632e+16
6.03600486836408e+16
6.02995071307106e+16
6.02353147740088e+16
6.01674914777761e+16
6.0096060401535e+16
6.00210478122165e+16
5.99424828930589e+16
5.98603976176664e+16
5.97748266630258e+16
5.96858072137544e+16
5.959337876992e+16
5.94975830018581e+16
5.93984635382506e+16
5.9296065850692e+16
5.91904372668505e+16
5.90816267891888e+16
5.89696847678618e+16
5.88546626859504e+16
5.87366130032081e+16
5.861558900567e+16
5.84916446762083e+16
5.8364834548479e+16
5.82352135595786e+16
5.81028369447551e+16
5.79677601288679e+16
5.78300385819538e+16
5.76897276940668e+16
5.75468826788791e+16
5.74015584830388e+16
5.7253809708447e+16
5.71036905536184e+16
5.69512547896666e+16
5.67965557702453e+16
5.66396465199549e+16
5.64805798265195e+16
5.63194082096802e+16
5.61561837862199e+16
5.59909580380912e+16
5.58237815712375e+16
5.56547039209911e+16
5.54837734173865e+16
5.53110371014892e+16
5.51365406467115e+16
5.49603282972603e+16
5.47824428172649e+16
5.46029254248197e+16
5.44218158427781e+16
5.42391524895752e+16
5.40549724153872e+16
5.38693109995266e+16
5.36822017985064e+16
5.3493676508469e+16
5.33037649226967e+16
5.31124948853052e+16
5.29198923049101e+16
5.27259812842131e+16
5.25307841208918e+16
5.23343211600435e+16
5.21366108561235e+16
5.19376699109794e+16
5.1737513219334e+16
5.15361536319862e+16
5.13336018228992e+16
5.11298663043121e+16
5.09249531689669e+16
5.07188658391274e+16
5.05116049968086e+16
5.0303168562236e+16
5.00935517569927e+16
4.98827469870843e+16
4.96707435766357e+16
4.94575276470821e+16
4.92430821015871e+16
4.90273865079247e+16
4.88104171439837e+16
4.85921470840986e+16
4.83725458358762e+16
4.81515789910585e+16
4.79292081065891e+16
4.77053905763929e+16
4.74800794993123e+16
4.72532235418896e+16
4.70247668419889e+16
4.67946489019459e+16
4.65628043836629e+16
4.63291630351484e+16
4.60936496971698e+16
4.58561840487145e+16
4.56166804018754e+16
4.53750475871986e+16
4.51311887786452e+16
4.48850013863119e+16
4.46363768281289e+16
4.43852002540418e+16
4.41313503663554e+16
4.38746992832722e+16
4.36151124720741e+16
4.3352448604656e+16
4.30865594086308e+16
4.28172897220424e+16
4.25444774186885e+16
4.22679530583609e+16
4.19875395733629e+16
4.17030521991799e+16
4.14142984844715e+16
4.11210782637373e+16
4.08231836724091e+16
4.05203989051319e+16
4.0212499794616e+16
3.98992536680483e+16
3.95804193198336e+16
3.92557468284265e+16
3.89249774222104e+16
3.85878434693031e+16
3.82440684706976e+16
3.78933670179049e+16
3.75354447513001e+16
3.7169998600613e+16
3.67967171297265e+16
3.64152804467202e+16
3.60253600378532e+16
3.56266190028956e+16
3.52187123196006e+16
3.48012868351214e+16
3.43739813041966e+16
3.3936426626319e+16
3.34882461918047e+16
3.30290564456021e+16
3.25584673804388e+16
3.2076082696148e+16
3.15814999306e+16
3.10743106141007e+16
3.05541007534485e+16
3.00204516385567e+16
2.94729402502774e+16
2.89111397601938e+16
2.83346202666195e+16
2.77429491904532e+16
2.71356918677708e+16
2.65124124837006e+16
2.58726749653897e+16
2.52160436023644e+16
2.45420836819194e+16
2.38503623940282e+16
2.3140448895642e+16
2.24119134880037e+16
2.16643259044883e+16
2.08972487171186e+16
2.01102211745509e+16
1.93027399144538e+16
1.8474254943777e+16
1.76241738164675e+16
1.67518603306248e+16
1.58566371133314e+16
1.49378422558138e+16
1.39950628949169e+16
1.30284990322237e+16
1.20393251550214e+16
1.10301031254555e+16
1.00053192320666e+16
8.97193057712514e+15
7.939662425971e+15
6.92103382126769e+15
5.93103606919837e+15
4.98633003986104e+15
4.10399790558411e+15
3.29992986428227e+15
2.58709747178962e+15
1.97401820769825e+15
1.46376124614328e+15
1.05369255654358e+15
736021275858947
499102831228314
329107012334027
211728885164798
133662956572940
83600553351218.7
52285136114529.7
32975711614556.6
21156172296196.8
14000222567845
9721186548771.07
7184539894494.58
5716204891929.54
4886871324178.36
4402836999499.33
4094047372241.44
3876444933925.23
3709373810391.1
3572442369333.79
3454658514359.86
3349570945382.31
3253180246645.63
3163024627243.43
3077501806300.5
2995507246539.8
2916237813167.55
2839128300055.33
2763768497188.38
2689870131948.49
2617234245908.35
2545726125471.73
2475263143171.99
2405800582636.37
2337302813281.97
2269765880516.71
2203216120177.52
2137690391770.57
2073233683971.45
2009895065607.07
1947722749102.86
1886763663141.38
1827060927720.36
1768652310864.63
1711572146647.01
1655847811062.63
1601500968519.56
1548548676225.87
1497001929135.47
1446865546580.93
1398140861066.47
1350823052809.22
1304902921230.11
1260368536610.04
1217203465386.82
1175389822782.53
1134906674967.3
1095730277040.99
1057835039344.63
1021190670502.98
985766757355.693
951533901672.167
918462322783.675
886521681011.46
855680307466.493
825906347885.914
797167161007.663
769430781471.019
742666340032.514
716843824469.454
691932913811.566
667902866001.91
644724957131.981
622372354710.117
600817213921.743
580032365565.997
559990444168.007
540664917174.44
522030976891.147
504064905368.906
486744397859.349
470047525592.631
453951823425.666
438432825296.338
423468032776.93
409037855834.877
395125187268.299
381713837210.246
368788558052.733
356334686666.028
344337683392.581
332784017787.039
321661206432.829
310957278383.11
300659320722.707
290755077223.415
281229541496.914
272060179824.361
263232784206.995
254745929870.703
246598650575.387
238790086900.668
231310293372.748
224141408276.603
217283888559.627
210757652815.722
204561815725.019
198712457294.372
193259087996.687
188279527219.42
183935594028.988
180499344583.192
178447641824.155
)
;

boundaryField
{
    electrode
    {
        type            calculated;
        value           uniform 6.08337235147081e+16;
    }
    ground
    {
        type            calculated;
        value           uniform 178468420794.865;
    }
    otherfaces
    {
        type            empty;
    }
}


// ************************************************************************* //
