/*--------------------------------*- C++ -*----------------------------------*\
| =========                 |                                                 |
| \\      /  F ield         | foam-extend: Open Source CFD                    |
|  \\    /   O peration     | Version:     4.0                                |
|   \\  /    A nd           | Web:         http://www.foam-extend.org         |
|    \\/     M anipulation  |                                                 |
\*---------------------------------------------------------------------------*/
FoamFile
{
    version     2.0;
    format      ascii;
    class       volScalarField;
    location    "1.6e-06";
    object      Phi;
}
// * * * * * * * * * * * * * * * * * * * * * * * * * * * * * * * * * * * * * //

dimensions      [0 0 0 1 0 0 0];

internalField   nonuniform List<scalar> 
300
(
699.999962326767
699.999775608854
699.999384464678
699.998786712798
699.997990514401
699.996995904223
699.99580261621
699.994410812888
699.9928206471
699.99103227255
699.989045873137
699.986861658799
699.984479864517
699.981900751266
699.979124606536
699.976151744776
699.972982507873
699.969617265631
699.966056416209
699.96230038654
699.9583496327
699.954204640226
699.949865924377
699.94533403032
699.940609533227
699.935693038292
699.930585180638
699.925286625117
699.919798065986
699.914120226465
699.908253858151
699.902199740289
699.895958678902
699.889531505755
699.882919077167
699.876122272644
699.869141993358
699.861979160433
699.854634713066
699.847109606463
699.839404809587
699.831521302721
699.823460074852
699.815222120855
699.806808438493
699.798220025229
699.789457874838
699.780522973838
699.771416297725
699.762138807013
699.752691443087
699.743075123857
699.733290739232
699.723339146379
699.713221164808
699.702937571247
699.692489094328
699.681876409061
699.671100131124
699.660160810928
699.649058927489
699.637794882078
699.626368991659
699.614781482104
699.603032481182
699.591122011314
699.579049982085
699.566816182522
699.554420273101
699.54186177751
699.529140074126
699.516254387224
699.503203777893
699.489987134654
699.476603163772
699.463050379246
699.449327092473
699.435431401566
699.421361180323
699.407114066835
699.392687451705
699.378078465895
699.363283968154
699.348300532042
699.333124432515
699.317751632079
699.302177766469
699.286398129862
699.270407659603
699.254200920412
699.237772088071
699.221114932558
699.204222800617
699.187088597732
699.169704769479
699.152063282242
699.134155603239
699.115972679838
699.097504918126
699.078742160679
699.059673663488
699.040288071989
699.020573396139
699.000516984457
698.980105496971
698.959324876969
698.938160321474
698.916596250313
698.894616273681
698.872203158052
698.849338790281
698.82600413973
698.802179218242
698.777843037713
698.752973565067
698.727547674325
698.701541095511
698.674928360028
698.647682742155
698.619776196253
698.591179289202
698.56186112758
698.531789278998
698.500929686952
698.469246578497
698.436702363933
698.403257527619
698.368870508937
698.33349757228
698.297092664838
698.259607260783
698.220990190299
698.181187451714
698.140142004765
698.097793542817
698.054078241551
698.008928481369
697.962272540425
697.914034254776
697.8641326417
697.8124814816
697.758988852914
697.70355661047
697.64607985437
697.586446331798
697.524535211866
697.460216658835
697.393350938343
697.323786820144
697.251360547398
697.17589438911
697.097194987707
697.015051452435
696.92923315044
696.839487138178
696.745535163774
696.647070154846
696.543752087308
696.435203105885
696.321001737432
696.200675994472
696.073695123249
695.93945975161
695.797289751161
695.646410052109
695.48593289281
695.314833515298
695.131924554138
694.935819713101
694.724742666518
694.496481326328
694.24846195626
693.977619879542
693.680287751228
693.352022061787
692.987810033882
692.582174581301
692.128863884229
691.621359620876
691.052501167992
690.415117497212
689.701965396156
688.905960215698
688.021445391413
687.043083415726
685.966894201197
684.789832727094
683.509661174314
682.125538436268
680.637595243073
679.04638258505
677.352513766989
675.557862045105
673.664420034854
671.67355600609
669.586375446961
667.403070036075
665.123719732027
662.748553103518
660.277913017855
657.712325439386
655.05236059201
652.29857693393
649.45173181217
646.512849607961
643.482826027818
640.362480170847
637.152512237712
633.853570879733
630.466173715599
626.990804948626
623.42780689526
619.777606881486
616.040809999702
612.217981655068
608.309593387904
604.316105623186
600.237907061129
596.075387257896
591.828865893741
587.498661049993
583.085023365479
578.588192972561
574.008345287645
569.345651310745
564.600390184645
559.772984534444
554.863820847529
549.873306556834
544.801821553555
539.649756268985
534.417459101565
529.105279977889
523.713526127063
518.242514762929
512.692524708779
507.063846159415
501.356720974385
495.571402534637
489.708092330891
483.767006591011
477.748315048769
471.652210237998
465.479052066078
459.229218188584
452.903072842215
446.50098870581
440.02333266895
433.470466154258
426.842733186684
420.140470984968
413.36397401929
406.51354950513
399.589445442692
392.591937968711
385.521236524224
378.377590285492
371.161196983266
363.872299417181
356.511104319684
349.077857231323
341.57276262795
333.99605938123
326.347935150979
318.628617407515
310.838269216843
302.977090142533
295.045251905096
287.043043249285
278.970687338208
270.828440836208
262.616499142168
254.335093589793
245.984400423374
237.564635644437
229.075966801537
220.518605080245
211.892718106607
203.198516040447
194.436163583842
185.605861648093
176.707761576591
167.742044677911
158.708839151484
149.608298018666
140.440520028524
131.205627926106
121.903695133094
112.534824456102
103.09907870401
93.5965566494421
84.0273245809727
74.3914872070562
64.6891177661233
54.9203246143745
45.0851808704477
35.1837903092762
25.2162142993094
15.1825469865985
5.08283138226399
)
;

boundaryField
{
    electrode
    {
        type            fixedValue;
        value           uniform 700;
    }
    ground
    {
        type            fixedValue;
        value           uniform 0;
    }
    otherfaces
    {
        type            empty;
    }
}


// ************************************************************************* //
