/*--------------------------------*- C++ -*----------------------------------*\
| =========                 |                                                 |
| \\      /  F ield         | foam-extend: Open Source CFD                    |
|  \\    /   O peration     | Version:     4.0                                |
|   \\  /    A nd           | Web:         http://www.foam-extend.org         |
|    \\/     M anipulation  |                                                 |
\*---------------------------------------------------------------------------*/
FoamFile
{
    version     2.0;
    format      ascii;
    class       volScalarField;
    location    "1.6e-06";
    object      PhiMean;
}
// * * * * * * * * * * * * * * * * * * * * * * * * * * * * * * * * * * * * * //

dimensions      [0 0 0 1 0 0 0];

internalField   nonuniform List<scalar> 
300
(
699.954145120699
699.950093460308
699.945783838245
699.941239816841
699.936470860839
699.931462613805
699.926211269608
699.920712785147
699.914963548232
699.908960765522
699.90270211998
699.896185823014
699.88941049682
699.882375145176
699.875079116508
699.86752206758
699.859703934863
699.851624916021
699.843285446273
699.834686176218
699.825827957508
699.816711827556
699.807338996048
699.797710830958
699.787828843278
699.777694710932
699.767310243185
699.756677370041
699.745798141999
699.734674704952
699.723309283213
699.711704225505
699.699861982007
699.687785055749
699.675475996117
699.662937389903
699.650171850416
699.637182015741
699.623970538051
699.610540070526
699.596893265239
699.583032771835
699.56896122037
699.554681215781
699.540195332714
699.525506110473
699.510616048185
699.495527603897
699.480243193911
699.464765204287
699.449095998655
699.433237962744
699.417193480561
699.400964947881
699.384554723065
699.36796511338
699.351198343817
699.334256549895
699.317141773295
699.299855953703
699.282400926492
699.264778418302
699.246990040289
699.229037280695
699.210921573576
699.192644290197
699.174206662964
699.155609783567
699.136854601072
699.11794191678
699.09887237936
699.079646475793
699.060264569119
699.040726908083
699.021033570455
699.001184490007
698.981179500053
698.961018305166
698.940700468751
698.920225337866
698.899592145304
698.878799897625
698.857847357373
698.83673304611
698.815455219903
698.794011918411
698.772400935425
698.750619761986
698.728665570934
698.706535235653
698.684225299163
698.661731952518
698.639051150828
698.616178458159
698.593109017073
698.569837537783
698.546358271534
698.522664995999
698.498750979362
698.474608971631
698.450231187117
698.425609259011
698.400734194059
698.375596441184
698.350185773124
698.324491261137
698.298501271202
698.272203376415
698.245584378569
698.218630224423
698.191325937215
698.163655577758
698.135602182906
698.107147742789
698.078273149666
698.048958100551
698.019181112826
697.988919484268
697.958149146068
697.926844563751
697.894978652503
697.862522770107
697.829446572705
697.795718019655
697.761303209171
697.726166188371
697.690268822801
697.653570729118
697.61602905711
697.57759834444
697.538230351287
697.49787389336
697.456474632291
697.413974836524
697.370313170706
697.325424594696
697.279239979666
697.231685730628
697.18268349759
697.132149875089
697.079995901985
697.026126580193
696.970440377484
696.912828667275
696.853175164631
696.791355317496
696.727235387538
696.660671543177
696.591508752088
696.51957957974
696.444703075878
696.366683133677
696.285306678303
696.200341852459
696.111535432656
696.018610148904
695.921261530209
695.819154177686
695.711917238902
695.599138902838
695.480360175029
695.355066936371
695.222679861552
695.082542670793
694.933906381813
694.775906554949
694.607531628839
694.427589583128
694.23467173024
694.027092606919
693.802816915443
693.559356398237
693.293694997059
693.002267433916
692.680849806033
692.324487506234
691.927453381106
691.48331485546
690.984969348691
690.424686237135
689.794356091103
689.085622931313
688.29024484389
687.400347052791
686.408774358875
685.309302673879
684.096937125296
682.768085166405
681.320246971545
679.752339057619
678.064379522071
676.256918435292
674.331280871471
672.289508239714
670.133591513647
667.865447627293
665.486656478514
662.99879883573
660.403398169788
657.70183137545
654.895402382159
651.985366349271
648.972971343777
645.859543524421
642.646592463723
639.335518816433
635.927629593553
632.424135140098
628.826175691886
625.13481343462
621.351063041823
617.475877846468
613.510242858887
609.45524264729
605.311911992712
601.081223456714
596.764112893699
592.361463448229
587.874132412931
583.302931923691
578.648657793358
573.91206765123
569.093911652367
564.194910359692
559.215788697858
554.157319912138
549.020320538973
543.805570647992
538.513838141581
533.145856936316
527.702352695629
522.184019049985
516.591548799572
510.925613949824
505.186890890291
499.376031569688
493.493694325299
487.54051364164
481.517133678474
475.424176088966
469.262276317568
463.032050758811
456.734142995038
450.369226090872
443.937997765671
437.441108347304
430.879231463782
424.252992740582
417.563043431783
410.809985994043
403.994451329572
397.117020128202
390.17830522248
383.17886674126
376.119301489705
369.000150216724
361.821995333197
354.585359368928
347.290811309247
339.93885649928
332.530050990233
325.064883765293
317.543898750318
309.967568906215
302.336427049468
294.650943763811
286.911676519336
279.11911554938
271.27386232837
263.376404667409
255.427336609201
247.427128890903
239.376366158521
231.275502226564
223.125113167019
214.925636150064
206.677639336275
198.381543569577
190.037909597522
181.647142289082
173.209795504091
164.726258413481
156.197078744259
147.622630343651
139.003455773967
130.339914037379
121.632543511905
112.881688798911
104.087884953555
95.2514624962468
86.3729537532353
77.4526754526173
68.4911577571445
59.4887037052951
50.4458416592162
41.3628612224905
32.2402896881295
23.0784035616822
13.8777301183469
4.63853334872538
)
;

boundaryField
{
    electrode
    {
        type            calculated;
        value           uniform 699.999999999952;
    }
    ground
    {
        type            calculated;
        value           uniform 0;
    }
    otherfaces
    {
        type            empty;
    }
}


// ************************************************************************* //
