/*--------------------------------*- C++ -*----------------------------------*\
| =========                 |                                                 |
| \\      /  F ield         | foam-extend: Open Source CFD                    |
|  \\    /   O peration     | Version:     4.0                                |
|   \\  /    A nd           | Web:         http://www.foam-extend.org         |
|    \\/     M anipulation  |                                                 |
\*---------------------------------------------------------------------------*/
FoamFile
{
    version     2.0;
    format      ascii;
    class       volScalarField;
    location    "1.6e-06";
    object      Sy_electron;
}
// * * * * * * * * * * * * * * * * * * * * * * * * * * * * * * * * * * * * * //

dimensions      [1 -3 -1 0 0 0 0];

internalField   nonuniform List<scalar> 
300
(
3.3016678724738e-15
3.30512360827488e-15
3.30870410385901e-15
3.31109988765263e-15
3.31259940331566e-15
3.3132973943305e-15
3.3132711088027e-15
3.3125800566136e-15
3.31127228686071e-15
3.3093884669861e-15
3.30695798123415e-15
3.3040072368759e-15
3.30055899995991e-15
3.29663345507367e-15
3.29224875483356e-15
3.28742144925364e-15
3.28216131192166e-15
3.27648507553396e-15
3.27040904813463e-15
3.26394616014023e-15
3.25710886741911e-15
3.24990913920011e-15
3.24235854166593e-15
3.23446826274275e-15
3.22622014378185e-15
3.21764779355629e-15
3.20875921444854e-15
3.19955937928686e-15
3.19007422102051e-15
3.18031389021765e-15
3.17025493108535e-15
3.15991928119489e-15
3.149340824434e-15
3.13853046065538e-15
3.12749856272305e-15
3.1162549749126e-15
3.10480124769323e-15
3.09315024036803e-15
3.08131572124999e-15
3.06930512624417e-15
3.05712581153481e-15
3.04478823243786e-15
3.03230032596577e-15
3.0196696609922e-15
3.0069034325888e-15
2.99400839120477e-15
2.98098720428295e-15
2.96784344737268e-15
2.95456466779244e-15
2.9411496160043e-15
2.92757763840947e-15
2.91387168735177e-15
2.90002359349959e-15
2.88606503818152e-15
2.87201091748707e-15
2.8578901329517e-15
2.84370902736328e-15
2.82947327699331e-15
2.81518793624248e-15
2.80085436738403e-15
2.78648051284364e-15
2.77207054000619e-15
2.75761947848768e-15
2.7430979212228e-15
2.72851337052208e-15
2.71390921555099e-15
2.69928934741966e-15
2.68465726815165e-15
2.67001602962611e-15
2.65536829002846e-15
2.64071308313608e-15
2.62603913139742e-15
2.61134444326123e-15
2.59664171427813e-15
2.58190938666936e-15
2.56714982016417e-15
2.55237386842746e-15
2.53757534195333e-15
2.52278695718783e-15
2.50796000920593e-15
2.49315044047101e-15
2.47836178478212e-15
2.46358935457421e-15
2.44883702242469e-15
2.43408164564087e-15
2.41933581811247e-15
2.40461815513265e-15
2.38992930434695e-15
2.37525086179985e-15
2.36059520952366e-15
2.34595334879502e-15
2.3312560233606e-15
2.31658917042865e-15
2.3019552792414e-15
2.28735449208945e-15
2.27278694819395e-15
2.25825241322472e-15
2.24375035822682e-15
2.22926441398814e-15
2.21479475868039e-15
2.20035101381495e-15
2.18593531188937e-15
2.17150050675613e-15
2.15709059704048e-15
2.1426920899587e-15
2.1282915262477e-15
2.11391144026586e-15
2.09952332428675e-15
2.08514289072337e-15
2.07077836500643e-15
2.05642728769825e-15
2.04208666544648e-15
2.02774570681038e-15
2.0134016942412e-15
1.99905196417969e-15
1.98467199176795e-15
1.97023580222859e-15
1.95577943510697e-15
1.94130473306378e-15
1.92680110130033e-15
1.91223253678057e-15
1.89761835319425e-15
1.88291941327679e-15
1.86815153073598e-15
1.85333165434387e-15
1.83845792784649e-15
1.82349323807473e-15
1.80846291344524e-15
1.79335365536389e-15
1.77816431455344e-15
1.76287556712865e-15
1.74748416695874e-15
1.73198549935746e-15
1.71634730285339e-15
1.70052427531257e-15
1.6845443620245e-15
1.66841560466799e-15
1.65210853618868e-15
1.63560233646223e-15
1.61891258800709e-15
1.60202265201943e-15
1.58491562375613e-15
1.56755561948707e-15
1.54990787575395e-15
1.53194796349516e-15
1.51370694687097e-15
1.49517282299713e-15
1.47633278583762e-15
1.45715733413358e-15
1.43759591170304e-15
1.41767330614924e-15
1.39736989648907e-15
1.37662288290276e-15
1.35544358529148e-15
1.3338238483873e-15
1.31172038308442e-15
1.28909964206726e-15
1.26597861917637e-15
1.24235402295374e-15
1.21819535232377e-15
1.19348500546113e-15
1.16823002861399e-15
1.14241396817785e-15
1.11607706005207e-15
1.08923312615192e-15
1.06185477252975e-15
1.03399563474017e-15
1.00573772118806e-15
9.7714976485797e-16
9.48300543150093e-16
9.19273740760397e-16
8.90122566552676e-16
8.60957624045e-16
8.31945974496111e-16
8.03246368887974e-16
7.74995851530454e-16
7.47344326804516e-16
7.20452426536588e-16
6.94526306966354e-16
6.69710819508358e-16
6.46183981702501e-16
6.24151979472651e-16
6.03842158204507e-16
5.85714905138293e-16
5.70617628479177e-16
5.61053104067795e-16
5.67374591818955e-16
6.22600048748298e-16
9.30934791642949e-16
3.53698033596605e-15
3.2763768098559e-14
4.39161238879405e-13
3.27012870990384e-11
6.56963821021495e-10
2.86154250116922e-09
4.93931584035689e-09
5.53665263656514e-09
4.87536691115236e-09
3.93122153083857e-09
3.16876650777332e-09
2.63252876118102e-09
2.2940171325375e-09
2.08374146849158e-09
1.9548852623667e-09
1.88428836459746e-09
1.84696715285842e-09
1.82691025982781e-09
1.82213901047959e-09
1.82610595836662e-09
1.83434851500348e-09
1.84003962506829e-09
1.84420452752758e-09
1.84681714121388e-09
1.84702878604917e-09
1.84432119993818e-09
1.83840773303767e-09
1.82917118408789e-09
1.81661783569591e-09
1.80084436115767e-09
1.78200956728098e-09
1.76032152291869e-09
1.73596759456229e-09
1.70915617214859e-09
1.67942404269313e-09
1.64723222493631e-09
1.61350847367323e-09
1.57853250742314e-09
1.54257150967255e-09
1.50587640112564e-09
1.46868000810226e-09
1.43119584003473e-09
1.39361752188456e-09
1.35611877053609e-09
1.31885382734105e-09
1.28195817199512e-09
1.2455493937201e-09
1.20972814015087e-09
1.17457918003989e-09
1.14017257519529e-09
1.10656490227376e-09
1.07380055601136e-09
1.04191301865184e-09
1.01092679128584e-09
9.80859066138942e-10
9.51719321857765e-10
9.23510090652708e-10
8.96219812146545e-10
8.69828531217457e-10
8.44322255623404e-10
8.19688420284947e-10
7.95911223803456e-10
7.72972120219664e-10
7.50850127872118e-10
7.29522353806839e-10
7.08964595310849e-10
6.89151747762568e-10
6.70060422310614e-10
6.5166250613013e-10
6.33927556792239e-10
6.16830190412924e-10
6.0034799787311e-10
5.84456078937412e-10
5.69130253172481e-10
5.54346847201424e-10
5.40082946630197e-10
5.26316401775451e-10
5.13025922571624e-10
5.00190843329918e-10
4.87790406384441e-10
4.75794473814298e-10
4.64175736219867e-10
4.5291856032184e-10
4.42008507299371e-10
4.31432704168002e-10
4.21179224965154e-10
4.11237121944818e-10
4.0159640217597e-10
3.92248038387173e-10
3.83183978134774e-10
3.74397120200828e-10
3.65881351063407e-10
3.5763075978132e-10
3.49241711896296e-10
3.40866443772805e-10
3.32683370892969e-10
3.24682118050431e-10
3.16874746425469e-10
3.09275470592809e-10
3.01899233739827e-10
2.93955900115729e-10
2.85730967624645e-10
2.77684820911975e-10
2.6987224978007e-10
2.60776167848245e-10
2.51321493860497e-10
2.4145269244664e-10
2.29458664799054e-10
2.15556983965968e-10
1.98087924924441e-10
1.73416718795601e-10
)
;

boundaryField
{
    electrode
    {
        type            zeroGradient;
    }
    ground
    {
        type            zeroGradient;
    }
    otherfaces
    {
        type            empty;
    }
}


// ************************************************************************* //
