/*--------------------------------*- C++ -*----------------------------------*\
| =========                 |                                                 |
| \\      /  F ield         | foam-extend: Open Source CFD                    |
|  \\    /   O peration     | Version:     4.0                                |
|   \\  /    A nd           | Web:         http://www.foam-extend.org         |
|    \\/     M anipulation  |                                                 |
\*---------------------------------------------------------------------------*/
FoamFile
{
    version     2.0;
    format      ascii;
    class       volScalarField;
    location    "6.4e-06";
    object      Ar;
}
// * * * * * * * * * * * * * * * * * * * * * * * * * * * * * * * * * * * * * //

dimensions      [0 0 0 1 0 0 0];

internalField   nonuniform List<scalar> 
300
(
3.21880259702413e+22
3.21880259274225e+22
3.21880259557946e+22
3.21880259667212e+22
3.21880259856066e+22
3.21880260118658e+22
3.21880260438851e+22
3.21880260823013e+22
3.21880261269926e+22
3.21880261779267e+22
3.21880262351079e+22
3.21880262985244e+22
3.21880263681708e+22
3.21880264440437e+22
3.21880265261407e+22
3.21880266144611e+22
3.2188026709008e+22
3.21880268097816e+22
3.21880269167822e+22
3.21880270300128e+22
3.21880271494771e+22
3.21880272751791e+22
3.21880274071239e+22
3.21880275453171e+22
3.21880276897808e+22
3.21880278405091e+22
3.21880279975109e+22
3.21880281607966e+22
3.21880283303662e+22
3.21880285062282e+22
3.21880286884107e+22
3.21880288769166e+22
3.21880290717431e+22
3.21880292729001e+22
3.21880294803985e+22
3.21880296942498e+22
3.21880299144707e+22
3.21880301410718e+22
3.21880303740639e+22
3.21880306134615e+22
3.21880308592799e+22
3.21880311115326e+22
3.21880313702355e+22
3.21880316354047e+22
3.21880319070572e+22
3.21880321852104e+22
3.21880324698848e+22
3.21880327611007e+22
3.21880330588878e+22
3.21880333632702e+22
3.21880336742834e+22
3.21880339919383e+22
3.21880343162641e+22
3.21880346472672e+22
3.21880349849641e+22
3.21880353293633e+22
3.2188035680487e+22
3.21880360383577e+22
3.21880364029991e+22
3.21880367744369e+22
3.21880371526937e+22
3.21880375377942e+22
3.21880379297692e+22
3.21880383286642e+22
3.2188038734503e+22
3.21880391472883e+22
3.21880395670463e+22
3.21880399938037e+22
3.21880404275877e+22
3.21880408684257e+22
3.21880413163475e+22
3.21880417713906e+22
3.21880422335889e+22
3.21880427029651e+22
3.21880431795514e+22
3.21880436633614e+22
3.21880441544495e+22
3.21880446528555e+22
3.21880451585937e+22
3.21880456717304e+22
3.21880461922666e+22
3.21880467202357e+22
3.2188047255676e+22
3.21880477986203e+22
3.21880483491179e+22
3.21880489071956e+22
3.21880494728757e+22
3.21880500461917e+22
3.21880506271888e+22
3.21880512158922e+22
3.21880518123407e+22
3.21880524166115e+22
3.21880530286812e+22
3.21880536485795e+22
3.21880542763374e+22
3.21880549119852e+22
3.21880555555533e+22
3.21880562070715e+22
3.21880568665798e+22
3.21880575341065e+22
3.21880582096734e+22
3.21880588933064e+22
3.2188059585064e+22
3.21880602849433e+22
3.21880609929787e+22
3.21880617092046e+22
3.21880624336303e+22
3.21880631662987e+22
3.21880639072226e+22
3.21880646564186e+22
3.21880654139102e+22
3.21880661797206e+22
3.21880669538777e+22
3.21880677364031e+22
3.21880685273179e+22
3.21880693266578e+22
3.2188070134459e+22
3.21880709507135e+22
3.21880717754362e+22
3.21880726086507e+22
3.21880734503977e+22
3.21880743006784e+22
3.21880751595348e+22
3.21880760269692e+22
3.21880769029821e+22
3.2188077787587e+22
3.21880786808226e+22
3.21880795826816e+22
3.21880804931843e+22
3.21880814123418e+22
3.2188082340178e+22
3.21880832767047e+22
3.21880842219342e+22
3.21880851758996e+22
3.21880861386436e+22
3.21880871101535e+22
3.21880880904308e+22
3.21880890795056e+22
3.21880900774014e+22
3.21880910841133e+22
3.2188092099661e+22
3.21880931240644e+22
3.21880941573581e+22
3.21880951995764e+22
3.21880962507453e+22
3.21880973108441e+22
3.21880983798885e+22
3.21880994578944e+22
3.21881005448814e+22
3.21881016408916e+22
3.21881027459392e+22
3.21881038599989e+22
3.21881049830515e+22
3.21881061151539e+22
3.21881072563075e+22
3.21881084065417e+22
3.21881095658042e+22
3.21881107342039e+22
3.21881119112997e+22
3.21881130978766e+22
3.21881142922862e+22
3.21881154970607e+22
3.21881167080247e+22
3.21881179309177e+22
3.21881191585805e+22
3.21881203816781e+22
3.21881216156361e+22
3.2188122862566e+22
3.21881241162649e+22
3.21881253777296e+22
3.21881266362193e+22
3.21881279007706e+22
3.21881291585427e+22
3.21881304177083e+22
3.21881317013656e+22
3.21881329758538e+22
3.2188134215505e+22
3.21881354681603e+22
3.21881367254331e+22
3.21881379232795e+22
3.21881391084784e+22
3.21881402934501e+22
3.21881413842667e+22
3.21881424628593e+22
3.21881434895671e+22
3.21881444284918e+22
3.21881453071678e+22
3.21881461443886e+22
3.21881468561658e+22
3.21881475069537e+22
3.21881481040065e+22
3.21881486158237e+22
3.21881490266493e+22
3.21881493948248e+22
3.21881496813385e+22
3.21881498741633e+22
3.21881499871987e+22
3.21881500753066e+22
3.21881501479878e+22
3.21881502029633e+22
3.21881502176264e+22
3.21881502115338e+22
3.21881502149683e+22
3.21881502252797e+22
3.21881502805229e+22
3.21881503501603e+22
3.21881504305849e+22
3.21881505061037e+22
3.21881505740318e+22
3.21881506335201e+22
3.21881506857666e+22
3.21881507315458e+22
3.2188150770948e+22
3.21881508275825e+22
3.21881508805938e+22
3.21881509299152e+22
3.21881509740805e+22
3.21881510155923e+22
3.21881510528086e+22
3.21881510881711e+22
3.2188151119812e+22
3.21881511504235e+22
3.21881511780318e+22
3.21881512050033e+22
3.21881512290795e+22
3.21881512686209e+22
3.21881513044833e+22
3.21881513406918e+22
3.21881513734e+22
3.21881514067444e+22
3.21881514366822e+22
3.21881514675075e+22
3.2188151494943e+22
3.21881515234448e+22
3.21881515485682e+22
3.21881515749084e+22
3.21881515978526e+22
3.2188151622164e+22
3.21881516430544e+22
3.21881516654543e+22
3.2188151684395e+22
3.21881517067402e+22
3.21881517342741e+22
3.21881517633683e+22
3.2188151789113e+22
3.2188151816545e+22
3.21881518406059e+22
3.21881518664908e+22
3.21881518889559e+22
3.21881519133768e+22
3.21881519343315e+22
3.21881519573498e+22
3.21881519768648e+22
3.21881519985529e+22
3.21881520166978e+22
3.21881520371218e+22
3.21881520539639e+22
3.21881520732e+22
3.21881520888141e+22
3.21881521069146e+22
3.21881521213381e+22
3.21881521383598e+22
3.21881521516514e+22
3.21881521676497e+22
3.21881521798648e+22
3.21881521974233e+22
3.21881522152554e+22
3.21881522359916e+22
3.21881522528112e+22
3.2188152272637e+22
3.21881522884995e+22
3.21881523074567e+22
3.21881523224158e+22
3.21881523405422e+22
3.21881523546512e+22
3.21881523720003e+22
3.21881523853126e+22
3.21881524019275e+22
3.21881524144729e+22
3.21881524303887e+22
3.21881524422167e+22
3.21881524575061e+22
3.21881524688672e+22
3.2188152483813e+22
3.21881524946389e+22
3.21881525090114e+22
3.21881525192313e+22
3.2188152533037e+22
3.21881525426646e+22
3.21881525563037e+22
3.21881525658908e+22
3.21881525791818e+22
3.21881525882102e+22
3.21881526015406e+22
3.21881526107294e+22
3.21881526239308e+22
3.21881526334436e+22
3.2188152647362e+22
3.21881526577131e+22
3.21881526789983e+22
)
;

boundaryField
{
    electrode
    {
        type            zeroGradient;
    }
    ground
    {
        type            zeroGradient;
    }
    otherfaces
    {
        type            empty;
    }
}


// ************************************************************************* //
