/*--------------------------------*- C++ -*----------------------------------*\
| =========                 |                                                 |
| \\      /  F ield         | foam-extend: Open Source CFD                    |
|  \\    /   O peration     | Version:     4.0                                |
|   \\  /    A nd           | Web:         http://www.foam-extend.org         |
|    \\/     M anipulation  |                                                 |
\*---------------------------------------------------------------------------*/
FoamFile
{
    version     2.0;
    format      ascii;
    class       volScalarField;
    location    "6.4e-06";
    object      Arm;
}
// * * * * * * * * * * * * * * * * * * * * * * * * * * * * * * * * * * * * * //

dimensions      [0 0 0 1 0 0 0];

internalField   nonuniform List<scalar> 
300
(
3.57412487239538e+15
3.57600037479943e+15
3.5779484690787e+15
3.57925458438151e+15
3.58007085191514e+15
3.58044941629259e+15
3.5804344800933e+15
3.58005748724603e+15
3.57934409779314e+15
3.57831629374783e+15
3.57698985259594e+15
3.57537886015857e+15
3.57349537003654e+15
3.5713499850411e+15
3.56895216237534e+15
3.56631044482243e+15
3.56342966087884e+15
3.56031839444383e+15
3.5569849858297e+15
3.5534359155955e+15
3.54967738519726e+15
3.54571531630427e+15
3.54155539892862e+15
3.53720306928696e+15
3.53264768309732e+15
3.52790694820667e+15
3.52298457659703e+15
3.51788259285195e+15
3.5126145754183e+15
3.50718539857468e+15
3.50158133389594e+15
3.49581374297865e+15
3.48990071890314e+15
3.48384765340341e+15
3.47765963273813e+15
3.47134145540385e+15
3.46489330290284e+15
3.45832168741091e+15
3.45163367507765e+15
3.4448328037521e+15
3.43792257832435e+15
3.43090827280101e+15
3.42379376891943e+15
3.4165827582352e+15
3.40927874090085e+15
3.40188497916944e+15
3.39440241961942e+15
3.38683250381051e+15
3.37916747906591e+15
3.3714059232634e+15
3.36353525807766e+15
3.35556795919961e+15
3.34749866134651e+15
3.33934506120378e+15
3.33111530430085e+15
3.32282574696385e+15
3.31447969879587e+15
3.30608007595558e+15
3.29762944925778e+15
3.28912824079358e+15
3.28058076182475e+15
3.27198912126527e+15
3.26334996794744e+15
3.25464536349955e+15
3.24587928595947e+15
3.23707729091451e+15
3.22824148729754e+15
3.21937371485222e+15
3.21047555942114e+15
3.20154837921943e+15
3.19259132598592e+15
3.18359725640467e+15
3.17456463579214e+15
3.16550089039741e+15
3.15639250093198e+15
3.14724052008092e+15
3.13805128109153e+15
3.12882067627715e+15
3.11956863717385e+15
3.11026467797659e+15
3.10094332269297e+15
3.09160671507187e+15
3.08225177778607e+15
3.07288075700403e+15
3.06347885856371e+15
3.05405381242471e+15
3.04461731433582e+15
3.03516968408524e+15
3.02569903147978e+15
3.01621308950708e+15
3.00670582728167e+15
2.9971322785383e+15
2.9875476182512e+15
2.97795351781894e+15
2.96835000721141e+15
2.95873711241135e+15
2.94911461512515e+15
2.9394820762351e+15
2.92982857314079e+15
2.92015404190334e+15
2.910464738529e+15
2.90076192516937e+15
2.89101389576114e+15
2.8812498149012e+15
2.87146048728931e+15
2.86163658316036e+15
2.85179308879339e+15
2.84191043144041e+15
2.83199901357567e+15
2.82206428540138e+15
2.81210438113516e+15
2.80211701112825e+15
2.79209444170862e+15
2.78203445718191e+15
2.77193482730217e+15
2.76177790877478e+15
2.75154484302053e+15
2.74126038770915e+15
2.73092542552363e+15
2.7205318709157e+15
2.71005337132288e+15
2.69950283841904e+15
2.68885133431838e+15
2.67810922938497e+15
2.66728794541019e+15
2.65638527399636e+15
2.64537314824219e+15
2.63426895720433e+15
2.62306189625314e+15
2.61174991038856e+15
2.60031737218789e+15
2.58876040363866e+15
2.57707399438506e+15
2.56523206414691e+15
2.55319819006158e+15
2.54099118337567e+15
2.52861495863746e+15
2.5160444946922e+15
2.50326094688458e+15
2.49027340309874e+15
2.47706589173087e+15
2.46362174840258e+15
2.44990883776609e+15
2.43589506585903e+15
2.42155584300095e+15
2.40691091970826e+15
2.39194544944772e+15
2.37664306040472e+15
2.36097321268942e+15
2.34488706626259e+15
2.32839698893691e+15
2.31147823232641e+15
2.29406859057739e+15
2.27616682686551e+15
2.25775467576347e+15
2.23878243186886e+15
2.21920686744861e+15
2.19902739241779e+15
2.178224856676e+15
2.15675432216826e+15
2.13458018961631e+15
2.11168734044232e+15
2.08803756852972e+15
2.06364336946148e+15
2.03849173848566e+15
2.01252817973476e+15
1.98577348202206e+15
1.95827218950441e+15
1.93005328789245e+15
1.90115875497905e+15
1.87165715385348e+15
1.84158187058468e+15
1.81102530063199e+15
1.78015891975973e+15
1.74917664664411e+15
1.71824835037369e+15
1.68755322317698e+15
1.65729027730636e+15
1.62769823801268e+15
1.59893272703043e+15
1.57114801831066e+15
1.54449112072996e+15
1.51904345561999e+15
1.49491972802705e+15
1.47211982829347e+15
1.45055367422694e+15
1.43026095678564e+15
1.41119119196683e+15
1.39325849118332e+15
1.37638206823054e+15
1.36046754773078e+15
1.34556439749922e+15
1.33215614103516e+15
1.32528951052487e+15
1.3511192482785e+15
1.41668142323024e+15
1.49540531303633e+15
1.55783452054191e+15
1.60726989088458e+15
1.64838034969284e+15
1.68139426503649e+15
1.69834449621626e+15
1.68843566268311e+15
1.65732966256539e+15
1.61600792711685e+15
1.57537278645087e+15
1.54149439461154e+15
1.51619708876872e+15
1.49866432388249e+15
1.48698584011351e+15
1.47902144322687e+15
1.47321752383274e+15
1.46928735752089e+15
1.46633414653619e+15
1.46336246652941e+15
1.46065805100133e+15
1.45800101598481e+15
1.45519219711443e+15
1.45207751683612e+15
1.44856717278894e+15
1.44461031628636e+15
1.43996784091459e+15
1.43457424924437e+15
1.42854749172344e+15
1.42197598703421e+15
1.41502227817002e+15
1.40773258956181e+15
1.40013391300953e+15
1.39226965614361e+15
1.38418941027205e+15
1.37591999505136e+15
1.36750338586919e+15
1.3589853834157e+15
1.35039372861886e+15
1.34175807686998e+15
1.33312294640993e+15
1.32449809388588e+15
1.31592573006747e+15
1.30741550930302e+15
1.29899644735429e+15
1.2906851792196e+15
1.28248758017582e+15
1.27442997241208e+15
1.26650852478964e+15
1.25873815366399e+15
1.25114148810478e+15
1.24371042015374e+15
1.23645688879557e+15
1.22938644628099e+15
1.22249316372828e+15
1.21578535346343e+15
1.20925963694521e+15
1.20291332806698e+15
1.19675127586413e+15
1.19076617646301e+15
1.1849565056145e+15
1.17932073493595e+15
1.17384350157495e+15
1.16853310762269e+15
1.16338165101064e+15
1.1583943164629e+15
1.15355787495417e+15
1.14887439778487e+15
1.14433484946866e+15
1.13993613163676e+15
1.13567363490058e+15
1.13153886791894e+15
1.12752782330806e+15
1.1236290350533e+15
1.11984747742031e+15
1.11617428799842e+15
1.11261351686376e+15
1.10915132537266e+15
1.10579303046586e+15
1.10252615979522e+15
1.099348864704e+15
1.09625902221189e+15
1.09325623964258e+15
1.09034209188606e+15
1.08750982454621e+15
1.08475786477608e+15
1.08204549847614e+15
1.07922944834771e+15
1.0763748820351e+15
1.07358706143237e+15
1.07085527303236e+15
1.06818823473569e+15
1.06558815919497e+15
1.06304516764465e+15
1.06019487862336e+15
1.05724617003996e+15
1.05436817784432e+15
1.05156624295901e+15
1.04828286797214e+15
1.04493775669654e+15
1.04146240336146e+15
1.03744555734305e+15
1.03300000562369e+15
1.02788115081425e+15
1.02165557350321e+15
)
;

boundaryField
{
    electrode
    {
        type            zeroGradient;
    }
    ground
    {
        type            zeroGradient;
    }
    otherfaces
    {
        type            empty;
    }
}


// ************************************************************************* //
