/*--------------------------------*- C++ -*----------------------------------*\
| =========                 |                                                 |
| \\      /  F ield         | foam-extend: Open Source CFD                    |
|  \\    /   O peration     | Version:     4.0                                |
|   \\  /    A nd           | Web:         http://www.foam-extend.org         |
|    \\/     M anipulation  |                                                 |
\*---------------------------------------------------------------------------*/
FoamFile
{
    version     2.0;
    format      ascii;
    class       volVectorField;
    location    "6.4e-06";
    object      E;
}
// * * * * * * * * * * * * * * * * * * * * * * * * * * * * * * * * * * * * * //

dimensions      [0 0 0 1 0 0 0];

internalField   nonuniform List<vector> 
300
(
(5.40707261881269 -0 -0)
(10.7596381554442 -0 -0)
(19.0006243822039 -0 -0)
(26.6138598492563 -0 -0)
(34.1805083403639 -0 -0)
(41.8140423785744 -0 -0)
(49.4406218382043 -0 -0)
(57.0818597347966 -0 -0)
(64.7384916424583 -0 -0)
(72.4108603161751 -0 -0)
(80.1011571904804 -0 -0)
(87.8109494617538 -0 -0)
(95.5418941753226 -0 -0)
(103.295687207958 -0 -0)
(111.074024698733 -0 -0)
(118.878622766551 -0 -0)
(126.711215212014 -0 -0)
(134.573554366748 -0 -0)
(142.46741260049 -0 -0)
(150.394583332822 -0 -0)
(158.356882211387 -0 -0)
(166.356148215142 -0 -0)
(174.394244861761 -0 -0)
(182.473061323409 -0 -0)
(190.594513629907 -0 -0)
(198.760545792871 -0 -0)
(206.973131029744 -0 -0)
(215.234272966938 -0 -0)
(223.546006788972 -0 -0)
(231.910400474991 -0 -0)
(240.32955607686 -0 -0)
(248.805610918118 -0 -0)
(257.340738847614 -0 -0)
(265.937151533474 -0 -0)
(274.597099787721 -0 -0)
(283.322874819499 -0 -0)
(292.11680964983 -0 -0)
(300.981280440476 -0 -0)
(309.918707880362 -0 -0)
(318.931558687706 -0 -0)
(328.02234696393 -0 -0)
(337.193635775758 -0 -0)
(346.448038669767 -0 -0)
(355.788221230377 -0 -0)
(365.216902728539 -0 -0)
(374.736857811126 -0 -0)
(384.350918179655 -0 -0)
(394.061974430576 -0 -0)
(403.872977894389 -0 -0)
(413.786942510181 -0 -0)
(423.806946861549 -0 -0)
(433.936136227983 -0 -0)
(444.177724709305 -0 -0)
(454.534997482205 -0 -0)
(465.011313105546 -0 -0)
(475.61010598209 -0 -0)
(486.33488883986 -0 -0)
(497.1892554329 -0 -0)
(508.176883277822 -0 -0)
(519.301536551548 -0 -0)
(530.56706905424 -0 -0)
(541.977427470532 -0 -0)
(553.536654912595 -0 -0)
(565.248894511594 -0 -0)
(577.11839278734 -0 -0)
(589.149502021382 -0 -0)
(601.346682012407 -0 -0)
(613.714507854844 -0 -0)
(626.257692641688 -0 -0)
(638.981112642604 -0 -0)
(651.889766554874 -0 -0)
(664.988587836886 -0 -0)
(678.282272011176 -0 -0)
(691.775827958568 -0 -0)
(705.476462331616 -0 -0)
(719.394529963347 -0 -0)
(733.539713787399 -0 -0)
(747.918890291258 -0 -0)
(762.538241017093 -0 -0)
(777.40408080102 -0 -0)
(792.522925989557 -0 -0)
(807.90151795193 -0 -0)
(823.546839344273 -0 -0)
(839.466125925141 -0 -0)
(855.666877965039 -0 -0)
(872.156871951732 -0 -0)
(888.9441729638 -0 -0)
(906.037147990845 -0 -0)
(923.444480091331 -0 -0)
(941.175183584533 -0 -0)
(959.238620318423 -0 -0)
(977.64451703739 -0 -0)
(996.402983988273 -0 -0)
(1015.52453486013 -0 -0)
(1035.02010802816 -0 -0)
(1054.901089373 -0 -0)
(1075.1793366502 -0 -0)
(1095.86720556365 -0 -0)
(1116.97757774764 -0 -0)
(1138.52389063984 -0 -0)
(1160.52016958778 -0 -0)
(1182.98106215483 -0 -0)
(1205.92187503332 -0 -0)
(1229.35861354121 -0 -0)
(1253.30802408797 -0 -0)
(1277.78763976417 -0 -0)
(1302.81582938045 -0 -0)
(1328.41185014622 -0 -0)
(1354.59590445016 -0 -0)
(1381.38920101033 -0 -0)
(1408.8140207509 -0 -0)
(1436.89378792073 -0 -0)
(1465.65314691869 -0 -0)
(1495.11804524453 -0 -0)
(1525.31582336012 -0 -0)
(1556.27531189081 -0 -0)
(1588.02693709537 -0 -0)
(1620.60283525348 -0 -0)
(1654.03697692074 -0 -0)
(1688.36530209954 -0 -0)
(1723.62586742128 -0 -0)
(1759.85900651813 -0 -0)
(1797.10750514164 -0 -0)
(1835.41679249244 -0 -0)
(1874.83515058613 -0 -0)
(1915.41394366245 -0 -0)
(1957.20786994052 -0 -0)
(2000.27523816165 -0 -0)
(2044.67827209946 -0 -0)
(2090.48344595753 -0 -0)
(2137.76185478227 -0 -0)
(2186.58962394832 -0 -0)
(2237.04836270654 -0 -0)
(2289.22566738269 -0 -0)
(2343.21568061022 -0 -0)
(2399.11971417918 -0 -0)
(2457.04694357507 -0 -0)
(2517.11518456127 -0 -0)
(2579.45176323522 -0 -0)
(2644.19449218736 -0 -0)
(2711.49276636235 -0 -0)
(2781.50880329317 -0 -0)
(2854.41905031545 -0 -0)
(2930.41573576102 -0 -0)
(3009.70868033796 -0 -0)
(3092.52746244014 -0 -0)
(3179.12351734289 -0 -0)
(3269.77262577913 -0 -0)
(3364.77913701138 -0 -0)
(3464.47895518025 -0 -0)
(3569.23906149509 -0 -0)
(3679.46988386386 -0 -0)
(3795.64379714599 -0 -0)
(3918.28592432487 -0 -0)
(4047.96880668972 -0 -0)
(4185.32983029644 -0 -0)
(4331.08825906895 -0 -0)
(4486.04613319994 -0 -0)
(4651.12997932357 -0 -0)
(4827.34770664209 -0 -0)
(5015.92341793682 -0 -0)
(5218.13670130625 -0 -0)
(5435.62967695643 -0 -0)
(5670.07947172035 -0 -0)
(5924.17037090158 -0 -0)
(6203.71499052055 -0 -0)
(6513.91205139802 -0 -0)
(6857.24799950964 -0 -0)
(7237.01766027003 -0 -0)
(7658.43240855259 -0 -0)
(8129.35103840846 -0 -0)
(8658.93098433815 -0 -0)
(9257.81540994882 -0 -0)
(9937.05804715018 -0 -0)
(10701.7285028012 -0 -0)
(11559.2612615876 -0 -0)
(12528.1942344512 -0 -0)
(13621.467361484 -0 -0)
(14842.1437194235 -0 -0)
(16205.1049784326 -0 -0)
(17725.2760715554 -0 -0)
(19400.6643446854 -0 -0)
(21240.8155049431 -0 -0)
(23251.542249741 -0 -0)
(25422.1149207096 -0 -0)
(27751.8418704867 -0 -0)
(30235.3497375854 -0 -0)
(32848.9013248626 -0 -0)
(35580.5712680815 -0 -0)
(38420.2833601345 -0 -0)
(41337.187190579 -0 -0)
(44307.3892771789 -0 -0)
(47323.1616814735 -0 -0)
(50368.5918842358 -0 -0)
(53417.8990934468 -0 -0)
(56456.8365077355 -0 -0)
(59485.4161093715 -0 -0)
(62503.2330515593 -0 -0)
(65513.0664295886 -0 -0)
(68510.466086723 -0 -0)
(71496.7377957472 -0 -0)
(74496.8472894797 -0 -0)
(77519.0108292325 -0 -0)
(80561.8695033072 -0 -0)
(83616.1200229725 -0 -0)
(86663.6031703066 -0 -0)
(89692.0599774894 -0 -0)
(92693.4676555394 -0 -0)
(95665.6288020062 -0 -0)
(98608.7359623225 -0 -0)
(101524.370557559 -0 -0)
(104414.766429956 -0 -0)
(107282.51386822 -0 -0)
(110123.43564982 -0 -0)
(112933.112123015 -0 -0)
(115713.658961949 -0 -0)
(118467.641150328 -0 -0)
(121197.438400772 -0 -0)
(123905.277748009 -0 -0)
(126593.224802799 -0 -0)
(129263.215204632 -0 -0)
(131917.023014222 -0 -0)
(134556.300241599 -0 -0)
(137182.563860199 -0 -0)
(139797.23602738 -0 -0)
(142396.807577177 -0 -0)
(144977.942688864 -0 -0)
(147541.843027577 -0 -0)
(150089.635161042 -0 -0)
(152622.329980645 -0 -0)
(155140.886922062 -0 -0)
(157646.168784249 -0 -0)
(160139.006618199 -0 -0)
(162620.155175626 -0 -0)
(165090.348314275 -0 -0)
(167550.252028987 -0 -0)
(170000.521050948 -0 -0)
(172441.748926925 -0 -0)
(174874.520954244 -0 -0)
(177299.36774441 -0 -0)
(179716.817626772 -0 -0)
(182126.820391876 -0 -0)
(184526.707955575 -0 -0)
(186914.361629173 -0 -0)
(189290.234251271 -0 -0)
(191654.728935444 -0 -0)
(194008.250847492 -0 -0)
(196351.162712038 -0 -0)
(198683.836616026 -0 -0)
(201006.604995493 -0 -0)
(203319.813487985 -0 -0)
(205623.773683441 -0 -0)
(207918.810196236 -0 -0)
(210205.213975466 -0 -0)
(212483.288655641 -0 -0)
(214753.308765929 -0 -0)
(217015.5610319 -0 -0)
(219270.302877988 -0 -0)
(221517.80615693 -0 -0)
(223758.314314463 -0 -0)
(225992.088453968 -0 -0)
(228219.358361579 -0 -0)
(230440.373210319 -0 -0)
(232655.351548628 -0 -0)
(234864.531606922 -0 -0)
(237067.358776805 -0 -0)
(239262.058976467 -0 -0)
(241447.597531135 -0 -0)
(243624.208178323 -0 -0)
(245792.095798744 -0 -0)
(247951.480552159 -0 -0)
(250102.557419824 -0 -0)
(252245.53478297 -0 -0)
(254380.601769591 -0 -0)
(256507.955520562 -0 -0)
(258627.775509554 -0 -0)
(260740.248264633 -0 -0)
(262845.542265459 -0 -0)
(264943.835493958 -0 -0)
(267035.287075587 -0 -0)
(269120.064154956 -0 -0)
(271198.319166117 -0 -0)
(273270.21191512 -0 -0)
(275335.88862248 -0 -0)
(277395.501999146 -0 -0)
(279449.187625922 -0 -0)
(281497.091584503 -0 -0)
(283539.344957759 -0 -0)
(285576.088635064 -0 -0)
(287607.448024664 -0 -0)
(289633.557561605 -0 -0)
(291654.530243617 -0 -0)
(293670.490039544 -0 -0)
(295681.547128568 -0 -0)
(297687.816473785 -0 -0)
(299689.39435845 -0 -0)
(301686.384591052 -0 -0)
(303678.862515823 -0 -0)
(305666.91570935 -0 -0)
(307648.847183362 -0 -0)
)
;

boundaryField
{
    electrode
    {
        type            calculated;
        value           uniform (4.42545259147665 -0 -0);
    }
    ground
    {
        type            calculated;
        value           uniform (308637.536510449 -0 -0);
    }
    otherfaces
    {
        type            empty;
    }
}


// ************************************************************************* //
