/*--------------------------------*- C++ -*----------------------------------*\
| =========                 |                                                 |
| \\      /  F ield         | foam-extend: Open Source CFD                    |
|  \\    /   O peration     | Version:     4.0                                |
|   \\  /    A nd           | Web:         http://www.foam-extend.org         |
|    \\/     M anipulation  |                                                 |
\*---------------------------------------------------------------------------*/
FoamFile
{
    version     2.0;
    format      ascii;
    class       volScalarField;
    location    "6.4e-06";
    object      electron;
}
// * * * * * * * * * * * * * * * * * * * * * * * * * * * * * * * * * * * * * //

dimensions      [0 0 0 1 0 0 0];

internalField   nonuniform List<scalar> 
300
(
6.37236251751179e+16
6.37220259627139e+16
6.37178173413183e+16
6.37106133607417e+16
6.3700473529793e+16
6.36873742970372e+16
6.36713103425725e+16
6.36522810285396e+16
6.36302832882191e+16
6.36053144961199e+16
6.35773718310226e+16
6.35464522289177e+16
6.35125524419938e+16
6.3475669017838e+16
6.34357983000218e+16
6.33929364278237e+16
6.33470793345155e+16
6.32982227461954e+16
6.32463621804956e+16
6.3191492945259e+16
6.31336101372092e+16
6.3072708640614e+16
6.300878312595e+16
6.29418280485752e+16
6.28718376474231e+16
6.27988059437272e+16
6.27227267397866e+16
6.26435936177724e+16
6.25613999386e+16
6.24761388408758e+16
6.23878032399139e+16
6.22963858268421e+16
6.22018790678178e+16
6.21042752033543e+16
6.20035662477633e+16
6.18997439887382e+16
6.179279998708e+16
6.1682725576574e+16
6.15695118640406e+16
6.14531497295527e+16
6.13336298268448e+16
6.12109425839221e+16
6.1085078203868e+16
6.09560266658737e+16
6.08237777264944e+16
6.06883209211347e+16
6.05496455657825e+16
6.04077407589957e+16
6.02625953841417e+16
6.01141981119118e+16
5.99625374031104e+16
5.98076015117191e+16
5.96493784882539e+16
5.94878561834158e+16
5.93230222520384e+16
5.91548641573382e+16
5.89833691754739e+16
5.88085244004166e+16
5.86303167491308e+16
5.84487329670769e+16
5.82637596340399e+16
5.80753831702736e+16
5.78835898429244e+16
5.76883657727432e+16
5.74896969411707e+16
5.72875691979933e+16
5.70819682697249e+16
5.68728797678932e+16
5.66602891946899e+16
5.64441819448918e+16
5.62245433139139e+16
5.60013585374843e+16
5.57746128678545e+16
5.55442915753031e+16
5.53103796171416e+16
5.5072860941366e+16
5.4831718208737e+16
5.45869333591419e+16
5.43384881912095e+16
5.40863645458682e+16
5.38305443583239e+16
5.35710096772718e+16
5.33077426740709e+16
5.30407256492806e+16
5.27699410387101e+16
5.24953714195903e+16
5.22169995170364e+16
5.19348082108052e+16
5.16487805423167e+16
5.1358899721905e+16
5.10651491362432e+16
5.07675123559001e+16
5.04659731429791e+16
5.01605154587854e+16
4.98511234714759e+16
4.95377815636433e+16
4.92204743397795e+16
4.88991866335741e+16
4.85739035149907e+16
4.82446102970727e+16
4.79112925424242e+16
4.75739360693166e+16
4.72325269573608e+16
4.68870515526912e+16
4.65374964726085e+16
4.61838486096201e+16
4.58260951348166e+16
4.54642235005286e+16
4.50982214421989e+16
4.47280769793984e+16
4.43537784159253e+16
4.39753143389177e+16
4.35926736169001e+16
4.3205845396694e+16
4.28148190991083e+16
4.24195844133257e+16
4.20201312898977e+16
4.16164499322474e+16
4.12085307865914e+16
4.07963645301679e+16
4.03799420576546e+16
3.99592544656598e+16
3.95342930351558e+16
3.91050492117097e+16
3.86715145833632e+16
3.82336808559992e+16
3.77915398260119e+16
3.73450833500946e+16
3.68943033119285e+16
3.64391915855451e+16
3.59797399951182e+16
3.55159402709074e+16
3.5047784001057e+16
3.45752625789266e+16
3.40983671456007e+16
3.36170885271813e+16
3.31314171664535e+16
3.26413430484711e+16
3.21468556195277e+16
3.16479436989761e+16
3.11445953834645e+16
3.0636797942866e+16
3.01245377063821e+16
2.96077999403707e+16
2.90865687173992e+16
2.85608267654095e+16
2.80305553111558e+16
2.74957339379668e+16
2.69563403736633e+16
2.64123502139834e+16
2.5863736915477e+16
2.53104715529666e+16
2.47525213202236e+16
2.41898483378012e+16
2.36224102604053e+16
2.30501610762342e+16
2.24730508822414e+16
2.18910260559374e+16
2.13040282452602e+16
2.07119955393506e+16
2.01148602154518e+16
1.95125505371358e+16
1.89049864421821e+16
1.82920738266108e+16
1.76736787187054e+16
1.70494869662758e+16
1.64189661158257e+16
1.57815782105638e+16
1.51369092719794e+16
1.44846204118479e+16
1.38243577784194e+16
1.31557214639297e+16
1.24783215235283e+16
1.17918844598508e+16
1.10965701316576e+16
1.03931913131723e+16
9.68297853082799e+15
8.96762083639765e+15
8.2496904966633e+15
7.53270010148814e+15
6.8209427864649e+15
6.11970605849255e+15
5.43514556068638e+15
4.77387792065273e+15
4.14287848460036e+15
3.54904093667922e+15
2.99860191052777e+15
2.49683539905948e+15
2.04761095377057e+15
1.65299377134225e+15
1.3132105370017e+15
1.02670071850634e+15
790234948432457
599209421492469
447978454482790
330760854555566
241676533644599
175015431191717
125564821484865
87845199839433.2
60006755102330.7
40280640409148.5
26050207534918.9
16131090017812.4
9725759473110.52
5918281124574.4
3789550776510.5
2625955274959.06
1984112403093.69
1620865333672.02
1409730137053.12
1285044306704.27
1211174930999.81
1168100230014.35
1144069474103.08
1131870394976.17
1126753730260.2
1125536973713.68
1126251881601.59
1127656993276.25
1128748853368.72
1128939241839.3
1127812071666.16
1125104112438.09
1120678049844.65
1114481247412.4
1106523855540.56
1096860528249.26
1085576986195.78
1072780831510.79
1058594428616.32
1043149379903.47
1026582164690.39
1009030694336.18
990631597288.958
971518100498.057
951818375855.802
931654334594.366
911140346833.939
890383021667.512
869473557187.139
848491104864.059
827516677961.219
806629764155.467
785902086601.319
765397220846.985
745170627166.985
725270074136.545
705736118779.049
686602627807.086
667897308769.926
649642246722.041
631854424243.23
614546323968.199
597726355409.923
581401072736.257
565571021712.902
550230637468.612
535376996019.598
521006524479.897
507111780715.202
493683965009.438
480713000981.754
468187912657.172
456097040922.594
444428321152.417
433169629848.607
422308891156.771
411833990200.367
401732161470.249
391990549247.958
382584690555.936
373491193759.504
364699426368.244
356199716665.488
347983581298.338
340043062505.843
332370797713.281
324960043706.094
317804758773.585
310899625852.901
304240196888.957
297821690366.992
291639557001.044
285662358551.216
279861161916.864
274243035074.199
268822025613.407
263614165477.94
258627262948.237
253828839904.791
249210983771.223
244829357012.822
240699952986.871
236845609887.715
233359401575.793
230376846835.361
228175673999.733
227241185982.294
228404529542.952
)
;

boundaryField
{
    electrode
    {
        type            driftDiffusionElectronDensity;
        seec            0.05;
        Edepend         1;
        field_emission  0;
        field_enhancement_factor 55;
        work_function   5;
        value           uniform 6.37236251751179e+16;
    }
    ground
    {
        type            driftDiffusionElectronDensity;
        seec            0.05;
        Edepend         1;
        field_emission  0;
        field_enhancement_factor 55;
        work_function   5;
        value           uniform 230631322378.621;
    }
    otherfaces
    {
        type            empty;
    }
}


// ************************************************************************* //
