/*--------------------------------*- C++ -*----------------------------------*\
| =========                 |                                                 |
| \\      /  F ield         | foam-extend: Open Source CFD                    |
|  \\    /   O peration     | Version:     4.0                                |
|   \\  /    A nd           | Web:         http://www.foam-extend.org         |
|    \\/     M anipulation  |                                                 |
\*---------------------------------------------------------------------------*/
FoamFile
{
    version     2.0;
    format      ascii;
    class       volVectorField;
    location    "6.4e-06";
    object      J_Arp1;
}
// * * * * * * * * * * * * * * * * * * * * * * * * * * * * * * * * * * * * * //

dimensions      [1 -1 -1 0 0 0 0];

internalField   nonuniform List<vector> 
300
(
(1.8911189516668e+16 -0 -0)
(6.83371404739312e+16 -0 -0)
(1.22319467635436e+17 -0 -0)
(1.70056285739826e+17 -0 -0)
(2.18505021386482e+17 -0 -0)
(2.67249115276508e+17 -0 -0)
(3.15864812700527e+17 -0 -0)
(3.64537338627252e+17 -0 -0)
(4.13238453063464e+17 -0 -0)
(4.61967941012951e+17 -0 -0)
(5.10733039133032e+17 -0 -0)
(5.59536056153144e+17 -0 -0)
(6.08380476988244e+17 -0 -0)
(6.57269782120531e+17 -0 -0)
(7.06207372208199e+17 -0 -0)
(7.55196692251664e+17 -0 -0)
(8.04241194156767e+17 -0 -0)
(8.53344340794472e+17 -0 -0)
(9.02509608106527e+17 -0 -0)
(9.51740484331559e+17 -0 -0)
(1.00104047040179e+18 -0 -0)
(1.05041307954778e+18 -0 -0)
(1.09986183742788e+18 -0 -0)
(1.14939028143655e+18 -0 -0)
(1.19900196035518e+18 -0 -0)
(1.24870043333718e+18 -0 -0)
(1.29848926922747e+18 -0 -0)
(1.34837204552701e+18 -0 -0)
(1.39835234681325e+18 -0 -0)
(1.44843376340504e+18 -0 -0)
(1.49861989000297e+18 -0 -0)
(1.54891432361632e+18 -0 -0)
(1.59932066150286e+18 -0 -0)
(1.64984249903241e+18 -0 -0)
(1.70048342749318e+18 -0 -0)
(1.75124703108653e+18 -0 -0)
(1.8021368845726e+18 -0 -0)
(1.85315655010052e+18 -0 -0)
(1.90430957397276e+18 -0 -0)
(1.95559948374829e+18 -0 -0)
(2.00702978411617e+18 -0 -0)
(2.0586039536894e+18 -0 -0)
(2.1103254409908e+18 -0 -0)
(2.16219766032108e+18 -0 -0)
(2.2142239876691e+18 -0 -0)
(2.26640775642025e+18 -0 -0)
(2.31875225257533e+18 -0 -0)
(2.3712607103715e+18 -0 -0)
(2.42393630740145e+18 -0 -0)
(2.47678215946543e+18 -0 -0)
(2.52980131574578e+18 -0 -0)
(2.58299675353044e+18 -0 -0)
(2.63637137280618e+18 -0 -0)
(2.68992799094594e+18 -0 -0)
(2.7436693370477e+18 -0 -0)
(2.79759804654749e+18 -0 -0)
(2.85171665521541e+18 -0 -0)
(2.90602759364739e+18 -0 -0)
(2.96053318130758e+18 -0 -0)
(3.01523562061675e+18 -0 -0)
(3.07013699046759e+18 -0 -0)
(3.12523924081465e+18 -0 -0)
(3.18054418791044e+18 -0 -0)
(3.23605350857221e+18 -0 -0)
(3.29176873298229e+18 -0 -0)
(3.34769123001633e+18 -0 -0)
(3.40382218618467e+18 -0 -0)
(3.4601626170163e+18 -0 -0)
(3.51671346580897e+18 -0 -0)
(3.57347573069391e+18 -0 -0)
(3.63045022659995e+18 -0 -0)
(3.68763646682657e+18 -0 -0)
(3.7450314889208e+18 -0 -0)
(3.80263268794411e+18 -0 -0)
(3.86044895271553e+18 -0 -0)
(3.91850732433061e+18 -0 -0)
(3.97682571789614e+18 -0 -0)
(4.03540566258633e+18 -0 -0)
(4.09424487265546e+18 -0 -0)
(4.15334045832872e+18 -0 -0)
(4.21268921934518e+18 -0 -0)
(4.27228776843883e+18 -0 -0)
(4.33213256571662e+18 -0 -0)
(4.39221992089369e+18 -0 -0)
(4.45254598804508e+18 -0 -0)
(4.51310675786894e+18 -0 -0)
(4.57389804950585e+18 -0 -0)
(4.63491550327698e+18 -0 -0)
(4.69615457357048e+18 -0 -0)
(4.75761052245273e+18 -0 -0)
(4.81927841396564e+18 -0 -0)
(4.88115310887164e+18 -0 -0)
(4.94322926007965e+18 -0 -0)
(5.00550130878518e+18 -0 -0)
(5.06796348085232e+18 -0 -0)
(5.13060978408493e+18 -0 -0)
(5.19343400582628e+18 -0 -0)
(5.25642971108605e+18 -0 -0)
(5.31959024141194e+18 -0 -0)
(5.38290871384474e+18 -0 -0)
(5.44637802084721e+18 -0 -0)
(5.50999083016161e+18 -0 -0)
(5.57373958563985e+18 -0 -0)
(5.63761650810583e+18 -0 -0)
(5.70161359683992e+18 -0 -0)
(5.76572263131291e+18 -0 -0)
(5.82993517351721e+18 -0 -0)
(5.89424257029901e+18 -0 -0)
(5.95863595629881e+18 -0 -0)
(6.02310625723519e+18 -0 -0)
(6.08764419318708e+18 -0 -0)
(6.15224028227522e+18 -0 -0)
(6.21688484475363e+18 -0 -0)
(6.28156800686946e+18 -0 -0)
(6.34627970534433e+18 -0 -0)
(6.4110096916342e+18 -0 -0)
(6.47574753661209e+18 -0 -0)
(6.54048263506614e+18 -0 -0)
(6.60520421029144e+18 -0 -0)
(6.66990131872027e+18 -0 -0)
(6.73456285460212e+18 -0 -0)
(6.7991775543664e+18 -0 -0)
(6.86373400111114e+18 -0 -0)
(6.92822062879615e+18 -0 -0)
(6.99262572629547e+18 -0 -0)
(7.0569374411243e+18 -0 -0)
(7.121143782998e+18 -0 -0)
(7.18523262680641e+18 -0 -0)
(7.24919171568463e+18 -0 -0)
(7.31300866299309e+18 -0 -0)
(7.37667095439062e+18 -0 -0)
(7.44016594900211e+18 -0 -0)
(7.50348088022123e+18 -0 -0)
(7.56660285573122e+18 -0 -0)
(7.6295188568414e+18 -0 -0)
(7.69221573759368e+18 -0 -0)
(7.75468022165218e+18 -0 -0)
(7.81689889995297e+18 -0 -0)
(7.87885822758129e+18 -0 -0)
(7.94054452070816e+18 -0 -0)
(8.00194393757236e+18 -0 -0)
(8.06304248503027e+18 -0 -0)
(8.12382607720628e+18 -0 -0)
(8.18428029628252e+18 -0 -0)
(8.24439054503097e+18 -0 -0)
(8.30414269307036e+18 -0 -0)
(8.36352146571154e+18 -0 -0)
(8.42251008160538e+18 -0 -0)
(8.48109650502792e+18 -0 -0)
(8.53926897569811e+18 -0 -0)
(8.59699130284225e+18 -0 -0)
(8.65425640012387e+18 -0 -0)
(8.71111000835968e+18 -0 -0)
(8.76754662188975e+18 -0 -0)
(8.8235503578795e+18 -0 -0)
(8.8790957712427e+18 -0 -0)
(8.9341958624388e+18 -0 -0)
(8.9887464351844e+18 -0 -0)
(9.0429349637556e+18 -0 -0)
(9.09630842401659e+18 -0 -0)
(9.14966407395979e+18 -0 -0)
(9.20161124561551e+18 -0 -0)
(9.25424658517967e+18 -0 -0)
(9.30446976510822e+18 -0 -0)
(9.3559466363303e+18 -0 -0)
(9.40643790019396e+18 -0 -0)
(9.45612477332293e+18 -0 -0)
(9.50488819195771e+18 -0 -0)
(9.55374690143892e+18 -0 -0)
(9.60065099696362e+18 -0 -0)
(9.64923956494868e+18 -0 -0)
(9.69396127282833e+18 -0 -0)
(9.74271809649688e+18 -0 -0)
(9.78635121512757e+18 -0 -0)
(9.83027362257714e+18 -0 -0)
(9.8726107561043e+18 -0 -0)
(9.91940643198265e+18 -0 -0)
(9.95475532357736e+18 -0 -0)
(9.99543818234684e+18 -0 -0)
(1.00376045787298e+19 -0 -0)
(1.00712719037329e+19 -0 -0)
(1.01032231018293e+19 -0 -0)
(1.01477212198639e+19 -0 -0)
(1.0166496721217e+19 -0 -0)
(1.02066643696854e+19 -0 -0)
(1.02282909033612e+19 -0 -0)
(1.02617559457874e+19 -0 -0)
(1.02756812864595e+19 -0 -0)
(1.03154486819776e+19 -0 -0)
(1.03234854910521e+19 -0 -0)
(1.03577375861363e+19 -0 -0)
(1.03730568671333e+19 -0 -0)
(1.04105107496957e+19 -0 -0)
(1.0427648516578e+19 -0 -0)
(1.04712259871238e+19 -0 -0)
(1.05023980555444e+19 -0 -0)
(1.05650145679953e+19 -0 -0)
(1.06268039037878e+19 -0 -0)
(1.07371571129702e+19 -0 -0)
(1.08850106503301e+19 -0 -0)
(1.10921408697471e+19 -0 -0)
(1.13449717982227e+19 -0 -0)
(1.16088231060624e+19 -0 -0)
(1.18805716191721e+19 -0 -0)
(1.20707422785851e+19 -0 -0)
(1.22617414372153e+19 -0 -0)
(1.23879667392168e+19 -0 -0)
(1.24834741929505e+19 -0 -0)
(1.25585104856548e+19 -0 -0)
(1.26216276557155e+19 -0 -0)
(1.26767667225467e+19 -0 -0)
(1.27273488399872e+19 -0 -0)
(1.27753747153083e+19 -0 -0)
(1.28201859176171e+19 -0 -0)
(1.28669645026073e+19 -0 -0)
(1.29107018976368e+19 -0 -0)
(1.29572467556697e+19 -0 -0)
(1.30010585899164e+19 -0 -0)
(1.30481572753977e+19 -0 -0)
(1.30924866980205e+19 -0 -0)
(1.31403524102524e+19 -0 -0)
(1.31850799625575e+19 -0 -0)
(1.32332920347666e+19 -0 -0)
(1.32779466041026e+19 -0 -0)
(1.33263461964439e+19 -0 -0)
(1.33697616711147e+19 -0 -0)
(1.34188255814431e+19 -0 -0)
(1.34614196638794e+19 -0 -0)
(1.35099561692291e+19 -0 -0)
(1.35514192249691e+19 -0 -0)
(1.35990650210153e+19 -0 -0)
(1.36390825204631e+19 -0 -0)
(1.36856048543916e+19 -0 -0)
(1.37240481659235e+19 -0 -0)
(1.37693377108957e+19 -0 -0)
(1.38060999653769e+19 -0 -0)
(1.38500765596668e+19 -0 -0)
(1.38850793438432e+19 -0 -0)
(1.39276323610049e+19 -0 -0)
(1.39607786886332e+19 -0 -0)
(1.40018352159631e+19 -0 -0)
(1.40330279868704e+19 -0 -0)
(1.40722112774575e+19 -0 -0)
(1.41017090388157e+19 -0 -0)
(1.41391472672346e+19 -0 -0)
(1.41665249354009e+19 -0 -0)
(1.42022585321541e+19 -0 -0)
(1.42275396359272e+19 -0 -0)
(1.42616487467152e+19 -0 -0)
(1.42849156656716e+19 -0 -0)
(1.43175042886646e+19 -0 -0)
(1.43389041245895e+19 -0 -0)
(1.43700962178981e+19 -0 -0)
(1.43897357933657e+19 -0 -0)
(1.44196148808513e+19 -0 -0)
(1.44376134904817e+19 -0 -0)
(1.44662797463283e+19 -0 -0)
(1.44827185885472e+19 -0 -0)
(1.45102575208261e+19 -0 -0)
(1.45252281972201e+19 -0 -0)
(1.45517583079724e+19 -0 -0)
(1.45653249283876e+19 -0 -0)
(1.45909229393814e+19 -0 -0)
(1.4603159064453e+19 -0 -0)
(1.46279075392741e+19 -0 -0)
(1.46388080076926e+19 -0 -0)
(1.46628724845911e+19 -0 -0)
(1.46726789477894e+19 -0 -0)
(1.4695971128014e+19 -0 -0)
(1.47046181198093e+19 -0 -0)
(1.47272157312903e+19 -0 -0)
(1.47347911281062e+19 -0 -0)
(1.47567495854066e+19 -0 -0)
(1.47633812997608e+19 -0 -0)
(1.47847432371059e+19 -0 -0)
(1.47904903682117e+19 -0 -0)
(1.48112921589638e+19 -0 -0)
(1.48161786912679e+19 -0 -0)
(1.48364697048287e+19 -0 -0)
(1.48405279846606e+19 -0 -0)
(1.48603111281567e+19 -0 -0)
(1.48635976100785e+19 -0 -0)
(1.48829133781703e+19 -0 -0)
(1.48854809553344e+19 -0 -0)
(1.49043591969163e+19 -0 -0)
(1.49061862362729e+19 -0 -0)
(1.49246558298167e+19 -0 -0)
(1.49257957429437e+19 -0 -0)
(1.49438979914077e+19 -0 -0)
(1.49443827662732e+19 -0 -0)
(1.49621274634437e+19 -0 -0)
(1.49618802243952e+19 -0 -0)
(1.49792127680424e+19 -0 -0)
(1.49782855865321e+19 -0 -0)
(1.49951651513555e+19 -0 -0)
(1.49934429779492e+19 -0 -0)
(1.50097923066981e+19 -0 -0)
(1.50070461537049e+19 -0 -0)
(1.50225848453848e+19 -0 -0)
(1.49972358549506e+19 -0 -0)
)
;

boundaryField
{
    electrode
    {
        type            calculated;
        value           uniform (-13417296875.7697 -0 -0);
    }
    ground
    {
        type            calculated;
        value           uniform (1.5025505602248e+19 -0 -0);
    }
    otherfaces
    {
        type            empty;
    }
}


// ************************************************************************* //
