/*--------------------------------*- C++ -*----------------------------------*\
| =========                 |                                                 |
| \\      /  F ield         | foam-extend: Open Source CFD                    |
|  \\    /   O peration     | Version:     4.0                                |
|   \\  /    A nd           | Web:         http://www.foam-extend.org         |
|    \\/     M anipulation  |                                                 |
\*---------------------------------------------------------------------------*/
FoamFile
{
    version     2.0;
    format      ascii;
    class       volVectorField;
    location    "6.4e-06";
    object      J_electron;
}
// * * * * * * * * * * * * * * * * * * * * * * * * * * * * * * * * * * * * * //

dimensions      [1 -1 -1 0 0 0 0];

internalField   nonuniform List<vector> 
300
(
(-1.3173279435454e+19 0 0)
(-1.35188414276228e+19 0 0)
(-1.59698780736238e+19 0 0)
(-1.5486503480691e+19 0 0)
(-1.54869239658545e+19 0 0)
(-1.54731644461962e+19 0 0)
(-1.54107322363338e+19 0 0)
(-1.53639484515513e+19 0 0)
(-1.53147688431565e+19 0 0)
(-1.52649689185474e+19 0 0)
(-1.52155005885085e+19 0 0)
(-1.51658966599787e+19 0 0)
(-1.51162470504886e+19 0 0)
(-1.50665536975735e+19 0 0)
(-1.50168033548019e+19 0 0)
(-1.49669952394626e+19 0 0)
(-1.49171252714785e+19 0 0)
(-1.48671895436732e+19 0 0)
(-1.48171843595464e+19 0 0)
(-1.47671059042129e+19 0 0)
(-1.47169504405693e+19 0 0)
(-1.46667141415364e+19 0 0)
(-1.46163932716808e+19 0 0)
(-1.4565984025049e+19 0 0)
(-1.45154826728661e+19 0 0)
(-1.44648854203678e+19 0 0)
(-1.44141885079207e+19 0 0)
(-1.43633882254732e+19 0 0)
(-1.43124808156247e+19 0 0)
(-1.42614625113746e+19 0 0)
(-1.421032962178e+19 0 0)
(-1.41590784427621e+19 0 0)
(-1.41077052757648e+19 0 0)
(-1.40562064207454e+19 0 0)
(-1.40045782763307e+19 0 0)
(-1.39528171487692e+19 0 0)
(-1.39009194562562e+19 0 0)
(-1.3848881608116e+19 0 0)
(-1.37966999868298e+19 0 0)
(-1.37443711666209e+19 0 0)
(-1.36918915616221e+19 0 0)
(-1.36392577236595e+19 0 0)
(-1.35864662569458e+19 0 0)
(-1.35335137581846e+19 0 0)
(-1.34803968762994e+19 0 0)
(-1.34271123520954e+19 0 0)
(-1.33736568995227e+19 0 0)
(-1.3320027341933e+19 0 0)
(-1.32662205678766e+19 0 0)
(-1.32122334640894e+19 0 0)
(-1.31580630342149e+19 0 0)
(-1.31037063438745e+19 0 0)
(-1.3049160495276e+19 0 0)
(-1.29944227042028e+19 0 0)
(-1.2939490210536e+19 0 0)
(-1.28843604106753e+19 0 0)
(-1.28290306964099e+19 0 0)
(-1.27734986152912e+19 0 0)
(-1.27177617778061e+19 0 0)
(-1.26618179393647e+19 0 0)
(-1.26056648342739e+19 0 0)
(-1.25493002373806e+19 0 0)
(-1.24927221438003e+19 0 0)
(-1.24359289313729e+19 0 0)
(-1.23789197188583e+19 0 0)
(-1.23216938741229e+19 0 0)
(-1.2264246942223e+19 0 0)
(-1.22065667536081e+19 0 0)
(-1.2148643927706e+19 0 0)
(-1.20905121372737e+19 0 0)
(-1.2032280723543e+19 0 0)
(-1.19740077231193e+19 0 0)
(-1.19152883851427e+19 0 0)
(-1.18549825903248e+19 0 0)
(-1.17925199500002e+19 0 0)
(-1.17303830435867e+19 0 0)
(-1.16699371654315e+19 0 0)
(-1.16098514281444e+19 0 0)
(-1.15496350791615e+19 0 0)
(-1.14891748477855e+19 0 0)
(-1.14284358558949e+19 0 0)
(-1.13674095781206e+19 0 0)
(-1.13060952989416e+19 0 0)
(-1.12444944996756e+19 0 0)
(-1.11826093786525e+19 0 0)
(-1.11204423157484e+19 0 0)
(-1.10579956287181e+19 0 0)
(-1.09952716796393e+19 0 0)
(-1.09322727595405e+19 0 0)
(-1.08690010891978e+19 0 0)
(-1.0805458866829e+19 0 0)
(-1.07416482121248e+19 0 0)
(-1.06775711541882e+19 0 0)
(-1.06132297081846e+19 0 0)
(-1.05486257407666e+19 0 0)
(-1.0483761058845e+19 0 0)
(-1.04186373695461e+19 0 0)
(-1.03532562140281e+19 0 0)
(-1.02876190573383e+19 0 0)
(-1.02217271408591e+19 0 0)
(-1.01555816030908e+19 0 0)
(-1.00891833079263e+19 0 0)
(-1.00225329629092e+19 0 0)
(-9.95563098390816e+18 0 0)
(-9.88847751885383e+18 0 0)
(-9.82107237888085e+18 0 0)
(-9.75341506346457e+18 0 0)
(-9.68550463931207e+18 0 0)
(-9.61733974328502e+18 0 0)
(-9.54891854578398e+18 0 0)
(-9.48023866506556e+18 0 0)
(-9.41129710482542e+18 0 0)
(-9.34209025701e+18 0 0)
(-9.27261371985979e+18 0 0)
(-9.20286234297814e+18 0 0)
(-9.13283002871159e+18 0 0)
(-9.06250973406193e+18 0 0)
(-8.99189332941367e+18 0 0)
(-8.92097147190536e+18 0 0)
(-8.84973349309828e+18 0 0)
(-8.77816730259554e+18 0 0)
(-8.70625916386856e+18 0 0)
(-8.63399358753407e+18 0 0)
(-8.56135312882952e+18 0 0)
(-8.48831818024878e+18 0 0)
(-8.41486673767301e+18 0 0)
(-8.34097420606531e+18 0 0)
(-8.26661297696329e+18 0 0)
(-8.19175233017243e+18 0 0)
(-8.11635787273758e+18 0 0)
(-8.04039128160613e+18 0 0)
(-7.96380982361824e+18 0 0)
(-7.8865658527529e+18 0 0)
(-7.80860630138146e+18 0 0)
(-7.72987196102358e+18 0 0)
(-7.65029697353679e+18 0 0)
(-7.56980782700115e+18 0 0)
(-7.48832249518961e+18 0 0)
(-7.40574955782695e+18 0 0)
(-7.32198761734393e+18 0 0)
(-7.23692230732677e+18 0 0)
(-7.15042301383016e+18 0 0)
(-7.06235718350563e+18 0 0)
(-6.97256360601767e+18 0 0)
(-6.88082593148253e+18 0 0)
(-6.78700938368857e+18 0 0)
(-6.69094945966418e+18 0 0)
(-6.59207797291981e+18 0 0)
(-6.49018617995408e+18 0 0)
(-6.38617721151632e+18 0 0)
(-6.27749891513044e+18 0 0)
(-6.16018437842508e+18 0 0)
(-6.03859204638455e+18 0 0)
(-5.91556468348971e+18 0 0)
(-5.78819505770621e+18 0 0)
(-5.65350830766975e+18 0 0)
(-5.51481172737445e+18 0 0)
(-5.36186407007394e+18 0 0)
(-5.2126263619837e+18 0 0)
(-5.03185104149938e+18 0 0)
(-4.86946354241103e+18 0 0)
(-4.64610071846742e+18 0 0)
(-4.42800397548205e+18 0 0)
(-4.05337032749063e+18 0 0)
(-3.14461708234313e+18 0 0)
(-2.50030577439631e+18 0 0)
(-2.47250227637938e+18 0 0)
(-2.36088055601037e+18 0 0)
(-2.03488937155179e+18 0 0)
(-1.4072237648123e+18 0 0)
(-7.88137937943396e+17 0 0)
(-2.3662170598382e+17 0 0)
(1.0479922345463e+17 0 0)
(-5.63437647150711e+17 0 0)
(-1.0848452066421e+18 0 0)
(-5.24103368933638e+17 0 0)
(-9.1199113714362e+17 0 0)
(-2.06377284832172e+18 0 0)
(-2.61400213644116e+18 0 0)
(-2.94493536448519e+18 0 0)
(-4.39009665581318e+18 0 0)
(-4.4432483625772e+18 0 0)
(-4.27511092506473e+18 0 0)
(-4.27633380849143e+18 0 0)
(-2.88638186636077e+18 0 0)
(-1.01037004416038e+18 0 0)
(9.23388155117699e+17 0 0)
(3.74253683352797e+18 0 0)
(6.63191671284695e+18 0 0)
(8.89958778179053e+18 0 0)
(1.08547360861737e+19 0 0)
(1.21678638949783e+19 0 0)
(1.26848502668502e+19 0 0)
(1.2722977662687e+19 0 0)
(1.00341326509531e+19 0 0)
(9.48972770470802e+18 0 0)
(7.02513707046384e+18 0 0)
(5.58606024898458e+18 0 0)
(7.17086042935476e+18 0 0)
(-4.90897403818449e+18 0 0)
(2.14345136521091e+18 0 0)
(-8.97128622041686e+17 0 0)
(-2.24338837650534e+18 0 0)
(-2.16111313582624e+18 0 0)
(-2.10756922584975e+18 0 0)
(-2.23008072447743e+18 0 0)
(-2.49656146318249e+18 0 0)
(-2.74747820748592e+18 0 0)
(-2.90088090761427e+18 0 0)
(-2.97780943987825e+18 0 0)
(-3.00008370954911e+18 0 0)
(-2.98869589766986e+18 0 0)
(-2.96701561302035e+18 0 0)
(-2.93148696281653e+18 0 0)
(-2.89521483283227e+18 0 0)
(-2.8556652283749e+18 0 0)
(-2.811841827432e+18 0 0)
(-2.76549062369854e+18 0 0)
(-2.71892789141243e+18 0 0)
(-2.67119227531779e+18 0 0)
(-2.62447028762303e+18 0 0)
(-2.57709262714208e+18 0 0)
(-2.52929617523073e+18 0 0)
(-2.48125714504086e+18 0 0)
(-2.43321427879062e+18 0 0)
(-2.38526073567222e+18 0 0)
(-2.33749017568337e+18 0 0)
(-2.29001086752708e+18 0 0)
(-2.2429084529518e+18 0 0)
(-2.19626247715501e+18 0 0)
(-2.15014493347451e+18 0 0)
(-2.1046205007599e+18 0 0)
(-2.05974724372233e+18 0 0)
(-2.01557603746036e+18 0 0)
(-1.97215150969455e+18 0 0)
(-1.92951120418714e+18 0 0)
(-1.88768792265303e+18 0 0)
(-1.84670222312579e+18 0 0)
(-1.80658866752137e+18 0 0)
(-1.7672626283812e+18 0 0)
(-1.72895164029046e+18 0 0)
(-1.69157155815119e+18 0 0)
(-1.65502258360135e+18 0 0)
(-1.61936982431296e+18 0 0)
(-1.58460959094865e+18 0 0)
(-1.55073889989438e+18 0 0)
(-1.51774843940955e+18 0 0)
(-1.48562650284003e+18 0 0)
(-1.45435938021937e+18 0 0)
(-1.42393140859838e+18 0 0)
(-1.39432579938164e+18 0 0)
(-1.36552415253376e+18 0 0)
(-1.33750883644565e+18 0 0)
(-1.3102569331826e+18 0 0)
(-1.2837727423464e+18 0 0)
(-1.25793734518288e+18 0 0)
(-1.23287205919888e+18 0 0)
(-1.20852289581713e+18 0 0)
(-1.18476219911255e+18 0 0)
(-1.16167376485705e+18 0 0)
(-1.13920285610525e+18 0 0)
(-1.11733531830474e+18 0 0)
(-1.09604973100434e+18 0 0)
(-1.07532725610257e+18 0 0)
(-1.05514999963346e+18 0 0)
(-1.03550019862929e+18 0 0)
(-1.01635736520026e+18 0 0)
(-9.97705187078254e+17 0 0)
(-9.79520465812469e+17 0 0)
(-9.61807115326425e+17 0 0)
(-9.44393447539189e+17 0 0)
(-9.27689699762307e+17 0 0)
(-9.11255674292105e+17 0 0)
(-8.95234532639411e+17 0 0)
(-8.79594509603937e+17 0 0)
(-8.64332726319789e+17 0 0)
(-8.49436449331537e+17 0 0)
(-8.34894776360639e+17 0 0)
(-8.20696727261747e+17 0 0)
(-8.06830737751243e+17 0 0)
(-7.93288173152808e+17 0 0)
(-7.80043378882899e+17 0 0)
(-7.67118931669881e+17 0 0)
(-7.54209419388231e+17 0 0)
(-7.42182161975703e+17 0 0)
(-7.30191166614038e+17 0 0)
(-7.18474622270493e+17 0 0)
(-7.07011816485239e+17 0 0)
(-6.95768242902724e+17 0 0)
(-6.84595674435891e+17 0 0)
(-6.74428764396724e+17 0 0)
(-6.64143690417174e+17 0 0)
(-6.5377827793846e+17 0 0)
(-6.44405518438444e+17 0 0)
(-6.35074165258102e+17 0 0)
(-6.26145019590987e+17 0 0)
(-6.17970147580501e+17 0 0)
(-6.10926348500692e+17 0 0)
(-6.04607250319332e+17 0 0)
(-5.93937386542433e+17 0 0)
)
;

boundaryField
{
    electrode
    {
        type            calculated;
        value           uniform (-1.57366680992692e+19 0 0);
    }
    ground
    {
        type            calculated;
        value           uniform (-5.91313887671254e+17 0 0);
    }
    otherfaces
    {
        type            empty;
    }
}


// ************************************************************************* //
