/*--------------------------------*- C++ -*----------------------------------*\
| =========                 |                                                 |
| \\      /  F ield         | foam-extend: Open Source CFD                    |
|  \\    /   O peration     | Version:     4.0                                |
|   \\  /    A nd           | Web:         http://www.foam-extend.org         |
|    \\/     M anipulation  |                                                 |
\*---------------------------------------------------------------------------*/
FoamFile
{
    version     2.0;
    format      ascii;
    class       volScalarField;
    location    "6.4e-06";
    object      N_electronMean;
}
// * * * * * * * * * * * * * * * * * * * * * * * * * * * * * * * * * * * * * //

dimensions      [0 0 0 1 0 0 0];

internalField   nonuniform List<scalar> 
300
(
6.05345102408124e+16
6.05330228114122e+16
6.05289273577493e+16
6.05217548789983e+16
6.05115428140931e+16
6.04982552303438e+16
6.04818722517458e+16
6.04623829066649e+16
6.04397767407325e+16
6.04140460308406e+16
6.03851851770021e+16
6.0353190479779e+16
6.03180600126428e+16
6.02797934644554e+16
6.02383920338505e+16
6.01938583240697e+16
6.01461962532295e+16
6.0095410977244e+16
6.0041508814855e+16
5.99844971766325e+16
5.99243845021545e+16
5.98611802004936e+16
5.97948945927627e+16
5.97255388532875e+16
5.9653124966501e+16
5.95776656930115e+16
5.94991745079149e+16
5.94176655394038e+16
5.93331535185818e+16
5.92456537119975e+16
5.91551818777454e+16
5.90617542531325e+16
5.89653874931481e+16
5.88660985718973e+16
5.87639047115292e+16
5.86588233251923e+16
5.85508719608483e+16
5.84400682497086e+16
5.83264298499251e+16
5.82099743894113e+16
5.80907194187608e+16
5.79686823633122e+16
5.78438804663341e+16
5.77163307370271e+16
5.75860499055085e+16
5.74530543789545e+16
5.73173602006869e+16
5.71789830136802e+16
5.70379380322869e+16
5.689424002194e+16
5.67479032981287e+16
5.65989417262874e+16
5.64473686909967e+16
5.62931970393575e+16
5.61364390002498e+16
5.59771061012898e+16
5.58152090975448e+16
5.56507579154854e+16
5.54837616099264e+16
5.53142283222903e+16
5.51421652430778e+16
5.49675785769572e+16
5.47904735041431e+16
5.46108541712002e+16
5.4428723717327e+16
5.42440842377604e+16
5.40569366882354e+16
5.38672808277714e+16
5.36751151908092e+16
5.3480437059149e+16
5.32832424337914e+16
5.308352602226e+16
5.28812812549959e+16
5.26765002698595e+16
5.24691738613744e+16
5.22592914872592e+16
5.20468412991399e+16
5.18318101251481e+16
5.16141834034686e+16
5.13939451401925e+16
5.11710779046293e+16
5.09455627573595e+16
5.07173791811796e+16
5.04865050585886e+16
5.02529166626556e+16
5.00165886703999e+16
4.97774941325512e+16
4.95356044074105e+16
4.92908891325508e+16
4.90433162243556e+16
4.87928518537298e+16
4.85394604640466e+16
4.82831048009576e+16
4.80237458314599e+16
4.77613426682119e+16
4.74958525530943e+16
4.72272308402334e+16
4.69554309798589e+16
4.66804045026785e+16
4.64021010162972e+16
4.61204682008849e+16
4.58354517822103e+16
4.55469955394013e+16
4.52550413346514e+16
4.49595290795082e+16
4.46603967154313e+16
4.43575802188486e+16
4.40510135930031e+16
4.37406288786123e+16
4.34263561361047e+16
4.31081234178037e+16
4.27858567659266e+16
4.2459480223119e+16
4.21289158621015e+16
4.17940837975183e+16
4.14549021982413e+16
4.11112873520752e+16
4.07631536995038e+16
4.0410413799968e+16
4.00529783084113e+16
3.96907560139403e+16
3.93236538992778e+16
3.89515771916747e+16
3.85744294250711e+16
3.81921124385434e+16
3.78045263301729e+16
3.74115694803779e+16
3.70131386042235e+16
3.66091287643467e+16
3.61994333955003e+16
3.5783944359192e+16
3.5362551997888e+16
3.49351451788725e+16
3.45016113359764e+16
3.40618365803795e+16
3.36157058312236e+16
3.31631028379124e+16
3.27039101551989e+16
3.22380091746189e+16
3.17652801956613e+16
3.12856024648136e+16
3.0798854208752e+16
3.03049126916373e+16
2.98036542878751e+16
2.92949546187833e+16
2.87786886747792e+16
2.82547308411477e+16
2.77229549075228e+16
2.71832340753712e+16
2.66354410395015e+16
2.60794481451666e+16
2.55151274487806e+16
2.49423508138799e+16
2.43609901105333e+16
2.37709173264107e+16
2.31720047653996e+16
2.25641252945346e+16
2.19471526998107e+16
2.13209616865311e+16
2.06854274884417e+16
2.0040422910832e+16
1.9385802253738e+16
1.87213769823375e+16
1.80469073571601e+16
1.73621040482394e+16
1.66666336608041e+16
1.59601467049928e+16
1.5242305312958e+16
1.45127860694723e+16
1.37712898011857e+16
1.30175981661592e+16
1.22517003986865e+16
1.1473961225708e+16
1.06853012984561e+16
9.88744235678033e+15
9.08311215357904e+15
8.27617071168777e+15
7.47183900807265e+15
6.6767958836881e+15
5.89898080913523e+15
5.14734333133888e+15
4.43141083185823e+15
3.76055363457041e+15
3.14324084618562e+15
2.58631294607131e+15
2.09427583197518e+15
1.66892066625253e+15
1.30927780865786e+15
1.01183486717247e+15
771074324354634
580161363745938
431645975851684
318113164219384
232674253521276
168895407511915
121608946017633
86833880329312.4
61403285934092.2
42832311145284.8
29413616673160.2
19968476362292.6
13403099008587.1
8916245675933.63
5998032660953.3
4212837532868.51
3174297772773.68
2582560976099.37
2241240359456.25
2037373476191.03
1909967611304.6
1826400171470.48
1768733824194.07
1726720649238.82
1694262521083.14
1667563908774.39
1644190522573.57
1622527811301.16
1601495703008.53
1580433819699.09
1558910486436.7
1536623719702.11
1513382289118.36
1489094460639.09
1463751311336.37
1437393481576.67
1410095776265.14
1381956062553.79
1353085686682.22
1323603433866.99
1293630907745.42
1263289094071.49
1232696525842.85
1201966638737.78
1171206762561.63
1140517435022.22
1109991367807.9
1079712986498.55
1049758865045.91
1020196969994.37
991087114497.637
962481276446.665
934422457355.764
906946917360.866
880085861654.809
853865297321.606
828305942746.376
803422434514.634
779224411338.675
755717069071.946
732901877140.498
710778118105.326
689342609555.056
668589366868.457
648509829455.482
629093536683.433
610329357926.402
592203604579.18
574698935396.571
557798852629.089
541488291616.128
525751146753.13
510570130823.5
495927726131.299
481806127309.83
468187582815.45
455054696324.015
442389291928.259
430172906221.868
418387632162.756
407015664766.769
396038780117.185
385439789433.425
375204270993.186
365320101106.482
355775932392.498
346561165252.915
337665820105.477
329080452070.258
320796405920.759
312805847010.464
305101632906.332
297676502713.972
290522411403.903
283619540006.278
276941725599.484
270481212835.048
264245454425.882
258243826123.375
252486165569.843
246958071102.823
241635853420.071
236534529703.507
231695019717.558
227116262062.173
222826929208.158
218907323545.06
215480265271.483
212799662645.089
211274800788.324
211644899623.024
)
;

boundaryField
{
    electrode
    {
        type            calculated;
        value           uniform 6.05345102409972e+16;
    }
    ground
    {
        type            calculated;
        value           uniform 213305141277.661;
    }
    otherfaces
    {
        type            empty;
    }
}


// ************************************************************************* //
