/*--------------------------------*- C++ -*----------------------------------*\
| =========                 |                                                 |
| \\      /  F ield         | foam-extend: Open Source CFD                    |
|  \\    /   O peration     | Version:     4.0                                |
|   \\  /    A nd           | Web:         http://www.foam-extend.org         |
|    \\/     M anipulation  |                                                 |
\*---------------------------------------------------------------------------*/
FoamFile
{
    version     2.0;
    format      ascii;
    class       volScalarField;
    location    "6.4e-06";
    object      Phi;
}
// * * * * * * * * * * * * * * * * * * * * * * * * * * * * * * * * * * * * * //

dimensions      [0 0 0 1 0 0 0];

internalField   nonuniform List<scalar> 
300
(
699.999926242457
699.999713286035
699.999208933246
699.998446577743
699.997434675923
699.996167877188
699.994647073097
699.992871835732
699.990841615782
699.988555936289
699.986014225094
699.983215859143
699.980160161797
699.976846399531
699.973273782649
699.969441464551
699.965348541132
699.960994050204
699.956376970841
699.951496222697
699.946350665285
699.940939097216
699.935260255404
699.929312814226
699.923095384649
699.916606513317
699.909844681596
699.902808304582
699.895495730065
699.887905237463
699.8800350367
699.871883267057
699.863447995972
699.854727217801
699.845718852536
699.836420744482
699.826830660882
699.816946290505
699.806765242186
699.796285043313
699.785503138273
699.774416886849
699.763023562555
699.751320350937
699.739304347806
699.726972557422
699.714321890619
699.701349162877
699.688051092324
699.674424297684
699.660465296156
699.646170501226
699.631536220408
699.616558652912
699.601233887242
699.585557898705
699.569526546844
699.553135572782
699.536380596482
699.519257113897
699.501760494045
699.48388597596
699.465628665547
699.446983532299
699.427945405913
699.40850897278
699.388668772445
699.368419193979
699.347754471921
699.326668681137
699.305155731078
699.283209363367
699.260823158555
699.237990545233
699.214704770025
699.190958781077
699.166745134694
699.142056133491
699.116883875341
699.091220250757
699.065056936621
699.038385389024
699.011196835424
698.983482266401
698.955232427029
698.92643780787
698.897088635566
698.867174863006
698.836686159033
698.805611897666
698.773941146794
698.741662656312
698.708764845658
698.675235790712
698.641063210001
698.606234450177
698.57073647071
698.534555827734
698.497678657005
698.460090655884
698.421777064296
698.382722644579
698.342911660152
698.30232785291
698.260954419249
698.218773984637
698.175768576598
698.131919596012
698.087207786589
698.041613202382
697.995115173188
697.947692267665
697.899322253993
697.849982057871
697.799647717643
697.748294336314
697.695896030184
697.64242587384
697.587855841167
697.532156742046
697.47529815436
697.417248350885
697.357974220592
697.297441183875
697.235613101093
697.172452173836
697.107918838182
697.041971649174
696.974567155637
696.905659764367
696.835201592574
696.763142307381
696.689428950977
696.614005749868
696.536813906485
696.45779137116
696.376872592207
696.293988241589
696.209064913236
696.122024790706
696.032785280423
695.941258606282
695.847351360204
695.750964002928
695.651990311153
695.550316757572
695.445821813657
695.338375189749
695.227836971938
695.114056580615
694.99687170826
694.876107309848
694.751573716002
694.623064390039
694.490354654381
694.353199802926
694.211332665694
694.064460585655
693.912262923481
693.7543852537
693.590439743038
693.419990359171
693.242563962951
693.057615047374
692.864558664836
692.66267035598
692.450977665468
692.228409552554
691.993827798834
691.745941708536
691.483265638264
691.203984972642
690.906003572641
690.586797278645
690.243533036165
689.873348711792
689.472915618726
689.038135762828
688.564817794627
688.048659514867
687.484477462731
686.86697444343
686.191099839752
685.450920076434
684.640997023102
683.756112415053
682.790874231737
681.740422432547
680.600947476746
679.368384348009
678.039595252737
676.612571868637
675.085769300925
673.457694423205
671.727863175309
669.896501150309
667.964074074793
665.930806743017
663.797191871357
661.563268981045
659.229827465575
656.796819794661
654.263370979609
651.628885739379
648.892579679389
646.054477737848
643.115006134702
640.075007072682
636.935441624333
633.697298485881
630.36152589351
626.929007115377
623.400541464847
619.776839524163
616.058979088193
612.247965382629
608.344735157396
604.350122639273
600.264905930678
596.089770789407
591.825357610491
587.472223109097
583.030889409544
578.50180309299
573.885385152197
569.181987357832
564.392264647052
559.516791178574
554.556141778547
549.510815501171
544.381319779837
539.168089706367
533.87157519422
528.49215593182
523.030231515846
517.486132710868
511.860214713913
506.152764640805
500.364098118785
494.494463243855
488.544140269158
482.513342068738
476.402352243032
470.211561538366
463.941394801087
457.592212588281
451.164412872059
444.658329198447
438.074335357922
431.412740090713
424.67389502489
417.85808585818
410.965643445993
403.996831845099
396.951962514295
389.831279268054
382.635075263234
375.363575199261
368.017055071368
360.595721455465
353.09983411707
345.529582225203
337.885210226299
330.166890677847
322.37485345639
314.509255237387
306.570362871269
298.558451305622
290.473856369194
282.316837427067
274.087716649278
265.78673872359
257.414212821288
248.970369738056
240.455506036648
231.86983937002
223.213654336012
214.487156152378
205.690618184983
196.824233786115
187.888265713277
178.882896175783
169.808377768869
160.664882048109
151.452651860703
142.1718485815
132.822706018974
123.4053758092
113.920083021792
104.366969900194
94.7462531534784
85.0580660627559
75.3026178039056
65.4800333934518
55.5905146620019
45.6341789618678
35.6112217047718
25.5217533224636
15.3659642037149
5.14395894183918
)
;

boundaryField
{
    electrode
    {
        type            fixedValue;
        value           uniform 700;
    }
    ground
    {
        type            fixedValue;
        value           uniform 0;
    }
    otherfaces
    {
        type            empty;
    }
}


// ************************************************************************* //
