/*--------------------------------*- C++ -*----------------------------------*\
| =========                 |                                                 |
| \\      /  F ield         | foam-extend: Open Source CFD                    |
|  \\    /   O peration     | Version:     4.0                                |
|   \\  /    A nd           | Web:         http://www.foam-extend.org         |
|    \\/     M anipulation  |                                                 |
\*---------------------------------------------------------------------------*/
FoamFile
{
    version     2.0;
    format      ascii;
    class       volScalarField;
    location    "6.4e-06";
    object      PhiMean;
}
// * * * * * * * * * * * * * * * * * * * * * * * * * * * * * * * * * * * * * //

dimensions      [0 0 0 1 0 0 0];

internalField   nonuniform List<scalar> 
300
(
699.988486291654
699.987314328304
699.9858718591
699.984182517966
699.982255602703
699.98008444778
699.977668581931
699.975006931625
699.97209842617
699.968942259752
699.965537716933
699.961884203314
699.957981216162
699.953828335048
699.949425212562
699.944771564655
699.939867162725
699.934711828335
699.929305426553
699.923647859626
699.917739062522
699.911578998173
699.905167653145
699.898505033158
699.89159115813
699.884426067003
699.877009807714
699.869342433118
699.86142399973
699.853254560006
699.844834156525
699.836162832069
699.827240622147
699.818067541215
699.808643579189
699.798968697423
699.789042823936
699.778865850987
699.768437630263
699.757757967287
699.74682661867
699.735643289294
699.724207625666
699.712519212147
699.700577566946
699.688382138428
699.675932301031
699.663227352363
699.650266509963
699.637048911238
699.623573612086
699.609839594897
699.595845759136
699.581590921364
699.567073799331
699.552293005044
699.537247033102
699.521934255201
699.506352914976
699.490501122045
699.474376847171
699.457977916812
699.441302006913
699.424346636444
699.407109179765
699.389586859687
699.371776723431
699.353675637112
699.335280280006
699.316587138007
699.297592496886
699.278292434483
699.2586828243
699.238759331637
699.218517393239
699.197952217929
699.177058792126
699.155831867091
699.13426594892
699.112355272671
699.090093820348
699.067475285311
699.044493059878
699.021140227859
698.997409549999
698.973293467505
698.948784085447
698.923873149376
698.898552031377
698.872811724909
698.846642826266
698.820035518351
698.792979588226
698.765464376336
698.737478756543
698.709011120328
698.680049356577
698.650580833694
698.620592375577
698.590070243983
698.559000117479
698.52736706291
698.495155505665
698.462349227761
698.428931317833
698.394884143326
698.360189326934
698.324827700481
698.288779284847
698.252023241952
698.214537828618
698.176300356275
698.137287142724
698.097473471472
698.056833541661
698.015340403567
697.972965919835
697.929680709348
697.885454061202
697.84025385678
697.794046491394
697.746796810929
697.698468009151
697.649021556921
697.598417083367
697.546612243817
697.493562595636
697.439221481826
697.38353986801
697.326466188175
697.267946174141
697.207922673001
697.146335440118
697.083120910252
697.018211958475
696.951537670999
696.883023020911
696.812588532017
696.740149899606
696.665617608308
696.588896472572
696.509885136199
696.428475520361
696.344552199762
696.257991729647
696.168661897203
696.076420816022
695.981115937165
695.882582909744
695.7806442973
695.675108183464
695.565766481473
695.45239302447
695.334741432679
695.212542567042
695.085501570599
694.953294573908
694.81556455032
694.671916966892
694.521913525599
694.365066795546
694.200827476328
694.028558554611
693.847518604766
693.656850067807
693.455549992516
693.242459592667
693.016246494151
692.775354925399
692.517946259194
692.241844445726
691.944510702472
691.623039393937
691.274063604636
690.893760803391
690.477922499594
690.021762360616
689.520003515915
688.967162942023
688.357309141608
687.684259574769
686.941972687804
686.124423055264
685.225747289101
684.240846187567
683.165064145926
681.994390971134
680.725834376033
679.357174076966
677.88683509101
676.31403192585
674.638574049708
672.860792712679
670.981409425055
669.001303675082
666.921251274335
664.741886176243
662.463609817315
660.086787580848
657.611751385859
655.038765859715
652.36789470957
649.599254086296
646.733175169801
643.770311494074
640.711481231452
637.557614501642
634.309658937603
630.968542631652
627.535124516321
624.010211022163
620.394523209186
616.688808880516
612.893923111984
609.010768609697
605.040161989841
600.982873628682
596.839596094178
592.610986635128
588.297632779307
583.900096240959
579.418875842802
574.854452962015
570.207252378354
565.477689748922
560.666220252135
555.773448307923
550.799921481924
545.746186064153
540.612734649336
535.400063883938
530.108618970798
524.738854687216
519.291178311417
513.766011168434
508.163726860515
502.484716324399
496.729323221104
490.897911797515
484.990799341785
479.008326919207
472.95078923115
466.818514228622
460.611897515625
454.331401282621
447.977434385712
441.55043581114
435.050790635324
428.478916656185
421.83517693728
415.119969837065
408.333637872226
401.476561483582
394.549063861453
387.551508843227
380.48420136209
373.347489756237
366.141661666618
358.867050868168
351.523928597132
344.112614857423
336.633365285307
329.086486865922
321.472220209346
313.790859979752
306.04263559025
298.227841983479
290.346735201383
282.399670356387
274.386952368709
266.30895715564
258.165975924551
249.958373404893
241.686426635435
233.350489846935
224.950826437596
216.487780777799
207.961603153357
199.372628656386
190.721094967538
182.007328441705
173.23155458018
164.394091533039
155.495153028096
146.535049635343
137.513983806049
128.43225908043
119.290066970828
110.087704448619
100.825352399745
91.503301623349
82.1217228993702
72.6809015715185
63.1809986809208
53.6222944492943
44.0049408432493
34.3292138489042
24.595256883081
14.8033428500858
4.95360761754356
)
;

boundaryField
{
    electrode
    {
        type            calculated;
        value           uniform 699.999999999782;
    }
    ground
    {
        type            calculated;
        value           uniform 0;
    }
    otherfaces
    {
        type            empty;
    }
}


// ************************************************************************* //
