/*--------------------------------*- C++ -*----------------------------------*\
| =========                 |                                                 |
| \\      /  F ield         | foam-extend: Open Source CFD                    |
|  \\    /   O peration     | Version:     4.0                                |
|   \\  /    A nd           | Web:         http://www.foam-extend.org         |
|    \\/     M anipulation  |                                                 |
\*---------------------------------------------------------------------------*/
FoamFile
{
    version     2.0;
    format      ascii;
    class       volScalarField;
    location    "6.4e-06";
    object      Sy_electron;
}
// * * * * * * * * * * * * * * * * * * * * * * * * * * * * * * * * * * * * * //

dimensions      [1 -3 -1 0 0 0 0];

internalField   nonuniform List<scalar> 
300
(
3.33760219747709e-09
3.33836790298097e-09
3.3386639748047e-09
3.33859920698624e-09
3.33855905859149e-09
3.33846882599452e-09
3.3383378713757e-09
3.3381711455024e-09
3.33796623845997e-09
3.33772329899333e-09
3.33744203385603e-09
3.33712205538979e-09
3.33676301929172e-09
3.33636455004401e-09
3.33592625693961e-09
3.3354477343424e-09
3.33492856001139e-09
3.33436829539043e-09
3.33376648530746e-09
3.33312265771896e-09
3.33243632347399e-09
3.33170697605827e-09
3.33093409133408e-09
3.33011712726891e-09
3.32925552363046e-09
3.32834870177956e-09
3.32739606431651e-09
3.32639699479649e-09
3.3253508574492e-09
3.32425699685019e-09
3.32311473758412e-09
3.32192338399212e-09
3.32068221983096e-09
3.31939050791274e-09
3.3180474897885e-09
3.31665238541882e-09
3.31520439283015e-09
3.31370268778441e-09
3.31214642342883e-09
3.3105347299502e-09
3.30886671422382e-09
3.30714145945957e-09
3.3053580248558e-09
3.30351544524182e-09
3.30161273072361e-09
3.29964886632323e-09
3.29762281161442e-09
3.29553350038152e-09
3.29337984022968e-09
3.2911607122535e-09
3.28887497065623e-09
3.28652144243958e-09
3.28409892697059e-09
3.28160619569222e-09
3.27904199170482e-09
3.27640502943162e-09
3.27369399422291e-09
3.27090754201233e-09
3.26804429894719e-09
3.26510286102063e-09
3.26208179371862e-09
3.25897963166871e-09
3.25579487826506e-09
3.25252600520098e-09
3.24917145199806e-09
3.24572962551362e-09
3.24219890016323e-09
3.23857761959079e-09
3.23486409703187e-09
3.23105660672582e-09
3.22715336306872e-09
3.22315251759112e-09
3.21905225103152e-09
3.21485098068838e-09
3.21054737142297e-09
3.20702620872095e-09
3.20410721871713e-09
3.2011019151222e-09
3.19800801209868e-09
3.19482330704682e-09
3.19154559055033e-09
3.18817262486062e-09
3.18470213618158e-09
3.18113181163498e-09
3.17745929755093e-09
3.17368219821778e-09
3.1697980746576e-09
3.16580444340765e-09
3.16169877530594e-09
3.1574784942664e-09
3.15314097591975e-09
3.14868354621728e-09
3.14410348020469e-09
3.13939800031244e-09
3.13456427486241e-09
3.12959941643043e-09
3.12450048011567e-09
3.1192644617208e-09
3.11388829581319e-09
3.10836885372048e-09
3.10270294137193e-09
3.09688729700936e-09
3.09091858873261e-09
3.08479341206475e-09
3.07850828709332e-09
3.07205965563069e-09
3.06544387817085e-09
3.05865723053539e-09
3.05169590048928e-09
3.04455598396988e-09
3.03723348113003e-09
3.02972429214151e-09
3.02202421268024e-09
3.0141289291513e-09
3.00603401355977e-09
2.99773491801763e-09
2.98922696892734e-09
2.98050536078997e-09
2.97156514944049e-09
2.96240124493737e-09
2.9530084039021e-09
2.94338122142027e-09
2.93351412218033e-09
2.92340135119136e-09
2.91303696367873e-09
2.90241481427521e-09
2.8915285454423e-09
2.88037157512741e-09
2.86893708333327e-09
2.85721799782553e-09
2.84520697867429e-09
2.83289640171489e-09
2.82027834066418e-09
2.80734454785691e-09
2.79408643353993e-09
2.78049504357156e-09
2.76656103519938e-09
2.75227465102876e-09
2.73762569091209e-09
2.72260348131856e-09
2.70719684247251e-09
2.69139405395861e-09
2.67518281290728e-09
2.65855019166517e-09
2.64148260785332e-09
2.6239657536673e-09
2.60598450955816e-09
2.58752301336896e-09
2.56856459565373e-09
2.54909118322195e-09
2.52908399860163e-09
2.50852518539274e-09
2.48897678393097e-09
2.46912331730859e-09
2.44867005134289e-09
2.42759148915205e-09
2.40585981657776e-09
2.38344760539336e-09
2.36032172344814e-09
2.3364532576418e-09
2.31180424475347e-09
2.28634562368394e-09
2.26005124955998e-09
2.23293363742934e-09
2.20525324253516e-09
2.17707162178693e-09
2.14785734793938e-09
2.11720164774082e-09
2.08511010326131e-09
2.05171505332856e-09
2.01703904683287e-09
1.98088691837101e-09
1.94292332660027e-09
1.89919845339859e-09
1.85098224735025e-09
1.79979823410805e-09
1.74567845561635e-09
1.68745435444756e-09
1.62498092528161e-09
1.5590018779016e-09
1.48921209711308e-09
1.4162882901368e-09
1.336459701695e-09
1.25415610331764e-09
1.17483499209087e-09
1.10252465732978e-09
1.03935196291228e-09
9.7499253566846e-10
9.31848931019081e-10
9.00891603951341e-10
8.9583193672897e-10
9.07066783777333e-10
9.52930383979008e-10
1.04431200095936e-09
1.18802546368096e-09
1.42899699258532e-09
1.82457689936929e-09
2.4880473620166e-09
3.63313642654604e-09
4.923772233976e-09
6.05383619906245e-09
7.27739207113622e-09
7.42291472787431e-09
6.62889687654467e-09
5.36453399414611e-09
4.08052932445982e-09
3.10368068289405e-09
2.40680470160272e-09
1.96420355575281e-09
1.6912256206479e-09
1.51829780544439e-09
1.41726238257297e-09
1.35577361454992e-09
1.32459823144085e-09
1.30826541407696e-09
1.30124892392229e-09
1.30142042029931e-09
1.30535709426673e-09
1.31094072403352e-09
1.31683941917069e-09
1.32195831036132e-09
1.32454339511503e-09
1.32472212090061e-09
1.32291576743925e-09
1.31897627739755e-09
1.31285209747176e-09
1.30456348371869e-09
1.2941815484214e-09
1.28181284338963e-09
1.26758885699572e-09
1.25165783732262e-09
1.23417843874275e-09
1.21531469500799e-09
1.19523204341051e-09
1.17409418609205e-09
1.15206063990285e-09
1.12928481960416e-09
1.10591264958191e-09
1.082081051234e-09
1.05791782889553e-09
1.03353226961974e-09
1.00901914480917e-09
9.84475786921456e-10
9.59997829164701e-10
9.35671603462106e-10
9.11573774947687e-10
8.87771374932466e-10
8.64322305199084e-10
8.41275902488111e-10
8.18673553167423e-10
7.9654931824075e-10
7.7493056647136e-10
7.53838585140308e-10
7.33289296464181e-10
7.13293728169415e-10
6.9386072653522e-10
6.74991399924281e-10
6.56681282220548e-10
6.38927155363371e-10
6.21725742880898e-10
6.05069015374082e-10
5.88947333416723e-10
5.7334949260736e-10
5.58263180518373e-10
5.43675229253353e-10
5.29571945790065e-10
5.15939528899579e-10
5.02764195338972e-10
4.90032080328497e-10
4.7772848308833e-10
4.65838736998252e-10
4.54334065590269e-10
4.43186963435694e-10
4.32385361596495e-10
4.21918077853801e-10
4.11775302441176e-10
4.01947779844012e-10
3.92426899526137e-10
3.83204716268609e-10
3.74274041463333e-10
3.65628457949744e-10
3.57262497226669e-10
3.49170172885791e-10
3.40720898621125e-10
3.32479819731584e-10
3.24426558140932e-10
3.16568861782904e-10
3.08921222135353e-10
3.01499797730697e-10
2.93970988307709e-10
2.85714937723774e-10
2.77629781294981e-10
2.69771378867453e-10
2.61113958731452e-10
2.51588632550516e-10
2.42198249749022e-10
2.30057820409145e-10
2.165672395938e-10
1.99479247222969e-10
1.7503619821345e-10
)
;

boundaryField
{
    electrode
    {
        type            zeroGradient;
    }
    ground
    {
        type            zeroGradient;
    }
    otherfaces
    {
        type            empty;
    }
}


// ************************************************************************* //
