/*--------------------------------*- C++ -*----------------------------------*\
| =========                 |                                                 |
| \\      /  F ield         | foam-extend: Open Source CFD                    |
|  \\    /   O peration     | Version:     4.0                                |
|   \\  /    A nd           | Web:         http://www.foam-extend.org         |
|    \\/     M anipulation  |                                                 |
\*---------------------------------------------------------------------------*/
FoamFile
{
    version     2.0;
    format      ascii;
    class       volScalarField;
    location    "6.4e-06";
    object      Te;
}
// * * * * * * * * * * * * * * * * * * * * * * * * * * * * * * * * * * * * * //

dimensions      [0 0 0 1 0 0 0];

internalField   nonuniform List<scalar> 
300
(
40215.2606715385
40215.5567838062
40215.7368216719
40215.8458077531
40216.0170139375
40216.2248601427
40216.4727387205
40216.7624263095
40217.0931857154
40217.4651707325
40217.8783919755
40218.3328389239
40218.8285269235
40219.3654716254
40219.9436946248
40220.5632236277
40221.224091972
40221.9263388243
40222.6700091869
40223.4551539255
40224.2818298067
40225.1500995384
40226.0600318126
40227.0117013513
40228.0051889569
40229.0405815658
40230.1179723093
40231.2374605716
40232.399152056
40233.6031588596
40234.8495995449
40236.1385992157
40237.4702896029
40238.8448091527
40240.262303116
40241.7229236459
40243.2268299015
40244.7741881506
40246.3651718861
40247.9999619381
40249.6787465978
40251.4017217481
40253.1690909936
40254.981065801
40256.8378656467
40258.7397181663
40260.6868593144
40262.6795335316
40264.7179939133
40266.8025023912
40268.9333299224
40271.1107566804
40273.3350722605
40275.606575891
40277.9255766533
40280.2923937107
40282.7073565469
40285.1708052157
40287.6830905974
40290.2445746667
40292.8556307764
40295.5166439599
40298.2280112327
40300.9901418843
40303.8034577535
40306.6683935233
40309.5853973085
40312.5549317489
40315.5774747303
40318.653517
40321.7835552342
40324.9680908111
40328.2076621303
40331.5029205428
40334.8546432288
40338.2635072814
40341.7299723875
40345.2545181564
40348.8377579289
40352.4803634129
40356.183036722
40359.9465045035
40363.7715165306
40367.6588458565
40371.6092894554
40375.6236690304
40379.7028319112
40383.8476520045
40388.059030792
40392.3378983814
40396.685214607
40401.101970185
40405.5891879301
40410.1479240296
40414.7792693847
40419.4843510246
40424.2643335901
40429.1204209021
40434.0538576108
40439.0659309381
40444.1579725148
40449.331360323
40454.5875207488
40459.9279307515
40465.3541201631
40470.8676741231
40476.4702356573
40482.1635084156
40487.9492595812
40493.829322957
40499.8056022494
40505.8800745675
40512.054794144
40518.3318963081
40524.7136017234
40531.2022209149
40537.8001591115
40544.5099214245
40551.3341184002
40558.2754719768
40565.336821876
40572.5211324774
40579.8315002173
40587.2711615588
40594.8435015925
40602.5520633278
40610.4005577412
40618.3928746654
40626.5330945971
40634.8255015242
40643.2745968869
40651.8851147869
40660.6620385907
40669.610619082
40678.7363943488
40688.0452115967
40697.5432511323
40707.2370528028
40717.1335451609
40727.2400776497
40737.5644564092
40748.1149844633
40758.9005048194
40769.9304496354
40781.2149012215
40792.7646462969
40804.5912331522
40816.707097817
40829.1256548743
40841.861196517
40854.9292977968
40868.3476319484
40882.1352128194
40896.3115656568
40910.8978467763
40925.9179286504
40941.3977508293
40957.3667289474
40973.8558120392
40990.9018585709
41008.5430093971
41026.8265600341
41045.807733193
41065.5662652765
41086.2999543498
41108.1472501317
41131.0147111981
41154.8709606304
41179.8769372011
41206.2729399395
41234.2835986421
41264.0722602466
41295.7751682474
41329.271548495
41364.5119895655
41402.1479522506
41442.6051947338
41485.6525970465
41531.607600706
41581.3341170726
41635.0665320453
41693.6423988601
41759.0777282881
41832.9613823623
41918.3090191754
42020.1329246291
42144.1826128399
42299.1945253819
42498.2807743706
42757.9842540618
43101.2323018972
43561.4104431152
44185.3155038466
45041.3007850411
46211.8548433676
47827.4585096262
50102.9680250283
53315.9981898719
58004.836952927
64019.4009358718
71873.303791262
84411.8430398875
101575.161565512
125145.761385169
157752.416932038
201308.528310415
255801.245575249
318276.078200357
383979.330978526
448315.364891379
508090.340934276
561841.959566951
609204.346604719
650512.362029441
686433.021848967
717632.362851103
744861.629437633
768810.612397864
790030.126075305
808968.085880741
825974.642580449
841336.581706513
855318.50900624
868136.549963652
879966.802537425
890953.248111329
901215.160538924
910851.266783855
919943.251544287
928558.818010944
936753.973275796
944574.880933914
952059.349194259
959238.040848765
966135.46229921
972770.781730964
979158.493980145
985309.059089166
991229.182207156
996923.700842589
1002392.2565714
1007629.47152226
1012631.57850821
1017393.81676882
1021908.31776013
1026165.38864555
1030153.6794709
1033860.41180495
1037271.52543318
1040371.81596363
1043145.0558241
1045574.10847955
1047641.00253177
1049327.08680323
1050612.56982885
1051477.79805743
1051892.56444746
1051857.76669222
1051340.09522401
1050319.21440337
1048772.46662331
1046677.6937046
1044012.30883582
1040753.45936262
1036877.93494179
1032362.13934609
1027182.18363586
1021313.86504141
1014732.76214181
1007413.51879314
999335.082083859
990468.566280239
980784.015042766
970258.929836996
958864.220576562
946569.931202029
933344.305386448
919153.951351123
903963.563331369
887735.706005137
870430.419196577
852005.489740414
832414.612567576
811619.730848484
789565.004219624
766186.570717168
741427.467022712
715209.115287724
687445.377847339
658052.384088822
626919.945026534
593914.908615495
558901.692419767
521691.226896911
482051.588694099
439696.362507746
394227.639050309
345082.721047883
291444.909654015
232243.888280153
)
;

boundaryField
{
    electrode
    {
        type            electronTemperature;
        seec            0.05;
        Tse             1000;
        Edepend         1;
        TFN             1000;
        field_emission  0;
        field_enhancement_factor 55;
        work_function   5;
        value           uniform 40215.2606715385;
    }
    ground
    {
        type            electronTemperature;
        seec            0.05;
        Tse             1000;
        Edepend         1;
        TFN             1000;
        field_emission  0;
        field_enhancement_factor 55;
        work_function   5;
        value           uniform 198667.268272882;
    }
    otherfaces
    {
        type            empty;
    }
}


// ************************************************************************* //
