/*--------------------------------*- C++ -*----------------------------------*\
| =========                 |                                                 |
| \\      /  F ield         | foam-extend: Open Source CFD                    |
|  \\    /   O peration     | Version:     4.0                                |
|   \\  /    A nd           | Web:         http://www.foam-extend.org         |
|    \\/     M anipulation  |                                                 |
\*---------------------------------------------------------------------------*/
FoamFile
{
    version     2.0;
    format      ascii;
    class       volScalarField;
    location    "6.4e-06";
    object      TeMean;
}
// * * * * * * * * * * * * * * * * * * * * * * * * * * * * * * * * * * * * * //

dimensions      [0 0 0 1 0 0 0];

internalField   nonuniform List<scalar> 
300
(
35258.9761453219
35259.2689372686
35259.3964418648
35259.3927154931
35259.407296176
35259.4195721463
35259.4324293134
35259.4486804228
35259.4683610215
35259.4921275504
35259.5205452838
35259.5541455534
35259.593452587
35259.6389586006
35259.6911409245
35259.7504605657
35259.8173608625
35259.8922722571
35259.9756118364
35260.0677831512
35260.1691789974
35260.2801793207
35260.4011536105
35260.5324601814
35260.6744457746
35260.827456561
35260.9918308533
35261.1678964689
35261.35597933
35261.5563918597
35261.7694317025
35261.995406247
35262.2346301984
35262.487405988
35262.7540293919
35263.0347855376
35263.3299569431
35263.6398323906
35263.9646982382
35264.3048339377
35264.6605140285
35265.0320195085
35265.4196297047
35265.8236195066
35266.2442629167
35266.6818328144
35267.1366005394
35267.6088350077
35268.0987995337
35268.6067517823
35269.1329440298
35269.6776378944
35270.2411126973
35270.8236471783
35271.4255243774
35272.0470376598
35272.6884749618
35273.3501208531
35274.0322695641
35274.7352187574
35275.4592680475
35276.2047281547
35276.971896777
35277.7610689163
35278.572572259
35279.4067524448
35280.2639546218
35281.1445255519
35282.0488174469
35282.9771929946
35283.9300174722
35284.907650238
35285.910470833
35286.9388749737
35287.9932524471
35289.0739896871
35290.1814992953
35291.3162287159
35292.4786215774
35293.6691233408
35294.8882157083
35296.136396473
35297.4141579023
35298.7219945003
35300.0604130175
35301.4299554296
35302.8311948161
35304.2647080077
35305.7310781601
35307.2309146171
35308.7648313077
35310.3334586771
35311.9374923846
35313.5776326475
35315.2545887949
35316.9691140986
35318.7219773095
35320.5139738128
35322.3459208877
35324.2186671024
35326.1331080708
35328.090141953
35330.0906963375
35332.1357672862
35334.2263814495
35336.3635960185
35338.5485028894
35340.7822377169
35343.0659929498
35345.4010047738
35347.7885584388
35350.2299881942
35352.7266736789
35355.2800721425
35357.8916902898
35360.5630839471
35363.295870956
35366.0917611713
35368.9525606799
35371.8801144778
35374.8763440535
35377.9432716998
35381.0830073761
35384.2977776437
35387.5899383656
35390.9619404748
35394.4163293359
35397.9557970021
35401.5831870489
35405.3014648541
35409.1137467374
35413.0233346313
35417.0337222105
35421.1485526077
35425.371665057
35429.7071898318
35434.1595202805
35438.7333004736
35443.4334625674
35448.2652636993
35453.2343147308
35458.3466021153
35463.6085208721
35469.0269062156
35474.6091204947
35480.363138242
35486.2975826488
35492.4218019341
35498.7458800205
35505.2807715058
35512.0385097688
35519.0322313415
35526.2763254055
35533.7867282326
35541.5810067967
35549.6787030043
35558.101590737
35566.8743991598
35576.0254355068
35585.5891193343
35595.6168471646
35606.1757206341
35617.3271426017
35629.1307622046
35641.6534464764
35654.9553326945
35669.1134550121
35684.2520652992
35700.5187455571
35718.0416835396
35736.8966559062
35757.1578076242
35778.9428870984
35802.290930378
35827.2758364003
35854.1548828017
35883.0362938884
35914.1173587953
35948.1964953421
35986.3274361755
36030.1549583861
36082.8720332539
36149.2035840901
36236.1656562183
36354.8913375158
36521.5824814658
36759.7161443599
37104.4320057689
37607.8124146418
38348.3001526873
39446.8286618112
41093.9413874258
43597.528335666
47547.7401880531
53541.2834664282
61991.2584541987
74279.6862863314
91077.3018620193
113626.417872519
142343.261072044
177309.803235121
217668.934431362
262192.890507411
309755.861274364
359303.397627124
409742.229260012
459735.274869789
507749.247783634
552467.261159186
593087.662390295
629344.157896846
661373.45221099
689560.162145966
714392.20530168
736340.163348066
755843.726105623
773310.646673729
789082.262234028
803434.322859082
816593.450517148
828740.322017661
840022.97321287
850574.090006173
860503.218967282
869899.374582769
878835.559054247
887371.914756222
895557.728663799
903433.154375096
911030.689864104
918376.313888992
925490.421445569
932388.586476525
939082.117731269
945578.627347871
951882.534406152
957995.380883038
963916.169081278
969641.639163205
975166.552194776
980483.968393075
985584.861842887
990458.604861822
995093.834271287
999478.166238636
1003598.26949439
1007439.68600754
1010987.16816429
1014224.90626717
1017136.24645821
1019704.45789384
1021912.56128121
1023742.90475155
1025177.49782669
1026197.8108938
1026784.97118508
1026915.52706517
1026578.76348923
1025756.09986926
1024425.10642857
1022566.13165303
1020159.32041689
1017184.81458858
1013622.55030629
1009452.22699756
1004653.64008977
999205.895743847
993087.541920781
986277.450597618
978753.994812986
970494.509950735
961475.439332558
951673.19621367
941063.196366215
929619.15938608
917313.521528894
904117.261442042
889999.729817388
874928.471876309
858868.948948613
841784.432102922
823635.747014492
804385.170086177
783988.506740289
762391.840966823
739541.60892277
715376.135116173
689820.583066882
662800.711377124
634230.282351368
604001.471417288
571993.131377479
538068.998536173
502047.107908934
463707.590811464
422772.924991011
378852.001785771
331407.650979535
279655.204366343
222559.149912147
)
;

boundaryField
{
    electrode
    {
        type            calculated;
        value           uniform 35258.9761453238;
    }
    ground
    {
        type            calculated;
        value           uniform 190181.040612976;
    }
    otherfaces
    {
        type            empty;
    }
}


// ************************************************************************* //
