/*--------------------------------*- C++ -*----------------------------------*\
| =========                 |                                                 |
| \\      /  F ield         | foam-extend: Open Source CFD                    |
|  \\    /   O peration     | Version:     4.0                                |
|   \\  /    A nd           | Web:         http://www.foam-extend.org         |
|    \\/     M anipulation  |                                                 |
\*---------------------------------------------------------------------------*/
FoamFile
{
    version     2.0;
    format      ascii;
    class       volScalarField;
    location    "8.1e-06";
    object      Arm;
}
// * * * * * * * * * * * * * * * * * * * * * * * * * * * * * * * * * * * * * //

dimensions      [0 0 0 1 0 0 0];

internalField   nonuniform List<scalar> 
300
(
3.57411183456772e+15
3.57598582016421e+15
3.57793330825218e+15
3.57923954614782e+15
3.58005585525727e+15
3.58043445670346e+15
3.58041954886651e+15
3.5800425813815e+15
3.57932921596963e+15
3.57830143242072e+15
3.57697501192775e+15
3.57536403999542e+15
3.57348057063522e+15
3.5713352068701e+15
3.56893740607992e+15
3.56629570864501e+15
3.56341494929366e+15
3.56030370856043e+15
3.55697032535324e+15
3.55342128151983e+15
3.54966277851323e+15
3.54570073798501e+15
3.54154084992304e+15
3.53718853728864e+15
3.53263319299118e+15
3.52789248938581e+15
3.52297014874456e+15
3.51786820669949e+15
3.51260022468917e+15
3.50717106870845e+15
3.50156704692189e+15
3.49579950554534e+15
3.48988652130018e+15
3.48383349626343e+15
3.47764551670042e+15
3.47132737745121e+15
3.46487926918815e+15
3.45830769921865e+15
3.45161973023618e+15
3.44481890301293e+15
3.43790872392167e+15
3.43089446429658e+15
3.42378000687502e+15
3.41656904318148e+15
3.4092650733194e+15
3.40187135778559e+15
3.39438884549486e+15
3.38681896990523e+15
3.37915399134537e+15
3.37139247308462e+15
3.36352186712449e+15
3.35555461323898e+15
3.34748538035515e+15
3.3393318378205e+15
3.33110214597733e+15
3.32281264329182e+15
3.31446664995134e+15
3.30606708212868e+15
3.29761650912526e+15
3.28911535808343e+15
3.28056793513978e+15
3.27197634646823e+15
3.26333723328629e+15
3.25463268783659e+15
3.2458666878531e+15
3.23706475114486e+15
3.22822900601332e+15
3.21936129222102e+15
3.21046319562019e+15
3.20153607275565e+15
3.1925790719458e+15
3.18358505987847e+15
3.17455250465913e+15
3.16548880749146e+15
3.15638047884913e+15
3.14722856364871e+15
3.13803938194251e+15
3.12880885490612e+15
3.11955685171076e+15
3.11025298322865e+15
3.10093169186055e+15
3.09159514404803e+15
3.08224027130459e+15
3.07286930108817e+15
3.06346747238295e+15
3.05404249959767e+15
3.04460606558062e+15
3.03515848942978e+15
3.0256879076236e+15
3.01620202517743e+15
3.00669479018983e+15
2.99712135291124e+15
2.98753675956233e+15
2.97794272489734e+15
2.96833928026688e+15
2.95872645145949e+15
2.94910402018652e+15
2.93947153875091e+15
2.92981810244192e+15
2.92014364352815e+15
2.9104544085038e+15
2.90075163613738e+15
2.89100369896527e+15
2.88123967846391e+15
2.87145041133948e+15
2.86162658831183e+15
2.85178314635289e+15
2.84190056676261e+15
2.83198922276111e+15
2.82205456254317e+15
2.81209472609743e+15
2.80210741957739e+15
2.79208491850518e+15
2.78202500255872e+15
2.77192542861001e+15
2.76176856531521e+15
2.75153559166286e+15
2.74125120874719e+15
2.73091631171132e+15
2.72052280725966e+15
2.71004439104076e+15
2.69949390682852e+15
2.68884248471389e+15
2.67810046303192e+15
2.66727925120533e+15
2.65637663063495e+15
2.64536459415693e+15
2.63426046916145e+15
2.62305348192367e+15
2.61174155879358e+15
2.60030909356059e+15
2.58875219744007e+15
2.57706584339529e+15
2.56522396020305e+15
2.55319017997952e+15
2.54098325521046e+15
2.528607088667e+15
2.51603668864245e+15
2.50325322872915e+15
2.49026575243184e+15
2.47705830855194e+15
2.4636142203909e+15
2.4499013656592e+15
2.43588765673847e+15
2.42154853480687e+15
2.40690368425099e+15
2.39193828621411e+15
2.37663595834045e+15
2.3609661573564e+15
2.34488010986583e+15
2.32839010133672e+15
2.31147138314505e+15
2.29406183194698e+15
2.27616014562105e+15
2.25774804669865e+15
2.23877586161041e+15
2.21920039297519e+15
2.19902099945579e+15
2.17821852490019e+15
2.15674806074829e+15
2.13457401708827e+15
2.11168123890568e+15
2.08803158186069e+15
2.06363747769819e+15
2.03848590829658e+15
2.01252247561034e+15
1.98576792528143e+15
1.95826676842843e+15
1.93004801456044e+15
1.90115365274629e+15
1.87165219425211e+15
1.84157710393111e+15
1.81102079387059e+15
1.7801546920547e+15
1.74917267774436e+15
1.71824464760907e+15
1.68754980245254e+15
1.65728717076274e+15
1.62769537462501e+15
1.59893010443074e+15
1.57114562944521e+15
1.544488910269e+15
1.5190414524491e+15
1.49491783789542e+15
1.47211798154752e+15
1.45055199545473e+15
1.43025941215788e+15
1.41118982863019e+15
1.39325747984134e+15
1.376381846558e+15
1.36046931281082e+15
1.34557153776438e+15
1.33218128340663e+15
1.32537714308272e+15
1.35133510022582e+15
1.41724053625584e+15
1.49704477043224e+15
1.56275204602851e+15
1.62173620903962e+15
1.68322825096339e+15
1.74608810370258e+15
1.80624147339527e+15
1.83898033503159e+15
1.82839216506812e+15
1.78556587861661e+15
1.72868179128167e+15
1.67427211945862e+15
1.6308313369758e+15
1.59974367936135e+15
1.57890706545715e+15
1.56509545904861e+15
1.5565600210597e+15
1.5509238103114e+15
1.54791693974855e+15
1.5455467394685e+15
1.54349716515832e+15
1.54188494818886e+15
1.54030120695977e+15
1.5384548875329e+15
1.53617712361661e+15
1.53334930084621e+15
1.52947973584067e+15
1.5246004784376e+15
1.51892176463217e+15
1.51252283853541e+15
1.50556319976908e+15
1.49809127760752e+15
1.49013968884135e+15
1.48175986800975e+15
1.47301114043846e+15
1.46393128609622e+15
1.45457393642048e+15
1.44499693163666e+15
1.43524020489289e+15
1.42534549706265e+15
1.41536908521737e+15
1.40533217467106e+15
1.39528778580104e+15
1.38525588946857e+15
1.37527476711529e+15
1.3653689066767e+15
1.35555191295011e+15
1.34585805476344e+15
1.33629094349625e+15
1.32687223535258e+15
1.31763055443548e+15
1.30856317075879e+15
1.29968667598635e+15
1.29101067192135e+15
1.28253272568148e+15
1.27426406590226e+15
1.26620376984763e+15
1.25835115146263e+15
1.25070798736375e+15
1.24326756955585e+15
1.23603558615823e+15
1.22901444985073e+15
1.22219052976946e+15
1.21557182993271e+15
1.2091482985695e+15
1.20292036962191e+15
1.19686855661841e+15
1.19099985317838e+15
1.18530631049138e+15
1.17978415425062e+15
1.17442805619559e+15
1.16922879952673e+15
1.16418161909467e+15
1.15927429719813e+15
1.15451095922136e+15
1.14988193686681e+15
1.14538981445596e+15
1.14101888599691e+15
1.1367732787942e+15
1.13263994187708e+15
1.12861646167933e+15
1.12470021742408e+15
1.12089034675283e+15
1.11718797970335e+15
1.11358597368795e+15
1.11008235569987e+15
1.10663604457643e+15
1.10310362514071e+15
1.09946170805184e+15
1.09588164454245e+15
1.09237085543788e+15
1.0889383404356e+15
1.08558735122477e+15
1.08230872782733e+15
1.07870729382623e+15
1.07487565948237e+15
1.07113213651531e+15
1.06748532716076e+15
1.06327696900217e+15
1.0588969683424e+15
1.05442040707543e+15
1.0491399487213e+15
1.04336107866602e+15
1.03668182728482e+15
1.02852712266579e+15
)
;

boundaryField
{
    electrode
    {
        type            zeroGradient;
    }
    ground
    {
        type            zeroGradient;
    }
    otherfaces
    {
        type            empty;
    }
}


// ************************************************************************* //
