/*--------------------------------*- C++ -*----------------------------------*\
| =========                 |                                                 |
| \\      /  F ield         | foam-extend: Open Source CFD                    |
|  \\    /   O peration     | Version:     4.0                                |
|   \\  /    A nd           | Web:         http://www.foam-extend.org         |
|    \\/     M anipulation  |                                                 |
\*---------------------------------------------------------------------------*/
FoamFile
{
    version     2.0;
    format      ascii;
    class       volScalarField;
    location    "8.1e-06";
    object      Arp1;
}
// * * * * * * * * * * * * * * * * * * * * * * * * * * * * * * * * * * * * * //

dimensions      [0 0 0 1 0 0 0];

internalField   nonuniform List<scalar> 
300
(
6.65385527308182e+16
6.65811908753822e+16
6.65543331503124e+16
6.65487430378575e+16
6.65384264036914e+16
6.65238577594272e+16
6.65067084401204e+16
6.64862801725884e+16
6.64626741431692e+16
6.64359050513996e+16
6.640595457485e+16
6.6372823506546e+16
6.63365082876138e+16
6.62970050822224e+16
6.62543102311024e+16
6.62084197528838e+16
6.61593294853232e+16
6.61070350766709e+16
6.60515319789193e+16
6.59928154526271e+16
6.59308805670392e+16
6.58657222018377e+16
6.57973350485381e+16
6.57257136116641e+16
6.56508522106635e+16
6.55727449817393e+16
6.54913858790701e+16
6.540676867722e+16
6.53188869730854e+16
6.52277341876805e+16
6.51333035684099e+16
6.50355881917497e+16
6.49345809650912e+16
6.48302746293832e+16
6.47226617620958e+16
6.46117347793246e+16
6.4497485938913e+16
6.43799073435559e+16
6.42589909432407e+16
6.41347285387412e+16
6.40071117850141e+16
6.38761321939336e+16
6.37417811381626e+16
6.36040498547347e+16
6.34629294482441e+16
6.33184108949506e+16
6.3170485046737e+16
6.30191426345146e+16
6.28643742727265e+16
6.27061704636108e+16
6.25445216008181e+16
6.23794179743646e+16
6.22108497750107e+16
6.20388070984485e+16
6.18632799501766e+16
6.16842582504453e+16
6.15017318387185e+16
6.13156904786362e+16
6.11261238634546e+16
6.09330216204837e+16
6.07363733166364e+16
6.05361684638704e+16
6.03323965239734e+16
6.01250469143217e+16
5.99141090134993e+16
5.96995721663272e+16
5.94814256898369e+16
5.92596588790389e+16
5.90342610121659e+16
5.88052213567442e+16
5.85725291755758e+16
5.83361737320949e+16
5.80961442965822e+16
5.78524301522238e+16
5.76050206005328e+16
5.73539049677646e+16
5.7099072610876e+16
5.68405129232256e+16
5.65782153406905e+16
5.63121693479412e+16
5.60423644840649e+16
5.5768790348573e+16
5.54914366077446e+16
5.521029300013e+16
5.49253493425856e+16
5.46365955364124e+16
5.434402157279e+16
5.40476175389744e+16
5.37473736243974e+16
5.34432801251354e+16
5.31353274482921e+16
5.28235061197107e+16
5.25078067997313e+16
5.21882202934128e+16
5.18647374954916e+16
5.15373493177565e+16
5.12060469174571e+16
5.08708223600555e+16
5.05316682116517e+16
5.0188573272739e+16
4.98415205436454e+16
4.94905065569487e+16
4.91355683021339e+16
4.8776666245549e+16
4.84137727629981e+16
4.80468815288506e+16
4.7675981882651e+16
4.7301062812169e+16
4.69221134753129e+16
4.65391232695852e+16
4.61520818686489e+16
4.57609792308491e+16
4.5365805602126e+16
4.49665515168592e+16
4.45632077986406e+16
4.41557655615465e+16
4.37442162110633e+16
4.33285514455103e+16
4.29087632582547e+16
4.24848439396789e+16
4.20567860802415e+16
4.1624582574108e+16
4.11882266232646e+16
4.07477117428126e+16
4.03030317675035e+16
3.98541808591231e+16
3.94011535156931e+16
3.89439445827055e+16
3.84825492659355e+16
3.80169631473116e+16
3.7547182203707e+16
3.70732028290569e+16
3.65950218609352e+16
3.61126366122377e+16
3.56260449084695e+16
3.51352451324231e+16
3.4640236277238e+16
3.4141018009173e+16
3.36375907425764e+16
3.312995572904e+16
3.26181151633417e+16
3.21020723094602e+16
3.15818316526871e+16
3.10573990754057e+16
3.05287820826499e+16
2.9995990033597e+16
2.9459034506947e+16
2.89179295621285e+16
2.83726923707238e+16
2.78233434533743e+16
2.72699077994716e+16
2.67124150496319e+16
2.61509004656295e+16
2.55854093583088e+16
2.50159851635609e+16
2.44427081688379e+16
2.38656096001729e+16
2.32848754494875e+16
2.27003869246855e+16
2.21127610602685e+16
2.15211971235243e+16
2.0927530975657e+16
2.03293214068071e+16
1.97311708904915e+16
1.91261461433123e+16
1.85242624339756e+16
1.79337164724929e+16
1.73372437773636e+16
1.67360875148553e+16
1.61362956541048e+16
1.55371849530267e+16
1.49510782737603e+16
1.43661017573272e+16
1.37999380998608e+16
1.32400714546105e+16
1.26589627332416e+16
1.21082424125797e+16
1.15940276757027e+16
1.10613573600871e+16
1.05453536934537e+16
1.00839741161309e+16
9.60925582829719e+15
9.15373247600065e+15
8.76576689943068e+15
8.34773104776506e+15
7.97685474905905e+15
7.65543075254707e+15
7.3193191048036e+15
7.0113323405444e+15
6.76765755741223e+15
6.50665781145921e+15
6.27140880018435e+15
6.06368145200056e+15
5.9107359023361e+15
5.7144037281929e+15
5.56462892147146e+15
5.42047646420547e+15
5.33087672868037e+15
5.23936544016958e+15
5.16419437031484e+15
5.10453937196566e+15
5.09995285150588e+15
5.11057942966614e+15
5.14583760089522e+15
5.14745551321363e+15
5.13213835192342e+15
5.09719506191752e+15
5.0497109418451e+15
4.99958354984836e+15
4.9501069431871e+15
4.90360821285579e+15
4.86099598072554e+15
4.82306559992589e+15
4.77398444489301e+15
4.72053133142542e+15
4.67129057031185e+15
4.62677349442514e+15
4.5859052137541e+15
4.5492015656093e+15
4.51559696283839e+15
4.48566410216988e+15
4.45835994388482e+15
4.43427150574488e+15
4.41239923821572e+15
4.39338602558088e+15
4.36185981183822e+15
4.33138214530031e+15
4.30210433456236e+15
4.2755790758782e+15
4.24993106385715e+15
4.22678207436809e+15
4.20424666237575e+15
4.18401013888169e+15
4.164172966962e+15
4.14647768310595e+15
4.12900843693244e+15
4.11355675100341e+15
4.09818664440758e+15
4.08473542644724e+15
4.07123823013182e+15
4.05958756299268e+15
4.04478073118201e+15
4.02407713360312e+15
4.00326516464726e+15
3.98414581883056e+15
3.96477874906622e+15
3.94710480806236e+15
3.92904580537652e+15
3.91270030371912e+15
3.89584101903924e+15
3.88071652729596e+15
3.86496462428324e+15
3.85096640953704e+15
3.83623449355109e+15
3.8232844141807e+15
3.80949127141768e+15
3.79752660758282e+15
3.78461161829756e+15
3.7735746989887e+15
3.76149065036682e+15
3.75133514423123e+15
3.7400374164063e+15
3.73072768757286e+15
3.72017580563893e+15
3.71167654344889e+15
3.69603056602545e+15
3.68153084335744e+15
3.66549388679212e+15
3.65180435742689e+15
3.63645954275169e+15
3.6235348636053e+15
3.60884140679803e+15
3.59664304364258e+15
3.5825600013706e+15
3.57105323957684e+15
3.5575464495617e+15
3.54669742938111e+15
3.5337340626498e+15
3.52351524312043e+15
3.51106542890757e+15
3.50144872430211e+15
3.48948552902346e+15
3.48044829453286e+15
3.46894460920558e+15
3.46045725507688e+15
3.44938061670978e+15
3.44141928787703e+15
3.43074784216653e+15
3.42329393839686e+15
3.41301057403478e+15
3.40604516876195e+15
3.39610969946424e+15
3.38959715897419e+15
3.37999198934811e+15
3.37390455286177e+15
3.36457912017132e+15
3.35888476262859e+15
3.3497785151748e+15
3.34313544430345e+15
3.3251072189166e+15
)
;

boundaryField
{
    electrode
    {
        type            driftDiffusionPositiveIonDensity;
        seec            0;
        fieldName       Arp1;
        value           uniform 6.63554087655581e+16;
    }
    ground
    {
        type            driftDiffusionPositiveIonDensity;
        seec            0;
        fieldName       Arp1;
        value           uniform 3.3251072189166e+15;
    }
    otherfaces
    {
        type            empty;
    }
}


// ************************************************************************* //
