/*--------------------------------*- C++ -*----------------------------------*\
| =========                 |                                                 |
| \\      /  F ield         | foam-extend: Open Source CFD                    |
|  \\    /   O peration     | Version:     4.0                                |
|   \\  /    A nd           | Web:         http://www.foam-extend.org         |
|    \\/     M anipulation  |                                                 |
\*---------------------------------------------------------------------------*/
FoamFile
{
    version     2.0;
    format      ascii;
    class       volVectorField;
    location    "8.1e-06";
    object      E;
}
// * * * * * * * * * * * * * * * * * * * * * * * * * * * * * * * * * * * * * //

dimensions      [0 0 0 1 0 0 0];

internalField   nonuniform List<vector> 
300
(
(5.43477398085024 -0 -0)
(11.032189412008 -0 -0)
(19.4294579716758 -0 -0)
(27.2109967225379 -0 -0)
(34.9479572697701 -0 -0)
(42.7527139981736 -0 -0)
(50.5509244672081 -0 -0)
(58.3640914555971 -0 -0)
(66.1931066833773 -0 -0)
(74.0383062858293 -0 -0)
(81.9019165362851 -0 -0)
(89.7855323547811 -0 -0)
(97.6908320946 -0 -0)
(105.619530392507 -0 -0)
(113.57333738471 -0 -0)
(121.553978503498 -0 -0)
(129.563191821056 -0 -0)
(137.602728607357 -0 -0)
(145.674354487537 -0 -0)
(153.779850203814 -0 -0)
(161.921012493961 -0 -0)
(170.099654957236 -0 -0)
(178.317608932884 -0 -0)
(186.576724445222 -0 -0)
(194.878871127848 -0 -0)
(203.225939177094 -0 -0)
(211.619840334578 -0 -0)
(220.062508894672 -0 -0)
(228.555902753719 -0 -0)
(237.102004409242 -0 -0)
(245.702822121466 -0 -0)
(254.360390999857 -0 -0)
(263.076774119379 -0 -0)
(271.854063818605 -0 -0)
(280.694382782886 -0 -0)
(289.599885397481 -0 -0)
(298.572759037415 -0 -0)
(307.615225392181 -0 -0)
(316.729541864657 -0 -0)
(325.918003014935 -0 -0)
(335.182942076616 -0 -0)
(344.526732422337 -0 -0)
(353.951789248997 -0 -0)
(363.460571202385 -0 -0)
(373.055582088313 -0 -0)
(382.739372707704 -0 -0)
(392.514542635257 -0 -0)
(402.383742242924 -0 -0)
(412.349674647247 -0 -0)
(422.415097821231 -0 -0)
(432.582826775985 -0 -0)
(442.855735828571 -0 -0)
(453.236760997087 -0 -0)
(463.728902398755 -0 -0)
(474.335226917412 -0 -0)
(485.058870810978 -0 -0)
(495.903042575844 -0 -0)
(506.871025864104 -0 -0)
(517.966182536531 -0 -0)
(529.19195591838 -0 -0)
(540.551874099512 -0 -0)
(552.049553495415 -0 -0)
(563.688702502681 -0 -0)
(575.473125394355 -0 -0)
(587.406726305798 -0 -0)
(599.493513518737 -0 -0)
(611.73760391449 -0 -0)
(624.143227605108 -0 -0)
(636.714732867087 -0 -0)
(649.456591268809 -0 -0)
(662.373403101249 -0 -0)
(675.469903011003 -0 -0)
(688.750966072805 -0 -0)
(702.221613978063 -0 -0)
(715.887021708678 -0 -0)
(729.752524525408 -0 -0)
(743.823625259794 -0 -0)
(758.106002057905 -0 -0)
(772.605516571953 -0 -0)
(787.328222538579 -0 -0)
(802.280374825969 -0 -0)
(817.468439115537 -0 -0)
(832.899101883668 -0 -0)
(848.579281205546 -0 -0)
(864.51613799396 -0 -0)
(880.71708798358 -0 -0)
(897.189814354315 -0 -0)
(913.942281159741 -0 -0)
(930.982747497456 -0 -0)
(948.31978251784 -0 -0)
(965.962281067421 -0 -0)
(983.919480715221 -0 -0)
(1002.20098110819 -0 -0)
(1020.81676422321 -0 -0)
(1039.77720806288 -0 -0)
(1059.09309446605 -0 -0)
(1078.77565185417 -0 -0)
(1098.83667522964 -0 -0)
(1119.28855277149 -0 -0)
(1140.14377149013 -0 -0)
(1161.41438539335 -0 -0)
(1183.11425646874 -0 -0)
(1205.26383725489 -0 -0)
(1227.88623738271 -0 -0)
(1251.00052326006 -0 -0)
(1274.62371002513 -0 -0)
(1298.77338034661 -0 -0)
(1323.46799090339 -0 -0)
(1348.72690573814 -0 -0)
(1374.57046403527 -0 -0)
(1401.02004346234 -0 -0)
(1428.09812702527 -0 -0)
(1455.82837484363 -0 -0)
(1484.23570158915 -0 -0)
(1513.34636025195 -0 -0)
(1543.18803260969 -0 -0)
(1573.78992742002 -0 -0)
(1605.1828866813 -0 -0)
(1637.39950111952 -0 -0)
(1670.47423555878 -0 -0)
(1704.44356542029 -0 -0)
(1739.34612527453 -0 -0)
(1775.2228709493 -0 -0)
(1812.11725644608 -0 -0)
(1850.07542741857 -0 -0)
(1889.14643296255 -0 -0)
(1929.38245782442 -0 -0)
(1970.83907726537 -0 -0)
(2013.57553735341 -0 -0)
(2057.6550634826 -0 -0)
(2103.14520072654 -0 -0)
(2150.11818966733 -0 -0)
(2198.65138227386 -0 -0)
(2248.82770279665 -0 -0)
(2300.736159318 -0 -0)
(2354.47241289811 -0 -0)
(2410.13941151232 -0 -0)
(2467.8480979301 -0 -0)
(2527.71820143411 -0 -0)
(2589.87912520828 -0 -0)
(2654.47094309501 -0 -0)
(2721.6455214907 -0 -0)
(2791.56778505234 -0 -0)
(2864.41714773715 -0 -0)
(2940.38913500494 -0 -0)
(3019.69722593187 -0 -0)
(3102.57495368841 -0 -0)
(3189.27829992851 -0 -0)
(3280.08844232503 -0 -0)
(3375.314899812 -0 -0)
(3475.29917168642 -0 -0)
(3580.41890637297 -0 -0)
(3691.09274391023 -0 -0)
(3807.78609428045 -0 -0)
(3931.01720001989 -0 -0)
(4061.36593018483 -0 -0)
(4199.48047784177 -0 -0)
(4346.09319574424 -0 -0)
(4502.01942297963 -0 -0)
(4668.20525480884 -0 -0)
(4845.67843346453 -0 -0)
(5035.68181121817 -0 -0)
(5239.54519748624 -0 -0)
(5458.99304697668 -0 -0)
(5695.69655849485 -0 -0)
(5952.60309134199 -0 -0)
(6235.90067018189 -0 -0)
(6550.57014518146 -0 -0)
(6898.96627436085 -0 -0)
(7284.67860911795 -0 -0)
(7713.26315361562 -0 -0)
(8193.1119298713 -0 -0)
(8733.65515724301 -0 -0)
(9346.03856857602 -0 -0)
(10041.6012869651 -0 -0)
(10824.4607299667 -0 -0)
(11703.8964078093 -0 -0)
(12700.1742184884 -0 -0)
(13823.5426841592 -0 -0)
(15079.1243690397 -0 -0)
(16485.0026047593 -0 -0)
(18051.1861845639 -0 -0)
(19777.7207014028 -0 -0)
(21678.1072341501 -0 -0)
(23751.2649330886 -0 -0)
(25987.5595491287 -0 -0)
(28391.3916404628 -0 -0)
(30948.316770384 -0 -0)
(33634.5066950429 -0 -0)
(36443.8701123225 -0 -0)
(39356.7738208548 -0 -0)
(42342.1969803229 -0 -0)
(45382.0260798575 -0 -0)
(48468.3105952616 -0 -0)
(51576.1605114583 -0 -0)
(54680.4442024868 -0 -0)
(57773.8463214729 -0 -0)
(60856.447489032 -0 -0)
(63928.4812548891 -0 -0)
(66987.1351569795 -0 -0)
(70028.24087716 -0 -0)
(73062.9909709641 -0 -0)
(76116.1142237647 -0 -0)
(79193.788586163 -0 -0)
(82287.2131180125 -0 -0)
(85380.5813227298 -0 -0)
(88461.4707850631 -0 -0)
(91519.1978732196 -0 -0)
(94548.4008716036 -0 -0)
(97547.980577397 -0 -0)
(100518.807193137 -0 -0)
(103462.860596632 -0 -0)
(106382.682351407 -0 -0)
(109276.296878089 -0 -0)
(112139.008544575 -0 -0)
(114970.762320015 -0 -0)
(117774.24862895 -0 -0)
(120551.990414714 -0 -0)
(123306.337853884 -0 -0)
(126039.478475494 -0 -0)
(128753.457450016 -0 -0)
(131450.172935543 -0 -0)
(134131.387639976 -0 -0)
(136798.742283013 -0 -0)
(139453.767863819 -0 -0)
(142093.553853393 -0 -0)
(144714.643816956 -0 -0)
(147317.716815281 -0 -0)
(149903.965856599 -0 -0)
(152474.486611866 -0 -0)
(155030.298231938 -0 -0)
(157572.34027924 -0 -0)
(160101.491881147 -0 -0)
(162618.567477759 -0 -0)
(165124.334078268 -0 -0)
(167619.506339432 -0 -0)
(170104.761362049 -0 -0)
(172580.732543621 -0 -0)
(175048.023510707 -0 -0)
(177507.199430258 -0 -0)
(179958.803408016 -0 -0)
(182402.440550845 -0 -0)
(184835.380785482 -0 -0)
(187255.813051724 -0 -0)
(189664.215073943 -0 -0)
(192061.022524182 -0 -0)
(194446.671187549 -0 -0)
(196821.555398573 -0 -0)
(199186.075602881 -0 -0)
(201540.593407939 -0 -0)
(203885.476815407 -0 -0)
(206221.059548775 -0 -0)
(208547.681009108 -0 -0)
(210865.648543978 -0 -0)
(213175.277925884 -0 -0)
(215476.852172014 -0 -0)
(217770.667932697 -0 -0)
(220056.989772653 -0 -0)
(222336.09741949 -0 -0)
(224608.240987928 -0 -0)
(226873.686071861 -0 -0)
(229132.669519462 -0 -0)
(231385.446129013 -0 -0)
(233632.240565709 -0 -0)
(235873.296972362 -0 -0)
(238107.07878527 -0 -0)
(240331.776113703 -0 -0)
(242547.270794687 -0 -0)
(244753.806931845 -0 -0)
(246951.593041473 -0 -0)
(249140.859536234 -0 -0)
(251321.802661875 -0 -0)
(253494.641295631 -0 -0)
(255659.559283727 -0 -0)
(257816.765025206 -0 -0)
(259966.432166188 -0 -0)
(262108.75888646 -0 -0)
(264243.908911793 -0 -0)
(266372.072137307 -0 -0)
(268493.403288775 -0 -0)
(270608.083797025 -0 -0)
(272716.260288882 -0 -0)
(274818.107342702 -0 -0)
(276913.763375121 -0 -0)
(279003.39414803 -0 -0)
(281087.128296988 -0 -0)
(283165.124311884 -0 -0)
(285237.504373449 -0 -0)
(287304.421312927 -0 -0)
(289365.991989566 -0 -0)
(291422.363731937 -0 -0)
(293473.641224861 -0 -0)
(295519.960885851 -0 -0)
(297561.422276032 -0 -0)
(299598.15329238 -0 -0)
(301630.237974973 -0 -0)
(303657.794088458 -0 -0)
(305680.887038316 -0 -0)
(307699.239715891 -0 -0)
(309710.149836576 -0 -0)
)
;

boundaryField
{
    electrode
    {
        type            calculated;
        value           uniform (4.28115863996937 -0 -0);
    }
    ground
    {
        type            calculated;
        value           uniform (310712.880739405 -0 -0);
    }
    otherfaces
    {
        type            empty;
    }
}


// ************************************************************************* //
