/*--------------------------------*- C++ -*----------------------------------*\
| =========                 |                                                 |
| \\      /  F ield         | foam-extend: Open Source CFD                    |
|  \\    /   O peration     | Version:     4.0                                |
|   \\  /    A nd           | Web:         http://www.foam-extend.org         |
|    \\/     M anipulation  |                                                 |
\*---------------------------------------------------------------------------*/
FoamFile
{
    version     2.0;
    format      ascii;
    class       volScalarField;
    location    "8.1e-06";
    object      electron;
}
// * * * * * * * * * * * * * * * * * * * * * * * * * * * * * * * * * * * * * //

dimensions      [0 0 0 1 0 0 0];

internalField   nonuniform List<scalar> 
300
(
6.6550270313883e+16
6.65484843992821e+16
6.6543886484425e+16
6.65360861463752e+16
6.65251449995677e+16
6.65110386945256e+16
6.64937614742582e+16
6.64733126676999e+16
6.64496890433448e+16
6.64228878337537e+16
6.63929060794001e+16
6.6359740574577e+16
6.63233879324219e+16
6.62838445647433e+16
6.62411066843984e+16
6.61951703070666e+16
6.61460312515856e+16
6.60936851409937e+16
6.6038127403563e+16
6.59793532739105e+16
6.59173577942035e+16
6.58521358154522e+16
6.57836819988976e+16
6.57119908174876e+16
6.56370565574429e+16
6.55588733199161e+16
6.54774350227459e+16
6.53927354023043e+16
6.53047680154353e+16
6.52135262414968e+16
6.51190032844965e+16
6.50211921753186e+16
6.49200857740592e+16
6.48156767724489e+16
6.47079576963773e+16
6.45969209085268e+16
6.44825586110921e+16
6.43648628486061e+16
6.4243825510869e+16
6.41194383359743e+16
6.39916929134323e+16
6.38605806874008e+16
6.3726092960016e+16
6.35882208948146e+16
6.34469555202632e+16
6.33022877333805e+16
6.31542083034633e+16
6.30027078759075e+16
6.28477769761208e+16
6.26894060135378e+16
6.25275852857241e+16
6.23623049825727e+16
6.21935551905864e+16
6.20213258972549e+16
6.18456069955149e+16
6.16663882882915e+16
6.14836594931259e+16
6.12974102468751e+16
6.11076301104914e+16
6.09143085738705e+16
6.07174350607694e+16
6.05169989337911e+16
6.0312989499428e+16
6.01053960131604e+16
5.98942076846103e+16
5.96794136827449e+16
5.94610031411158e+16
5.92389651631408e+16
5.90132888274185e+16
5.87839631930678e+16
5.85509773050872e+16
5.83143201997339e+16
5.80739809099041e+16
5.7829948470516e+16
5.75822119238945e+16
5.73307603251312e+16
5.70755827474298e+16
5.68166682874285e+16
5.65540060704793e+16
5.62875852558816e+16
5.601739504207e+16
5.57434246717289e+16
5.54656634368414e+16
5.51841006836603e+16
5.4898725817581e+16
5.46095283079182e+16
5.43164976925689e+16
5.40196235825522e+16
5.37188956664125e+16
5.34143037144834e+16
5.31058375830291e+16
5.27934872182249e+16
5.24772426597804e+16
5.21570940441245e+16
5.18330316080579e+16
5.15050456942589e+16
5.11731267552484e+16
5.08372653446956e+16
5.04974521012274e+16
5.01536777894926e+16
4.98059334365704e+16
4.94542102443497e+16
4.90984986711267e+16
4.87387874661187e+16
4.83750640563959e+16
4.80073155281155e+16
4.76355290550714e+16
4.72596919799003e+16
4.68797918325324e+16
4.64958163300115e+16
4.61077533707235e+16
4.57155910267708e+16
4.53193175353786e+16
4.49189212895385e+16
4.45143908278782e+16
4.41057148237186e+16
4.36928820732462e+16
4.32758814827208e+16
4.2854702054642e+16
4.242933287278e+16
4.19997630859703e+16
4.15659818905655e+16
4.11279785114269e+16
4.06857421813216e+16
4.02392621185876e+16
3.97885275029083e+16
3.93335274490221e+16
3.88742509781864e+16
3.84106869871845e+16
3.79428242146518e+16
3.74706512044712e+16
3.69941562659637e+16
3.65133274305742e+16
3.60281524047181e+16
3.55386185184353e+16
3.50447126694447e+16
3.45464212621643e+16
3.40437301412228e+16
3.3536624518932e+16
3.30250888961586e+16
3.25091069759713e+16
3.19886615693947e+16
3.14637344925454e+16
3.09343064543893e+16
3.04003569342801e+16
2.98618640484884e+16
2.93188044047331e+16
2.87711529439954e+16
2.82188827686099e+16
2.76619649561134e+16
2.71003683578084e+16
2.6534059381797e+16
2.59630017642391e+16
2.5387156312953e+16
2.48064806687417e+16
2.42209289976963e+16
2.3630451792658e+16
2.30349954050173e+16
2.24345022382222e+16
2.18289095921037e+16
2.1218150757324e+16
2.06021529505329e+16
1.99808381332244e+16
1.93541156124094e+16
1.87218793222288e+16
1.80839748489925e+16
1.74400415072045e+16
1.67894985109683e+16
1.61317855711266e+16
1.54664738101953e+16
1.47932005267305e+16
1.41115734983484e+16
1.34211497417425e+16
1.27215050472383e+16
1.20123489026007e+16
1.12938975549893e+16
1.05670573111865e+16
9.83312628450306e+15
9.09396062238037e+15
8.35246187018244e+15
7.61243723040733e+15
6.87852632749298e+15
6.15639885422154e+15
5.45250155853738e+15
4.77385141291085e+15
4.12787278104522e+15
3.52174624207515e+15
2.96191438014523e+15
2.4537592196926e+15
2.00102891452822e+15
1.6055244383355e+15
1.26710002694442e+15
983695583599411
751533190628870
565514274979068
419529896638594
307428443622030
223003968887003
160390648154870
114009689135245
78992242916526.5
53515508442444.7
35427402737641.2
22465477717495.3
13662189014652.5
8161810195121.36
4993555832240.33
3258637474067.96
2317758299566.66
1798078423887.96
1503038649363.81
1331575109971.7
1230672600468.56
1171563122267.66
1137994766679.15
1120229993766.28
1112102850711.95
1109563431916.16
1109920843821.51
1111690218481.95
1113677794062.02
1115002693698.02
1115247965720.21
1114063835923.45
1111234235093.24
1106656047821.07
1100303034625.26
1092203146058.05
1082422400750.39
1071053956630.14
1058209886606.74
1044014829964.54
1028601002568.32
1012104251260.49
994660937032.626
976405445016.549
957468319110.441
937974177301.109
918041500598.191
897770363352.6
877252600435.85
856585395632.656
835861180637.701
815165455696.093
794575523676.346
774160096868.093
753979576737.112
734086444962.754
714525732380.743
695335520169.025
676547459267.144
658187302501.878
640275428734.878
622827494851.641
605854989260.965
589367287679.107
573367376383.244
557851645836.021
542818851802.161
528266851283.915
514189337669.335
500578454250.171
487425031442.636
474719017664.279
462449578713.642
450605449493.244
439175267608.309
428147514905.5
417510409363.928
407251897094.685
397359354623.788
387817569405.213
378601489882.31
369689877422.602
361072842895.585
352741519316.823
344688162363.363
336905583814.945
329387220692.942
322127181644.745
315120296393.813
308362230705.603
301848673702.999
295575337564.331
289518591712.918
283647349974.04
277958288285.86
272465805962.787
267186577647.501
262138106985.351
257285048837.151
252608329687.383
248164954282.293
243980725574.983
240076942149.13
236545282418.446
233520278282.125
231278290737.466
230319967198.294
231480309218.767
)
;

boundaryField
{
    electrode
    {
        type            driftDiffusionElectronDensity;
        seec            0.05;
        Edepend         1;
        field_emission  0;
        field_enhancement_factor 55;
        work_function   5;
        value           uniform 6.65502703138831e+16;
    }
    ground
    {
        type            driftDiffusionElectronDensity;
        seec            0.05;
        Edepend         1;
        field_emission  0;
        field_enhancement_factor 55;
        work_function   5;
        value           uniform 233723062749.618;
    }
    otherfaces
    {
        type            empty;
    }
}


// ************************************************************************* //
