/*--------------------------------*- C++ -*----------------------------------*\
| =========                 |                                                 |
| \\      /  F ield         | foam-extend: Open Source CFD                    |
|  \\    /   O peration     | Version:     4.0                                |
|   \\  /    A nd           | Web:         http://www.foam-extend.org         |
|    \\/     M anipulation  |                                                 |
\*---------------------------------------------------------------------------*/
FoamFile
{
    version     2.0;
    format      ascii;
    class       volVectorField;
    location    "8.1e-06";
    object      J_electron;
}
// * * * * * * * * * * * * * * * * * * * * * * * * * * * * * * * * * * * * * //

dimensions      [1 -1 -1 0 0 0 0];

internalField   nonuniform List<vector> 
300
(
(-1.33542710127082e+19 0 0)
(-1.37069508401944e+19 0 0)
(-1.62015820790046e+19 0 0)
(-1.57016259776225e+19 0 0)
(-1.56979185834948e+19 0 0)
(-1.56834418870952e+19 0 0)
(-1.56169864763592e+19 0 0)
(-1.55669473210275e+19 0 0)
(-1.55144798562923e+19 0 0)
(-1.54613290941666e+19 0 0)
(-1.54085379329661e+19 0 0)
(-1.53556096430961e+19 0 0)
(-1.53026380207307e+19 0 0)
(-1.52496268089401e+19 0 0)
(-1.51965622948834e+19 0 0)
(-1.51434443801361e+19 0 0)
(-1.50902693769285e+19 0 0)
(-1.50370338923243e+19 0 0)
(-1.49837346916637e+19 0 0)
(-1.49303684976253e+19 0 0)
(-1.48769321015119e+19 0 0)
(-1.48234223198654e+19 0 0)
(-1.47698359645507e+19 0 0)
(-1.47161699160318e+19 0 0)
(-1.46624210774338e+19 0 0)
(-1.46085863763071e+19 0 0)
(-1.45546627917916e+19 0 0)
(-1.45006473220521e+19 0 0)
(-1.44465370589244e+19 0 0)
(-1.43923290282783e+19 0 0)
(-1.43380203948063e+19 0 0)
(-1.4283608356438e+19 0 0)
(-1.4229090031483e+19 0 0)
(-1.41744628097117e+19 0 0)
(-1.41197239119952e+19 0 0)
(-1.40648707124918e+19 0 0)
(-1.40099006317338e+19 0 0)
(-1.39548111217176e+19 0 0)
(-1.38995996913159e+19 0 0)
(-1.38442638694857e+19 0 0)
(-1.37888013411557e+19 0 0)
(-1.37332097066659e+19 0 0)
(-1.36774867188981e+19 0 0)
(-1.36216301695085e+19 0 0)
(-1.35656378618253e+19 0 0)
(-1.35095077645061e+19 0 0)
(-1.345323776312e+19 0 0)
(-1.33968259289147e+19 0 0)
(-1.33402703243546e+19 0 0)
(-1.32835691060978e+19 0 0)
(-1.32267204797984e+19 0 0)
(-1.31697226950249e+19 0 0)
(-1.31125741594115e+19 0 0)
(-1.30552731914695e+19 0 0)
(-1.29978183316291e+19 0 0)
(-1.2940208074131e+19 0 0)
(-1.28824410436907e+19 0 0)
(-1.28245159177458e+19 0 0)
(-1.27664313966492e+19 0 0)
(-1.27081863391842e+19 0 0)
(-1.26497795696175e+19 0 0)
(-1.25912100544648e+19 0 0)
(-1.25324767788946e+19 0 0)
(-1.24735788567251e+19 0 0)
(-1.24145153863886e+19 0 0)
(-1.23552855692969e+19 0 0)
(-1.22958887008584e+19 0 0)
(-1.22363240881175e+19 0 0)
(-1.21765911381491e+19 0 0)
(-1.21166892810421e+19 0 0)
(-1.20566180728283e+19 0 0)
(-1.19963770080159e+19 0 0)
(-1.19359657898926e+19 0 0)
(-1.18753840549473e+19 0 0)
(-1.18146315221881e+19 0 0)
(-1.17537080069493e+19 0 0)
(-1.16926133295406e+19 0 0)
(-1.16313473281268e+19 0 0)
(-1.15699099257542e+19 0 0)
(-1.15083010849804e+19 0 0)
(-1.14465207013632e+19 0 0)
(-1.13845688809145e+19 0 0)
(-1.13224455590028e+19 0 0)
(-1.12601508317978e+19 0 0)
(-1.11976847225662e+19 0 0)
(-1.11350473061979e+19 0 0)
(-1.10722386224873e+19 0 0)
(-1.10092587344965e+19 0 0)
(-1.09461076791274e+19 0 0)
(-1.08827856342756e+19 0 0)
(-1.08192924781332e+19 0 0)
(-1.0755627441194e+19 0 0)
(-1.06917900020922e+19 0 0)
(-1.06277835211848e+19 0 0)
(-1.05636138791815e+19 0 0)
(-1.04992687407702e+19 0 0)
(-1.04347021772765e+19 0 0)
(-1.03699249364059e+19 0 0)
(-1.03051909142471e+19 0 0)
(-1.02406910375137e+19 0 0)
(-1.01752034919265e+19 0 0)
(-1.01060902779507e+19 0 0)
(-1.00357134368695e+19 0 0)
(-9.9679073963973e+18 0 0)
(-9.90152198250824e+18 0 0)
(-9.83517795028671e+18 0 0)
(-9.76865214698095e+18 0 0)
(-9.701878169859e+18 0 0)
(-9.63483527394571e+18 0 0)
(-9.56751627473597e+18 0 0)
(-9.49991672857389e+18 0 0)
(-9.43203251864574e+18 0 0)
(-9.36385905345325e+18 0 0)
(-9.29539098384689e+18 0 0)
(-9.22662223398463e+18 0 0)
(-9.15754569580413e+18 0 0)
(-9.08815339053908e+18 0 0)
(-9.01843616373041e+18 0 0)
(-8.94838374236108e+18 0 0)
(-8.87798450124122e+18 0 0)
(-8.80722545780615e+18 0 0)
(-8.73609200526898e+18 0 0)
(-8.66456788125876e+18 0 0)
(-8.59263491100482e+18 0 0)
(-8.52027286205288e+18 0 0)
(-8.44745920913657e+18 0 0)
(-8.374168951472e+18 0 0)
(-8.30037427178281e+18 0 0)
(-8.22604433454478e+18 0 0)
(-8.1511448485057e+18 0 0)
(-8.07563782533258e+18 0 0)
(-7.99948107129658e+18 0 0)
(-7.92262774639192e+18 0 0)
(-7.84502592471617e+18 0 0)
(-7.76661784104796e+18 0 0)
(-7.68733943213484e+18 0 0)
(-7.60711941090076e+18 0 0)
(-7.52587853691041e+18 0 0)
(-7.44352862643631e+18 0 0)
(-7.35997144441133e+18 0 0)
(-7.27509752966703e+18 0 0)
(-7.1887847330855e+18 0 0)
(-7.10089673923048e+18 0 0)
(-7.0112810345064e+18 0 0)
(-6.91976746100693e+18 0 0)
(-6.82616447444189e+18 0 0)
(-6.7302591542235e+18 0 0)
(-6.63181008928191e+18 0 0)
(-6.53054985149455e+18 0 0)
(-6.42617225863024e+18 0 0)
(-6.31833915094152e+18 0 0)
(-6.20668113125586e+18 0 0)
(-6.09069382584448e+18 0 0)
(-5.9701040511556e+18 0 0)
(-5.84388994741672e+18 0 0)
(-5.71242566722991e+18 0 0)
(-5.572817587517e+18 0 0)
(-5.42940408166062e+18 0 0)
(-5.27006271301013e+18 0 0)
(-5.11478382992346e+18 0 0)
(-4.92737862694234e+18 0 0)
(-4.75320701375375e+18 0 0)
(-4.50725184770304e+18 0 0)
(-4.28821859351711e+18 0 0)
(-3.85615117269493e+18 0 0)
(-2.85823979001217e+18 0 0)
(-2.25755201669798e+18 0 0)
(-2.2684968654618e+18 0 0)
(-2.11505694807215e+18 0 0)
(-1.74394506639154e+18 0 0)
(-1.03712661987813e+18 0 0)
(-4.01136125343695e+17 0 0)
(1.81211450029638e+17 0 0)
(5.18494312111014e+17 0 0)
(-3.60381995185865e+17 0 0)
(-7.29645645908935e+17 0 0)
(-5.28874409694331e+16 0 0)
(-8.18837053511827e+17 0 0)
(-2.17661332009989e+18 0 0)
(-2.2567344409485e+18 0 0)
(-3.08589844332072e+18 0 0)
(-4.08512627780302e+18 0 0)
(-3.97970345446133e+18 0 0)
(-4.26992423762028e+18 0 0)
(-4.02277737222164e+18 0 0)
(-2.18963134824579e+18 0 0)
(-4.254280614255e+17 0 0)
(1.84391880824744e+18 0 0)
(5.08474475997456e+18 0 0)
(7.94434587203522e+18 0 0)
(1.03646480577368e+19 0 0)
(1.23798624428145e+19 0 0)
(1.35486027000439e+19 0 0)
(1.37047471892453e+19 0 0)
(1.36567967742406e+19 0 0)
(1.05226906143422e+19 0 0)
(1.00399914117156e+19 0 0)
(6.92661732811748e+18 0 0)
(6.8340644688743e+18 0 0)
(4.37972803325405e+18 0 0)
(-3.20888756077206e+18 0 0)
(1.98275856230393e+18 0 0)
(-1.57084972252248e+18 0 0)
(-2.13525956339854e+18 0 0)
(-2.05112440450333e+18 0 0)
(-2.04753556001235e+18 0 0)
(-2.25346570664375e+18 0 0)
(-2.54565096911218e+18 0 0)
(-2.7853614603041e+18 0 0)
(-2.91720996373483e+18 0 0)
(-2.97508800261871e+18 0 0)
(-2.98429542789961e+18 0 0)
(-2.97214373166276e+18 0 0)
(-2.94441533982363e+18 0 0)
(-2.90969497687505e+18 0 0)
(-2.87406085261227e+18 0 0)
(-2.83280585529153e+18 0 0)
(-2.7878691258134e+18 0 0)
(-2.74170584071754e+18 0 0)
(-2.69531213156376e+18 0 0)
(-2.6491862388051e+18 0 0)
(-2.60208707683036e+18 0 0)
(-2.55529043164108e+18 0 0)
(-2.50794323262766e+18 0 0)
(-2.4604131233465e+18 0 0)
(-2.41287406959084e+18 0 0)
(-2.36543120274802e+18 0 0)
(-2.31819851117161e+18 0 0)
(-2.27126854960461e+18 0 0)
(-2.22472568982641e+18 0 0)
(-2.17864661690856e+18 0 0)
(-2.13310094391721e+18 0 0)
(-2.08815137220356e+18 0 0)
(-2.04385378364181e+18 0 0)
(-2.00025688078695e+18 0 0)
(-1.95740463243451e+18 0 0)
(-1.91532464619284e+18 0 0)
(-1.87407249331666e+18 0 0)
(-1.83350863516198e+18 0 0)
(-1.79405918042942e+18 0 0)
(-1.75538436992783e+18 0 0)
(-1.71757537272546e+18 0 0)
(-1.68064556067694e+18 0 0)
(-1.64459917797658e+18 0 0)
(-1.60944182465124e+18 0 0)
(-1.5751691067304e+18 0 0)
(-1.54177413230885e+18 0 0)
(-1.50924682536113e+18 0 0)
(-1.47757511907826e+18 0 0)
(-1.44674478840972e+18 0 0)
(-1.41674030699686e+18 0 0)
(-1.38754438589834e+18 0 0)
(-1.35914078071025e+18 0 0)
(-1.33150778075074e+18 0 0)
(-1.30465322085661e+18 0 0)
(-1.27845446288013e+18 0 0)
(-1.25303573777421e+18 0 0)
(-1.2283431660553e+18 0 0)
(-1.20424467660889e+18 0 0)
(-1.18082604901878e+18 0 0)
(-1.1580311913538e+18 0 0)
(-1.13584620080373e+18 0 0)
(-1.11425052299897e+18 0 0)
(-1.09322597921384e+18 0 0)
(-1.07275613539368e+18 0 0)
(-1.05282060082428e+18 0 0)
(-1.03339938540267e+18 0 0)
(-1.01447699375343e+18 0 0)
(-9.96036234366067e+17 0 0)
(-9.78058072476193e+17 0 0)
(-9.60509973070874e+17 0 0)
(-9.43334192125899e+17 0 0)
(-9.26793080341565e+17 0 0)
(-9.10534085583053e+17 0 0)
(-8.94678533051429e+17 0 0)
(-8.79198712152929e+17 0 0)
(-8.64090793597518e+17 0 0)
(-8.49342365021563e+17 0 0)
(-8.34942856887748e+17 0 0)
(-8.20880726318555e+17 0 0)
(-8.07146511560245e+17 0 0)
(-7.93719222377449e+17 0 0)
(-7.8060717923704e+17 0 0)
(-7.67596896665159e+17 0 0)
(-7.55214717933071e+17 0 0)
(-7.43148982876591e+17 0 0)
(-7.31262702072838e+17 0 0)
(-7.19635554892106e+17 0 0)
(-7.08303344501635e+17 0 0)
(-6.96794504190648e+17 0 0)
(-6.86572302044405e+17 0 0)
(-6.76128833066657e+17 0 0)
(-6.65672541582763e+17 0 0)
(-6.56013633506552e+17 0 0)
(-6.46668045554577e+17 0 0)
(-6.37470719231934e+17 0 0)
(-6.29275631010226e+17 0 0)
(-6.22051415608363e+17 0 0)
(-6.15665876574631e+17 0 0)
(-6.0474697059793e+17 0 0)
)
;

boundaryField
{
    electrode
    {
        type            calculated;
        value           uniform (-1.59649468058868e+19 0 0);
    }
    ground
    {
        type            calculated;
        value           uniform (-6.02096635110142e+17 0 0);
    }
    otherfaces
    {
        type            empty;
    }
}


// ************************************************************************* //
