/*--------------------------------*- C++ -*----------------------------------*\
| =========                 |                                                 |
| \\      /  F ield         | foam-extend: Open Source CFD                    |
|  \\    /   O peration     | Version:     4.0                                |
|   \\  /    A nd           | Web:         http://www.foam-extend.org         |
|    \\/     M anipulation  |                                                 |
\*---------------------------------------------------------------------------*/
FoamFile
{
    version     2.0;
    format      ascii;
    class       volScalarField;
    location    "8.1e-06";
    object      N_electronMean;
}
// * * * * * * * * * * * * * * * * * * * * * * * * * * * * * * * * * * * * * //

dimensions      [0 0 0 1 0 0 0];

internalField   nonuniform List<scalar> 
300
(
6.15067002279615e+16
6.15051701867489e+16
6.15010108513627e+16
6.14937701159565e+16
6.1483490273685e+16
6.14701378982145e+16
6.14536961151248e+16
6.14341561068418e+16
6.14115089393676e+16
6.13857479300365e+16
6.13568680312847e+16
6.1324865644268e+16
6.12897385310675e+16
6.12514856859767e+16
6.12101072524202e+16
6.11656044400833e+16
6.11179794539274e+16
6.10672354333526e+16
6.10133763930069e+16
6.09564071667449e+16
6.08963333580612e+16
6.08331612931468e+16
6.07668979755964e+16
6.06975510400243e+16
6.06251287181385e+16
6.05496398120672e+16
6.047109364577e+16
6.03895000167111e+16
6.03048691563938e+16
6.0217211677265e+16
6.01265385382637e+16
6.00328610353265e+16
5.99361907530468e+16
5.98365394870898e+16
5.97339191883656e+16
5.96283419182979e+16
5.95198198048039e+16
5.9408365001955e+16
5.92939896459098e+16
5.91767058101944e+16
5.90565254689867e+16
5.89334604597571e+16
5.88075224389237e+16
5.86787228413459e+16
5.85470728453715e+16
5.84125833388212e+16
5.82752648873464e+16
5.81351277062994e+16
5.79921816391504e+16
5.784643614222e+16
5.76979002846968e+16
5.75465827493976e+16
5.73924918093263e+16
5.72356352838536e+16
5.70760204758876e+16
5.69136541072554e+16
5.67485422634157e+16
5.65806903502466e+16
5.64101030611267e+16
5.62367843451075e+16
5.60607373784318e+16
5.58819645381698e+16
5.57004673729452e+16
5.55162465969569e+16
5.53293021120518e+16
5.51396329801626e+16
5.49472373491923e+16
5.47521124092251e+16
5.45542543719424e+16
5.43536584498864e+16
5.415031883564e+16
5.39442286933289e+16
5.37353801734178e+16
5.35237644025945e+16
5.33093714449481e+16
5.30921903051689e+16
5.28722089474398e+16
5.26494142769508e+16
5.24237920860842e+16
5.21953270218202e+16
5.19640025831787e+16
5.17298010656011e+16
5.14927035075363e+16
5.12526896737506e+16
5.10097380491923e+16
5.07638258505418e+16
5.05149290032495e+16
5.02630220904759e+16
5.00080783321743e+16
4.97500695860005e+16
4.9488966329133e+16
4.92247376734687e+16
4.89573513901156e+16
4.86867738461792e+16
4.84129699455436e+16
4.8135903116421e+16
4.78555352984763e+16
4.75718269307118e+16
4.72847369399172e+16
4.69942227384917e+16
4.67002402207078e+16
4.64027437401002e+16
4.61016861182606e+16
4.57970186810417e+16
4.54886912485723e+16
4.51766521289544e+16
4.48608481241701e+16
4.45412245235881e+16
4.42177251117896e+16
4.38902921536892e+16
4.35588663715288e+16
4.32233869421127e+16
4.288379150378e+16
4.25400161782874e+16
4.21919955784465e+16
4.18396628159042e+16
4.14829495501005e+16
4.11217860125223e+16
4.07561009773883e+16
4.03858217401645e+16
4.00108741448448e+16
3.96311826273431e+16
3.92466702517795e+16
3.88572587552668e+16
3.84628685419516e+16
3.80634186413801e+16
3.76588267212698e+16
3.72490091226565e+16
3.68338808633593e+16
3.64133556500087e+16
3.59873459132024e+16
3.55557628415751e+16
3.51185164069423e+16
3.46755153868816e+16
3.42266674409845e+16
3.37718792017457e+16
3.33110562787752e+16
3.28441032245162e+16
3.23709235431752e+16
3.18914197296397e+16
3.14054932814613e+16
3.09130447045464e+16
3.04139735360624e+16
2.99081783775724e+16
2.93955569765821e+16
2.88760062942958e+16
2.83494224946165e+16
2.78157009179162e+16
2.72747360505415e+16
2.67264215487097e+16
2.61706503195275e+16
2.56073145269184e+16
2.50363056093688e+16
2.44575143570103e+16
2.38708309089493e+16
2.32761448453121e+16
2.26733453089165e+16
2.20623212412878e+16
2.14429613159463e+16
2.0815153575546e+16
2.01787830918872e+16
1.95337190351165e+16
1.88797955196356e+16
1.8216803484866e+16
1.75444899879045e+16
1.68625464948869e+16
1.61706040824224e+16
1.54682739862786e+16
1.47551960690635e+16
1.40310539698084e+16
1.32956011427345e+16
1.25487458554494e+16
1.17906872000595e+16
1.10220766395677e+16
1.02442516451268e+16
9.45946847380845e+15
8.67100180883616e+15
7.88327661404562e+15
7.10202858072183e+15
6.33421332331266e+15
5.58773827295714e+15
4.87115572980941e+15
4.19312017417342e+15
3.56170060219361e+15
2.98377354621387e+15
2.46441963346649e+15
2.00647430501956e+15
1.61041203975192e+15
1.27444726316792e+15
994843856718781
766423848125803
583132225532182
438559117175798
326390331722798
240401660052677
175252266303185
126540185719886
90509149235457.1
64034059156914.8
44540715493360.6
30428339990998.5
20481904698368.2
13529850224750.4
8806703129030.21
5789811340772.25
3987809423659.7
2963103037658
2388947323338.62
2061625440057.93
1868175306488.31
1748915583778.07
1672200768413.37
1620616456394.39
1584213944358.76
1557057677730.69
1535440478499.75
1516936752624.92
1499930591299.35
1483411667991.78
1466751220903.87
1449480948958.67
1431287192775.53
1412019391814.74
1391600668136.39
1370026715841.26
1347340063135.38
1323616262431.25
1298951863622.83
1273456590610.64
1247247562769.99
1220444967481.28
1193169359376.55
1165538586245.57
1137666213961.46
1109660369850
1081622441361.12
1053646337730.92
1025818508400.2
998217118131.555
970911499549.035
943961529494.297
917419473807.869
891332697023.197
865743202034.767
840687254756.202
816195154526.553
792290670495.834
768991979385.004
746312205555.96
724260094317.864
702841338840.696
682058472665.911
661910712292.764
642394265203.831
623502954027.576
605229671335.08
587563996459.027
570491277983.717
553998057576.179
538071848879.699
522698498309.958
507862619450.952
493548369580.324
479739478675.961
466419561365.293
453572424445.912
441181242186.588
429228949189.22
417698886475.276
406574382452.114
395838361547.288
385473152923.466
375462259344.931
365792663066.975
356453340355.401
347434089238.309
338725375987.489
330318210103.65
322204355927.478
314376370235.338
306827508633.037
299551111966.398
292539872433.904
285777204319.413
279236726652.294
272905990382.853
266791179598.084
260902691393.031
255251737758.832
249829688903.09
244610679423.911
239603634767.888
234852726663.662
230361598151.662
226157520989.33
222323320314.656
218984356999.95
216399426657.225
214995591177.954
215531841858.927
)
;

boundaryField
{
    electrode
    {
        type            calculated;
        value           uniform 6.1506700228108e+16;
    }
    ground
    {
        type            calculated;
        value           uniform 217312964457.546;
    }
    otherfaces
    {
        type            empty;
    }
}


// ************************************************************************* //
