/*--------------------------------*- C++ -*----------------------------------*\
| =========                 |                                                 |
| \\      /  F ield         | foam-extend: Open Source CFD                    |
|  \\    /   O peration     | Version:     4.0                                |
|   \\  /    A nd           | Web:         http://www.foam-extend.org         |
|    \\/     M anipulation  |                                                 |
\*---------------------------------------------------------------------------*/
FoamFile
{
    version     2.0;
    format      ascii;
    class       volScalarField;
    location    "8.1e-06";
    object      Phi;
}
// * * * * * * * * * * * * * * * * * * * * * * * * * * * * * * * * * * * * * //

dimensions      [0 0 0 1 0 0 0];

internalField   nonuniform List<scalar> 
300
(
699.999928647356
699.999709034379
699.999193168062
699.998413737181
699.997379101614
699.996083873362
699.994528920681
699.992713811731
699.99063798125
699.988300937952
699.985702094165
699.982840810183
699.979716392007
699.976328088044
699.972675089982
699.968756532218
699.964571491415
699.960118986096
699.955397976174
699.950407362464
699.945145986161
699.939612628297
699.933806009164
699.927724787702
699.921367560867
699.91473286296
699.907819164922
699.900624873604
699.893148330996
699.885387813421
699.877341530702
699.869007625279
699.860384171302
699.851469173671
699.842260567048
699.832756214819
699.822953908021
699.812851364216
699.802446226328
699.791736061426
699.78071835946
699.769390531954
699.757749910632
699.745793746004
699.733519205886
699.720923373865
699.708003247705
699.694755737689
699.681177664889
699.667265759379
699.653016658368
699.638426904261
699.623492942645
699.608211120195
699.592577682485
699.576588771733
699.560240424431
699.543528568895
699.526449022707
699.508997490059
699.491169558979
699.472960698452
699.454366255413
699.435381451619
699.416001380387
699.396221003198
699.376035146152
699.355438496271
699.334425597645
699.312990847413
699.29112849156
699.26883262054
699.246097164693
699.222915889468
699.199282390428
699.175190088021
699.150632222126
699.125601846337
699.100091821989
699.074094811899
699.04760327382
699.020609453577
698.993105377879
698.965082846785
698.936533425799
698.907448437585
698.877818953266
698.847635783294
698.816889467856
698.785570266795
698.753668149021
698.72117278139
698.688073516974
698.65435938265
698.620019066026
698.585040902112
698.549412859728
698.513122525322
698.476157081379
698.43850328847
698.400147496613
698.361075662777
698.321273212849
698.280724740294
698.239414130357
698.19732470541
698.154439216355
698.110739813387
698.066208016961
698.020824686337
697.974569986026
697.927423350106
697.879363444224
697.830368125117
697.780414397451
697.729478367767
697.677535195277
697.624559039272
697.570523002832
697.515399072531
697.459158053794
697.401769501503
697.343201645443
697.283421310107
697.222393828346
697.160082948279
697.096450732815
697.031457451091
696.965061460998
696.897219081934
696.827884456765
696.757009401885
696.684543244121
696.610432643067
696.534621397268
696.457050232445
696.377656569741
696.296374271678
696.213133363213
696.127859724916
696.040474754866
695.950894995376
695.8590317201
695.764790476372
695.668070576917
695.568764534039
695.466757428522
695.361926203793
695.254138875193
695.143253640971
695.029117881872
694.911567029526
694.790423288114
694.665494179932
694.536570881828
694.403426366598
694.265813153149
694.123461001408
693.976073606766
693.823326373209
693.664859923112
693.500281144312
693.329147802364
693.150978131146
692.965214932566
692.771265027246
692.568374726477
692.355538315901
692.131670050131
691.895607230943
691.646024809523
691.381389687369
691.099817347532
690.799146010219
690.476748109627
690.129705924422
689.755117394296
689.349446163901
688.908439113064
688.427876651623
687.903164155128
687.328876477973
686.699751742823
686.010361764546
685.25454459388
684.42694410234
683.522040623938
682.534184659643
681.458819505912
680.291884213307
679.029228165091
677.668099291916
676.206415033069
674.642630886592
672.975194326719
671.204220185828
669.329831379886
667.352630431063
665.272734880618
663.090731680737
660.806925870153
658.422182288926
655.936059805422
653.347774674009
650.656473899678
647.861960466141
644.964435144829
641.964529080471
638.863155286614
635.661302355697
632.359956581453
628.96004854282
625.462432541678
621.867869719394
618.177346083139
614.391935816423
610.512628595139
606.540319241159
602.475829234157
598.319896717567
594.073197335791
589.736332887565
585.309852473422
580.794240378234
576.189936321221
571.497322520646
566.717032730995
561.849679599515
556.895851609976
551.856081875742
546.730885835851
541.52072866028
536.226063150569
530.847295868202
525.384825318719
519.839006929651
514.210191562757
508.498689505514
502.704809393182
496.828821271467
490.870996097832
484.831567710933
478.710833394441
472.509208991901
466.227112524326
459.864927986971
453.423044356049
446.901816574467
440.301607329477
433.622744867609
426.865567768948
420.030379746581
413.117497132362
406.127201012642
399.05978722943
391.915515817581
384.694663751297
377.397471288734
370.024197766453
362.575064794102
355.050315033924
347.450152389313
339.774803732627
332.024455980711
324.199321028246
316.299569515888
308.325515775894
300.277451108308
292.155697722916
283.960530646184
275.692258186818
267.351140010435
258.937471342691
250.451497257391
241.893500723776
233.263712922379
224.562405246031
215.789795663281
206.946144651913
198.031657520795
189.046584432661
179.991118600992
170.865500413402
161.669911444813
152.40458285506
143.069685168278
133.665440968594
124.192010214152
114.649607343699
105.038382126622
95.3585412110583
85.6102245444951
75.7936317960692
65.9088938187706
55.9562036443346
45.9356835992802
35.8475211126697
25.6918306600489
15.4687953101133
5.17854801232176
)
;

boundaryField
{
    electrode
    {
        type            fixedValue;
        value           uniform 700;
    }
    ground
    {
        type            fixedValue;
        value           uniform 0;
    }
    otherfaces
    {
        type            empty;
    }
}


// ************************************************************************* //
