/*--------------------------------*- C++ -*----------------------------------*\
| =========                 |                                                 |
| \\      /  F ield         | foam-extend: Open Source CFD                    |
|  \\    /   O peration     | Version:     4.0                                |
|   \\  /    A nd           | Web:         http://www.foam-extend.org         |
|    \\/     M anipulation  |                                                 |
\*---------------------------------------------------------------------------*/
FoamFile
{
    version     2.0;
    format      ascii;
    class       volScalarField;
    location    "8.1e-06";
    object      Sy_electron;
}
// * * * * * * * * * * * * * * * * * * * * * * * * * * * * * * * * * * * * * //

dimensions      [1 -3 -1 0 0 0 0];

internalField   nonuniform List<scalar> 
300
(
3.18670295212978e-09
3.18740188886697e-09
3.18765445201433e-09
3.18756276171101e-09
3.18748464121715e-09
3.18734977067294e-09
3.18716662589555e-09
3.18694006139529e-09
3.18666775706326e-09
3.18634984041925e-09
3.18598602701827e-09
3.18557593639205e-09
3.18511923016216e-09
3.18461553972883e-09
3.18406448154018e-09
3.18346565760414e-09
3.18281865393705e-09
3.18212304094673e-09
3.18137837326756e-09
3.18058418962715e-09
3.17974001275321e-09
3.17884534925116e-09
3.17789968949548e-09
3.17690250751193e-09
3.17585326082882e-09
3.17475139042845e-09
3.17359632055097e-09
3.17238745859716e-09
3.17112419500926e-09
3.16980590310844e-09
3.1684319389517e-09
3.16700164125939e-09
3.16551433124689e-09
3.16396931245261e-09
3.16236587060386e-09
3.16070327347929e-09
3.15898077074478e-09
3.15719759381259e-09
3.15535295568194e-09
3.15344605076456e-09
3.15147605471981e-09
3.14944212429765e-09
3.1473433971584e-09
3.14517899168996e-09
3.14294800683205e-09
3.1406495218846e-09
3.13828259631425e-09
3.13584626956601e-09
3.13333956083358e-09
3.13076146888896e-09
3.12811097183923e-09
3.12538702695579e-09
3.12258857038838e-09
3.11971451699111e-09
3.11676376002933e-09
3.11373517095977e-09
3.11062759914387e-09
3.10743987159829e-09
3.10417079271696e-09
3.10081914399253e-09
3.09738368372285e-09
3.09386314669782e-09
3.09025624388596e-09
3.08656166208429e-09
3.08277806362974e-09
3.07890408605374e-09
3.07493834163486e-09
3.07087941705378e-09
3.06672587299546e-09
3.06247624372707e-09
3.05812903666262e-09
3.05368273190704e-09
3.04913578179806e-09
3.04448661041444e-09
3.0397336130227e-09
3.03487515558373e-09
3.02990957417353e-09
3.02483517437503e-09
3.01965023070773e-09
3.01435298586854e-09
3.00894165022841e-09
3.00341440097534e-09
2.99776938140439e-09
2.99200470016084e-09
2.98611843038264e-09
2.98010860889363e-09
2.97397323528093e-09
2.96771027092259e-09
2.96131763797662e-09
2.95479321836508e-09
2.94813485264713e-09
2.9413403389638e-09
2.93440743207474e-09
2.92733384111869e-09
2.92011722725719e-09
2.91275520499664e-09
2.90524534951674e-09
2.89758519064195e-09
2.88977215892074e-09
2.88180355442934e-09
2.87367680575181e-09
2.86538995564886e-09
2.85749748251034e-09
2.85094764055899e-09
2.8442500242577e-09
2.83740105065429e-09
2.83039738045723e-09
2.82323565386594e-09
2.81591244745281e-09
2.80842425857738e-09
2.80076749804789e-09
2.79293848518036e-09
2.78493344326187e-09
2.77674849495993e-09
2.76837965748905e-09
2.75982283749461e-09
2.75107382567797e-09
2.74212829113518e-09
2.73298177519407e-09
2.72362968499327e-09
2.7140672866251e-09
2.70428969792143e-09
2.69429188060115e-09
2.68406863212198e-09
2.67361457682867e-09
2.6629241565492e-09
2.65199162055471e-09
2.64081101494844e-09
2.62937617111652e-09
2.61768069351752e-09
2.60571794652971e-09
2.5934810404183e-09
2.5809628162153e-09
2.5681558294769e-09
2.55505233288632e-09
2.54164425758779e-09
2.52792319293099e-09
2.51388036472209e-09
2.49950661183168e-09
2.48479236094068e-09
2.46972759917042e-09
2.45430184460747e-09
2.438504114368e-09
2.42232289010997e-09
2.40574608056718e-09
2.38876098121697e-09
2.37135423006082e-09
2.35351176021899e-09
2.33521874792133e-09
2.31645955693562e-09
2.29721767764845e-09
2.27747565558716e-09
2.25721504252735e-09
2.23641625769683e-09
2.21505862715579e-09
2.19312004955474e-09
2.17057744343215e-09
2.14740531142189e-09
2.12357857488298e-09
2.09906723217508e-09
2.0738441291683e-09
2.04797897556495e-09
2.02314150746551e-09
1.99752928949173e-09
1.9711632317953e-09
1.94429813218902e-09
1.9169396353019e-09
1.88856923052503e-09
1.85886497896847e-09
1.82786306754946e-09
1.79568719332508e-09
1.76233594995366e-09
1.72760862068407e-09
1.69119770771097e-09
1.65218010951993e-09
1.60996360450858e-09
1.56524368575803e-09
1.51776047976989e-09
1.46396367363509e-09
1.40503574635694e-09
1.34305178191545e-09
1.27775643942152e-09
1.21025908623229e-09
1.1418884625515e-09
1.07382260065909e-09
1.00578790869054e-09
9.39217349973189e-10
8.82539298277207e-10
8.41359111248926e-10
8.02604022654025e-10
7.90217023649376e-10
7.88543509314459e-10
8.14424275613683e-10
8.7310554721408e-10
9.79165679798322e-10
1.14105390112482e-09
1.40854220114696e-09
1.85496033137843e-09
2.61687086845575e-09
3.86386830803959e-09
5.20337077885468e-09
6.43843024534787e-09
7.40841940796075e-09
7.24000481439678e-09
6.21788287876061e-09
4.88346645679122e-09
3.69447307393782e-09
2.7913981785037e-09
2.19840148152557e-09
1.82249059775556e-09
1.59161173983961e-09
1.45483555322307e-09
1.36829544334327e-09
1.32145456069946e-09
1.2984189478939e-09
1.28574487168847e-09
1.28299883786805e-09
1.28583971353339e-09
1.29136268625651e-09
1.29797970630351e-09
1.3043906994808e-09
1.30835044076557e-09
1.31022272869014e-09
1.3102757730289e-09
1.3082715124478e-09
1.30410070796648e-09
1.29774197793831e-09
1.28923590921579e-09
1.27866657523396e-09
1.26614903784203e-09
1.25181991069639e-09
1.23583006030251e-09
1.21833885665151e-09
1.19950961932916e-09
1.17950601512674e-09
1.15848917377997e-09
1.13661553939001e-09
1.11403440442461e-09
1.09088790018686e-09
1.06729584434666e-09
1.04336815189986e-09
1.01922157280515e-09
9.94967102759552e-10
9.70707498848744e-10
9.46535778916467e-10
9.22534754378046e-10
8.98777368507511e-10
8.75327157483811e-10
8.52238803336751e-10
8.29558724893593e-10
8.07325689839641e-10
7.8557144268534e-10
7.64321320574226e-10
7.43503510464264e-10
7.23242499268791e-10
7.03560225775877e-10
6.84460254710514e-10
6.65938277162847e-10
6.47992807706121e-10
6.30621288115257e-10
6.13816189734528e-10
5.97514748540792e-10
5.81688415075503e-10
5.66375377462644e-10
5.51563445488186e-10
5.37239874763109e-10
5.23391769788623e-10
5.10006008345028e-10
4.97069108539646e-10
4.8456722510013e-10
4.72485816794435e-10
4.60807319685131e-10
4.49502213875297e-10
4.38545577026431e-10
4.27926148126224e-10
4.17633650994515e-10
4.07659094484726e-10
3.97994073679967e-10
3.8863085597874e-10
3.79562427615385e-10
3.70782541184959e-10
3.62285851894461e-10
3.54066925234672e-10
3.45672802838435e-10
3.37305216535874e-10
3.29136286230144e-10
3.21161428561128e-10
3.13395839813935e-10
3.05856226798867e-10
2.984260451341e-10
2.90037471597544e-10
2.81814452716005e-10
2.73814656887615e-10
2.65239356698686e-10
2.55529564703722e-10
2.46140618307048e-10
2.33820078095436e-10
2.20316479224706e-10
2.03144543275659e-10
1.78422604623196e-10
)
;

boundaryField
{
    electrode
    {
        type            zeroGradient;
    }
    ground
    {
        type            zeroGradient;
    }
    otherfaces
    {
        type            empty;
    }
}


// ************************************************************************* //
