/*--------------------------------*- C++ -*----------------------------------*\
| =========                 |                                                 |
| \\      /  F ield         | foam-extend: Open Source CFD                    |
|  \\    /   O peration     | Version:     4.0                                |
|   \\  /    A nd           | Web:         http://www.foam-extend.org         |
|    \\/     M anipulation  |                                                 |
\*---------------------------------------------------------------------------*/
FoamFile
{
    version     2.0;
    format      ascii;
    class       volScalarField;
    location    "8.1e-06";
    object      Te;
}
// * * * * * * * * * * * * * * * * * * * * * * * * * * * * * * * * * * * * * //

dimensions      [0 0 0 1 0 0 0];

internalField   nonuniform List<scalar> 
300
(
40110.9268938378
40111.2132938955
40111.3858801832
40111.4888106064
40111.6516426045
40111.849159196
40112.0845880948
40112.3597536522
40112.6739131936
40113.0272168462
40113.4196751038
40113.8512751488
40114.3220301996
40114.8319535077
40115.3810639571
40115.9693862841
40116.5969505746
40117.2637924602
40117.9699531208
40118.7154793089
40119.5004233822
40120.3248433358
40121.1888028421
40122.0923712912
40123.0356238342
40124.018641432
40125.0415109062
40126.104324995
40127.2071824098
40128.3501878995
40129.5334523186
40130.7570926922
40132.0212322972
40133.3260007357
40134.6715340173
40136.0579746512
40137.4854717328
40138.9541810411
40140.4642651399
40142.0158934845
40143.6092425289
40145.2444958439
40146.9218442397
40148.6414858886
40150.4036264603
40152.2084792569
40154.0562653587
40155.9472137755
40157.8815615997
40159.8595541725
40161.8814452535
40163.9474971985
40166.0579811423
40168.2131771932
40170.4133746341
40172.6588721292
40174.9499779442
40177.2870101709
40179.6702969652
40182.1001767918
40184.5769986804
40187.1011224937
40189.6729192046
40192.2927711851
40194.9610725079
40197.6782292641
40200.4446598867
40203.2607954937
40206.1270802445
40209.0439717109
40212.0119412632
40215.0314744762
40218.1030715492
40221.2272477435
40224.4045338465
40227.6354766458
40230.9206394302
40234.260602515
40237.6559637877
40241.1073392762
40244.6153637505
40248.1806913436
40251.8039962041
40255.4859731843
40259.2273385521
40263.0288307439
40266.8912111499
40270.815264939
40274.8018019208
40278.8516574437
40282.9656933535
40287.1447990497
40291.3898925588
40295.7019213575
40300.0818630906
40304.5307278197
40309.049562823
40313.6394524877
40318.3014991876
40323.0368116739
40327.8466084585
40332.7324206697
40337.6958500987
40342.7381151799
40347.8602990001
40353.063708972
40358.3498177223
40363.7201728268
40369.176385062
40374.7201268845
40380.3531341214
40386.0772087885
40391.894222338
40397.8061191933
40403.8149205309
40409.922728327
40416.1317296813
40422.4442014404
40428.8625151508
40435.3891423666
40442.0266603457
40448.7777581675
40455.645243315
40462.6320487592
40469.7412405992
40476.9760263088
40484.3397636473
40491.8359703074
40499.4683343697
40507.2407256521
40515.1572080472
40523.2220529518
40531.4397539173
40539.8150426445
40548.3529064942
40557.0586076767
40565.9377043268
40574.9960736969
40584.2399377234
40593.6758912782
40603.310933447
40613.1525022407
40623.2085131999
40633.4874024508
40643.9981747871
40654.750457646
40665.7545616068
40677.0215487277
40688.5633095422
40700.3926506798
40712.5233941724
40724.970488439
40737.7501477298
40750.879974331
40764.3791838044
40778.2686956977
40792.5716069557
40807.3128591516
40822.5208914248
40838.2256216925
40854.4625281279
40871.2692704242
40888.6943099609
40906.7893595234
40925.6381976159
40945.4508803606
40966.3442721644
40988.2011127675
41011.0075700227
41034.9395651687
41060.2422078366
41087.1317384879
41115.7587683025
41146.2544268757
41178.4345673606
41212.2902042996
41248.5700189127
41287.5248106458
41328.7861306621
41372.9817216615
41420.8816176374
41472.6870493449
41529.6195823248
41593.2115817817
41665.0416509253
41748.8833667437
41849.7441506512
41973.5537470803
42130.3622157525
42334.0377995358
42602.2416040812
42960.6601398858
43445.8373912582
44108.4776836871
45024.9527955998
46288.7860319285
48048.9013984273
50548.0061068347
54129.9624951418
59270.6433851453
65873.9787629271
74964.5717707138
89055.9571587288
108171.977624477
134775.942074749
171472.039682195
219833.883712695
278872.679191768
344583.063350403
411765.603044388
476154.96037363
535128.610302015
587586.756660652
633489.725217899
673406.583037063
708005.872437938
738042.748738686
764310.505479072
787460.497469365
808006.764029206
826349.41680729
842832.937459138
857753.780691983
871352.35416271
883834.956433174
895368.127372352
906088.622529602
916109.386890494
925523.770583485
934409.11065996
942829.445064267
950837.676391611
958477.305633211
965783.83356329
972785.908633238
979506.243684684
985962.50838578
992167.621848765
998132.656068693
1003860.68647666
1009350.60750904
1014604.05494402
1019618.8110535
1024390.16775881
1028911.17194051
1033172.8529142
1037164.52420272
1040873.95677388
1044287.54122788
1047390.42875255
1050166.65860886
1052599.27780027
1054670.41076179
1056361.40866261
1057652.1921029
1058522.92590188
1058942.73109785
1058912.56944043
1058398.78403937
1057380.88860618
1055836.10293343
1053742.19019983
1051076.3703371
1047815.42521313
1043935.68904652
1039413.1195695
1034223.44067903
1028342.01110266
1021743.71828012
1014403.07617065
1006294.74033988
997395.424917047
987674.853153617
977103.449369481
965656.549502204
953303.43245803
940012.220922978
925749.06703327
910478.232473551
894161.804404038
876759.353467092
858227.991277001
838521.144912647
817596.770899647
795402.913148899
771875.760373401
746953.901709675
720562.90521876
692612.024694228
663019.453422046
631675.340465026
598443.65560968
563189.055827843
525721.651126902
485806.996001983
443156.753379238
397373.738164994
347890.492272359
293886.172718094
234284.741163255
)
;

boundaryField
{
    electrode
    {
        type            electronTemperature;
        seec            0.05;
        Tse             1000;
        Edepend         1;
        TFN             1000;
        field_emission  0;
        field_enhancement_factor 55;
        work_function   5;
        value           uniform 40110.9268938378;
    }
    ground
    {
        type            electronTemperature;
        seec            0.05;
        Tse             1000;
        Edepend         1;
        TFN             1000;
        field_emission  0;
        field_enhancement_factor 55;
        work_function   5;
        value           uniform 200487.394841468;
    }
    otherfaces
    {
        type            empty;
    }
}


// ************************************************************************* //
