/*--------------------------------*- C++ -*----------------------------------*\
| =========                 |                                                 |
| \\      /  F ield         | foam-extend: Open Source CFD                    |
|  \\    /   O peration     | Version:     4.0                                |
|   \\  /    A nd           | Web:         http://www.foam-extend.org         |
|    \\/     M anipulation  |                                                 |
\*---------------------------------------------------------------------------*/
FoamFile
{
    version     2.0;
    format      ascii;
    class       volScalarField;
    location    "6.2e-06";
    object      Ar;
}
// * * * * * * * * * * * * * * * * * * * * * * * * * * * * * * * * * * * * * //

dimensions      [0 0 0 1 0 0 0];

internalField   nonuniform List<scalar> 
300
(
3.21880266831477e+22
3.2188026640349e+22
3.21880266685826e+22
3.21880266793921e+22
3.21880266981114e+22
3.21880267241544e+22
3.21880267559156e+22
3.21880267940285e+22
3.21880268383717e+22
3.21880268889125e+22
3.21880269456551e+22
3.21880270085875e+22
3.2188027077704e+22
3.21880271530009e+22
3.21880272344756e+22
3.2188027322127e+22
3.21880274159581e+22
3.21880275159685e+22
3.21880276221585e+22
3.21880277345306e+22
3.21880278530879e+22
3.21880279778344e+22
3.21880281087748e+22
3.21880282459142e+22
3.21880283892744e+22
3.21880285388492e+22
3.21880286946469e+22
3.21880288566779e+22
3.21880290249415e+22
3.21880291994462e+22
3.21880293802194e+22
3.21880295672641e+22
3.21880297605768e+22
3.21880299601672e+22
3.2188030166046e+22
3.21880303782245e+22
3.21880305967189e+22
3.21880308215399e+22
3.21880310526979e+22
3.21880312902073e+22
3.21880315340832e+22
3.21880317843391e+22
3.21880320409907e+22
3.21880323040541e+22
3.21880325735463e+22
3.21880328494847e+22
3.218803313189e+22
3.21880334207822e+22
3.21880337161916e+22
3.21880340181422e+22
3.21880343266699e+22
3.21880346417857e+22
3.21880349635193e+22
3.21880352918773e+22
3.21880356268766e+22
3.21880359685263e+22
3.21880363168489e+22
3.21880366718676e+22
3.21880370336066e+22
3.21880374020924e+22
3.21880377773482e+22
3.21880381593994e+22
3.21880385482777e+22
3.21880389440294e+22
3.21880393466791e+22
3.218803975623e+22
3.21880401727096e+22
3.21880405961473e+22
3.2188041026574e+22
3.21880414640167e+22
3.21880419084917e+22
3.21880423600349e+22
3.21880428187058e+22
3.21880432845302e+22
3.21880437575576e+22
3.21880442378238e+22
3.21880447253591e+22
3.21880452202045e+22
3.21880457223767e+22
3.21880462319427e+22
3.21880467489043e+22
3.21880472732958e+22
3.21880478051562e+22
3.2188048344519e+22
3.21880488914347e+22
3.2188049445931e+22
3.21880500080314e+22
3.21880505777702e+22
3.2188051155194e+22
3.21880517403293e+22
3.21880523332159e+22
3.21880529339324e+22
3.21880535424566e+22
3.21880541588195e+22
3.21880547830534e+22
3.21880554151901e+22
3.2188056055261e+22
3.21880567032973e+22
3.21880573593401e+22
3.21880580234194e+22
3.21880586955577e+22
3.21880593757825e+22
3.21880600641533e+22
3.21880607606681e+22
3.21880614653627e+22
3.21880621782723e+22
3.21880628994071e+22
3.21880636288112e+22
3.21880643664978e+22
3.21880651124846e+22
3.21880658667957e+22
3.21880666294548e+22
3.21880674004903e+22
3.21880681799244e+22
3.21880689677784e+22
3.21880697640883e+22
3.21880705688905e+22
3.21880713821769e+22
3.21880722039626e+22
3.21880730342707e+22
3.21880738731421e+22
3.21880747205772e+22
3.21880755766178e+22
3.21880764412655e+22
3.21880773145201e+22
3.21880781963943e+22
3.21880790869259e+22
3.21880799861066e+22
3.21880808939556e+22
3.21880818104824e+22
3.21880827357098e+22
3.21880836696481e+22
3.21880846123079e+22
3.21880855637206e+22
3.2188086523927e+22
3.21880874929124e+22
3.21880884706763e+22
3.21880894572467e+22
3.21880904526447e+22
3.2188091456863e+22
3.21880924699187e+22
3.21880934918291e+22
3.21880945226264e+22
3.21880955623417e+22
3.21880966109967e+22
3.21880976685715e+22
3.21880987350772e+22
3.21880998105134e+22
3.21881008949194e+22
3.21881019883595e+22
3.21881030907228e+22
3.21881042020329e+22
3.21881053223908e+22
3.21881064517596e+22
3.21881075901522e+22
3.21881087375599e+22
3.2188109893994e+22
3.21881110594328e+22
3.21881122336408e+22
3.21881134170882e+22
3.21881146084114e+22
3.21881158102389e+22
3.21881170171802e+22
3.21881182379854e+22
3.2188119460895e+22
3.21881206779096e+22
3.21881219100024e+22
3.21881231531517e+22
3.21881244032702e+22
3.21881256605677e+22
3.21881269127197e+22
3.21881281735277e+22
3.21881294247781e+22
3.21881306779708e+22
3.21881319621389e+22
3.21881332258613e+22
3.21881344582322e+22
3.21881357117679e+22
3.21881369547566e+22
3.21881381405191e+22
3.21881393270991e+22
3.21881404932108e+22
3.21881415712914e+22
3.21881426462446e+22
3.21881436554474e+22
3.21881445773249e+22
3.21881454511016e+22
3.2188146270791e+22
3.21881469655504e+22
3.21881476124576e+22
3.21881481916155e+22
3.21881486936237e+22
3.21881490885015e+22
3.21881494572799e+22
3.21881497298523e+22
3.21881499189486e+22
3.21881500208125e+22
3.21881501074706e+22
3.21881501750928e+22
3.21881502310207e+22
3.21881502404329e+22
3.2188150238217e+22
3.21881502417361e+22
3.21881502578865e+22
3.21881503130788e+22
3.2188150381686e+22
3.21881504604751e+22
3.21881505340058e+22
3.21881506002411e+22
3.21881506585366e+22
3.21881507096768e+22
3.21881507546628e+22
3.21881507934538e+22
3.21881508508795e+22
3.2188150903339e+22
3.21881509523032e+22
3.21881509961246e+22
3.21881510374943e+22
3.21881510745377e+22
3.21881511098518e+22
3.2188151141387e+22
3.21881511719098e+22
3.21881511993354e+22
3.21881512261542e+22
3.21881512504517e+22
3.21881512897664e+22
3.21881513253982e+22
3.21881513614133e+22
3.21881513939374e+22
3.21881514271059e+22
3.21881514569031e+22
3.21881514875759e+22
3.21881515149007e+22
3.21881515432797e+22
3.21881515683239e+22
3.21881515945584e+22
3.21881516174442e+22
3.21881516416776e+22
3.21881516625141e+22
3.21881516848557e+22
3.21881517037528e+22
3.21881517258903e+22
3.21881517532923e+22
3.21881517822532e+22
3.21881518078202e+22
3.21881518350735e+22
3.21881518589098e+22
3.21881518845856e+22
3.2188151906797e+22
3.21881519309934e+22
3.21881519516951e+22
3.21881519745019e+22
3.21881519937674e+22
3.21881520152586e+22
3.21881520331575e+22
3.21881520533985e+22
3.21881520699924e+22
3.2188152089058e+22
3.21881521044341e+22
3.21881521223804e+22
3.21881521365867e+22
3.2188152153477e+22
3.21881521665773e+22
3.21881521824638e+22
3.21881521944962e+22
3.21881522113825e+22
3.21881522289923e+22
3.21881522495821e+22
3.21881522661643e+22
3.21881522858443e+22
3.21881523014583e+22
3.21881523202787e+22
3.21881523349787e+22
3.2188152352988e+22
3.21881523668305e+22
3.21881523840896e+22
3.2188152397127e+22
3.21881524136754e+22
3.21881524259362e+22
3.21881524418187e+22
3.21881524533487e+22
3.21881524686466e+22
3.2188152479692e+22
3.218815249467e+22
3.21881525051593e+22
3.21881525195966e+22
3.21881525294711e+22
3.21881525433765e+22
3.21881525526462e+22
3.21881525664106e+22
3.21881525756205e+22
3.21881525890484e+22
3.21881525977183e+22
3.21881526111969e+22
3.21881526200212e+22
3.21881526333888e+22
3.21881526425209e+22
3.21881526565869e+22
3.21881526665363e+22
3.21881526870438e+22
)
;

boundaryField
{
    electrode
    {
        type            zeroGradient;
    }
    ground
    {
        type            zeroGradient;
    }
    otherfaces
    {
        type            empty;
    }
}


// ************************************************************************* //
