/*--------------------------------*- C++ -*----------------------------------*\
| =========                 |                                                 |
| \\      /  F ield         | foam-extend: Open Source CFD                    |
|  \\    /   O peration     | Version:     4.0                                |
|   \\  /    A nd           | Web:         http://www.foam-extend.org         |
|    \\/     M anipulation  |                                                 |
\*---------------------------------------------------------------------------*/
FoamFile
{
    version     2.0;
    format      ascii;
    class       volScalarField;
    location    "6.2e-06";
    object      Arm;
}
// * * * * * * * * * * * * * * * * * * * * * * * * * * * * * * * * * * * * * //

dimensions      [0 0 0 1 0 0 0];

internalField   nonuniform List<scalar> 
300
(
3.57412638380532e+15
3.57600206478109e+15
3.57795023035785e+15
3.57925633118963e+15
3.58007259383716e+15
3.5804511538586e+15
3.58043621433212e+15
3.58005921851421e+15
3.57934582624962e+15
3.57831801981344e+15
3.57699157625481e+15
3.57538058143215e+15
3.57349708889792e+15
3.57135170143829e+15
3.56895387623542e+15
3.56631215635574e+15
3.56343136956146e+15
3.56032010014836e+15
3.55698668859386e+15
3.55343761530519e+15
3.54967908173874e+15
3.54571700956584e+15
3.54155708880062e+15
3.53720475722271e+15
3.53264936616791e+15
3.52790862766513e+15
3.52298625248333e+15
3.51788426390457e+15
3.51261624237862e+15
3.50718706316062e+15
3.50158299351546e+15
3.49581539685196e+15
3.48990236817644e+15
3.48384929800392e+15
3.4776612725927e+15
3.47134309087031e+15
3.46489493325872e+15
3.45832331250727e+15
3.45163529517237e+15
3.44483441875866e+15
3.43792418798166e+15
3.43090987716276e+15
3.42379536792135e+15
3.41658435181666e+15
3.40928032900688e+15
3.40188656195197e+15
3.3944039969547e+15
3.38683407652959e+15
3.37916904646716e+15
3.37140748636783e+15
3.36353681433226e+15
3.35556951028436e+15
3.34750020490943e+15
3.33934659811472e+15
3.33111683368274e+15
3.32282727004405e+15
3.31448121555433e+15
3.30608158637101e+15
3.29763095348741e+15
3.28912973839933e+15
3.2805822529722e+15
3.27199060644186e+15
3.26335144853891e+15
3.25464683728609e+15
3.24588075075666e+15
3.2370787489875e+15
3.22824293862847e+15
3.21937515942215e+15
3.21047699720972e+15
3.20154981040289e+15
3.19259275114361e+15
3.1835986749379e+15
3.17456604677292e+15
3.1655022958487e+15
3.15639389937021e+15
3.14724191093815e+15
3.13805266535478e+15
3.12882205153038e+15
3.11957000835174e+15
3.11026603862149e+15
3.10094467596342e+15
3.09160806145002e+15
3.08225311671325e+15
3.07288209012707e+15
3.06348018362435e+15
3.05405512899697e+15
3.0446186235118e+15
3.03517098703909e+15
3.02570032624328e+15
3.01621437740614e+15
3.00670711212189e+15
2.99713355039655e+15
2.98754888237463e+15
2.97795477434216e+15
2.9683512561088e+15
2.95873835368018e+15
2.94911584876157e+15
2.93948330324656e+15
2.92982979242744e+15
2.92015525281233e+15
2.91046594152609e+15
2.90076312347767e+15
2.89101508334225e+15
2.88125099551074e+15
2.87146166091052e+15
2.86163774736326e+15
2.85179424695839e+15
2.84191158057902e+15
2.83200015414719e+15
2.82206541810012e+15
2.8121055059756e+15
2.80211812861994e+15
2.79209555127797e+15
2.78203555880012e+15
2.7719359224578e+15
2.76177899755054e+15
2.75154592107281e+15
2.74126145735924e+15
2.73092648762201e+15
2.72053292722848e+15
2.71005441793494e+15
2.69950387941735e+15
2.68885236577971e+15
2.67811025116079e+15
2.66728895880609e+15
2.65638628152193e+15
2.64537414536856e+15
2.6342699466693e+15
2.62306287715083e+15
2.61175088401218e+15
2.60031833733116e+15
2.58876136036414e+15
2.57707494471946e+15
2.56523300905268e+15
2.55319912402435e+15
2.54099210780294e+15
2.52861587632192e+15
2.51604540495929e+15
2.50326184691007e+15
2.49027429528667e+15
2.47706677607917e+15
2.46362262636192e+15
2.44990970924915e+15
2.43589593003401e+15
2.42155669539884e+15
2.40691176365051e+15
2.39194628499244e+15
2.37664388885262e+15
2.36097403574284e+15
2.34488787777143e+15
2.32839779245128e+15
2.31147903142359e+15
2.29406937911491e+15
2.27616760639458e+15
2.25775544925116e+15
2.23878319853454e+15
2.21920762293626e+15
2.19902813840773e+15
2.17822559555961e+15
2.15675505286348e+15
2.13458090993731e+15
2.11168805249717e+15
2.0880382671455e+15
2.06364405698401e+15
2.03849241883463e+15
2.01252884530502e+15
1.98577413029425e+15
1.95827282184659e+15
1.93005390286556e+15
1.90115934980966e+15
1.87165773186911e+15
1.84158242582556e+15
1.81102582518546e+15
1.78015941138685e+15
1.74917710768543e+15
1.71824877989006e+15
1.68755361920025e+15
1.65729063592998e+15
1.6276985674288e+15
1.59893302728209e+15
1.57114828991122e+15
1.54449136971312e+15
1.51904367879515e+15
1.4949199356976e+15
1.47212002687209e+15
1.45055384536669e+15
1.43026109939343e+15
1.41119129542383e+15
1.39325850401007e+15
1.37638190124892e+15
1.36046689892378e+15
1.34556252876934e+15
1.33215056832832e+15
1.32527225512942e+15
1.35107545196834e+15
1.41656394209941e+15
1.4950676214592e+15
1.55685493440712e+15
1.6045759718119e+15
1.64270193755934e+15
1.6717744013259e+15
1.68311252442413e+15
1.66931467033569e+15
1.63693678802543e+15
1.59658081548897e+15
1.55831327075573e+15
1.52670377763363e+15
1.50339196949308e+15
1.48722865989859e+15
1.47640547337499e+15
1.4689998129025e+15
1.46345949133997e+15
1.45965145688619e+15
1.45665804439226e+15
1.45361545954029e+15
1.45081847913156e+15
1.44803294230542e+15
1.44508110014248e+15
1.44182214079177e+15
1.43817460850207e+15
1.43409494250279e+15
1.42936981234358e+15
1.42392600417094e+15
1.41786903454181e+15
1.41128808729967e+15
1.4043458139354e+15
1.39708800643109e+15
1.38954086647374e+15
1.38174676489613e+15
1.37375408207502e+15
1.36558830402481e+15
1.35729000801988e+15
1.34890356567817e+15
1.3404552824069e+15
1.3319734000029e+15
1.32350106896848e+15
1.31504672084479e+15
1.30665131888647e+15
1.29832333439781e+15
1.29009068324484e+15
1.28196904375125e+15
1.27396347710441e+15
1.26609947954023e+15
1.25837237685973e+15
1.2507963308633e+15
1.24339329822175e+15
1.23615457020378e+15
1.22909156859658e+15
1.2222093977701e+15
1.21550174430934e+15
1.20897660239437e+15
1.20263032766589e+15
1.19646001991486e+15
1.19047036185206e+15
1.18465392184405e+15
1.1790090675705e+15
1.17353424859366e+15
1.1682140612894e+15
1.16305683053041e+15
1.15805464496101e+15
1.15321273070928e+15
1.1485179065132e+15
1.14397231155996e+15
1.139566984038e+15
1.13529890976335e+15
1.1311635684438e+15
1.12715255850929e+15
1.12326196478641e+15
1.11948041159438e+15
1.11581297669771e+15
1.11225089807519e+15
1.10879845280663e+15
1.10544200259409e+15
1.102186940588e+15
1.09902086520611e+15
1.09594199211309e+15
1.09294825848398e+15
1.09003932802194e+15
1.08721682910891e+15
1.08447405395915e+15
1.08180947773413e+15
1.07918243009984e+15
1.07644975172099e+15
1.07368889907193e+15
1.07099311046552e+15
1.06835185303509e+15
1.06577374928918e+15
1.06326089773345e+15
1.06080333387e+15
1.05804250765333e+15
1.05519624889212e+15
1.05241864856972e+15
1.0497146784463e+15
1.04654052125925e+15
1.04331529225099e+15
1.03995763238503e+15
1.03608716016756e+15
1.0317975747638e+15
1.02686073360136e+15
1.02085953925309e+15
)
;

boundaryField
{
    electrode
    {
        type            zeroGradient;
    }
    ground
    {
        type            zeroGradient;
    }
    otherfaces
    {
        type            empty;
    }
}


// ************************************************************************* //
