/*--------------------------------*- C++ -*----------------------------------*\
| =========                 |                                                 |
| \\      /  F ield         | foam-extend: Open Source CFD                    |
|  \\    /   O peration     | Version:     4.0                                |
|   \\  /    A nd           | Web:         http://www.foam-extend.org         |
|    \\/     M anipulation  |                                                 |
\*---------------------------------------------------------------------------*/
FoamFile
{
    version     2.0;
    format      ascii;
    class       volScalarField;
    location    "6.2e-06";
    object      Arp1;
}
// * * * * * * * * * * * * * * * * * * * * * * * * * * * * * * * * * * * * * //

dimensions      [0 0 0 1 0 0 0];

internalField   nonuniform List<scalar> 
300
(
6.33551536510486e+16
6.33976568733541e+16
6.33716432647163e+16
6.33666689252993e+16
6.33571882084202e+16
6.33437587930534e+16
6.33279469108934e+16
6.33090884340979e+16
6.32872820748549e+16
6.32625408558995e+16
6.32348477068736e+16
6.32042034864958e+16
6.31706048911617e+16
6.31340483838975e+16
6.30945305769734e+16
6.30520477691967e+16
6.3006596076328e+16
6.29581714192477e+16
6.29067695150324e+16
6.28523858783629e+16
6.27950158184247e+16
6.27346544372375e+16
6.26712966275413e+16
6.26049370703358e+16
6.2535570233089e+16
6.24631903677401e+16
6.23877915080471e+16
6.23093674680358e+16
6.22279118399499e+16
6.21434179919889e+16
6.20558790665111e+16
6.19652879786255e+16
6.18716374139487e+16
6.1774919827169e+16
6.16751274409224e+16
6.15722522439046e+16
6.1466285990016e+16
6.1357220197531e+16
6.12450461477258e+16
6.11297548846164e+16
6.1011337214696e+16
6.08897837061645e+16
6.07650846893805e+16
6.06372302571842e+16
6.05062102649904e+16
6.0372014331942e+16
6.02346318420949e+16
6.00940519452883e+16
5.99502635592526e+16
5.98032553716544e+16
5.96530158419537e+16
5.94995332043817e+16
5.93427954711394e+16
5.91827904351704e+16
5.90195056742752e+16
5.88529285550434e+16
5.86830462368293e+16
5.85098456765738e+16
5.83333136368917e+16
5.81534366901727e+16
5.79702012219964e+16
5.77835934268353e+16
5.75935992966081e+16
5.74002046915155e+16
5.72033954988089e+16
5.70031575791056e+16
5.67994761965774e+16
5.65923349930357e+16
5.63817163627682e+16
5.61676070160749e+16
5.59500070090336e+16
5.57289045120849e+16
5.5504259280903e+16
5.52760567178133e+16
5.50442794534945e+16
5.48089093551506e+16
5.45699282083994e+16
5.43273178067137e+16
5.40810599940431e+16
5.38311366828127e+16
5.35775298646001e+16
5.33202216197296e+16
5.30591941271808e+16
5.27944296741e+16
5.25259106662019e+16
5.22536196388565e+16
5.19775392678811e+16
5.16976523811936e+16
5.14139419708908e+16
5.11263912050352e+16
5.0834983440213e+16
5.0539702234274e+16
5.02405313589364e+16
4.99374548125641e+16
4.96304568335883e+16
4.9319521913187e+16
4.90046348085005e+16
4.86857805559334e+16
4.83629444838963e+16
4.80361122258935e+16
4.77052697336116e+16
4.73704032894363e+16
4.7031499518951e+16
4.66885454036883e+16
4.63415282930273e+16
4.59904359160437e+16
4.56352563935064e+16
4.52759782490512e+16
4.49125904201199e+16
4.45450822691467e+16
4.41734435937171e+16
4.37976646366539e+16
4.34177360961833e+16
4.30336491351978e+16
4.26453953904199e+16
4.22529669816914e+16
4.1856356520481e+16
4.14555571183925e+16
4.10505623959194e+16
4.0641366490506e+16
4.02279640651776e+16
3.98103503172383e+16
3.93885209870072e+16
3.89624723672824e+16
3.85322013135844e+16
3.80977052549426e+16
3.76589822060667e+16
3.7216030781398e+16
3.67688502103537e+16
3.63174403556929e+16
3.58618017347092e+16
3.54019355435581e+16
3.49378436871978e+16
3.4469528813094e+16
3.39969943541603e+16
3.35202445748377e+16
3.30392846326567e+16
3.25541206533969e+16
3.20647597955713e+16
3.15712103668373e+16
3.1073481973898e+16
3.05715856442321e+16
3.00655337524318e+16
2.95553407604037e+16
2.90410241692504e+16
2.85226001516532e+16
2.80000898519202e+16
2.7473529113249e+16
2.69429302189927e+16
2.64083005204951e+16
2.5869763799018e+16
2.5327350856847e+16
2.47810569475702e+16
2.42309580445984e+16
2.36771005785747e+16
2.31195875322905e+16
2.25584991095219e+16
2.19939098785446e+16
2.14261312771372e+16
2.08547980775789e+16
2.02813762539711e+16
1.97033214131749e+16
1.912614257698e+16
1.85411710008782e+16
1.79603152646879e+16
1.73919767121341e+16
1.68157240011283e+16
1.62360572490467e+16
1.56574216670883e+16
1.50798878409429e+16
1.45160657291103e+16
1.39525234004964e+16
1.34077563114768e+16
1.28703379640389e+16
1.23108023305737e+16
1.17794841873941e+16
1.12858151227121e+16
1.07753228286116e+16
1.02767735540673e+16
9.8330812563286e+15
9.38166335637052e+15
8.93826103521295e+15
8.56418403020442e+15
8.16779843822244e+15
7.8047717946336e+15
7.48999883029186e+15
7.17814825920837e+15
6.87017903247831e+15
6.6334057741975e+15
6.38902710093248e+15
6.1570453028996e+15
5.94859199856397e+15
5.79655456243094e+15
5.61961537990626e+15
5.46737587266042e+15
5.32579298504135e+15
5.23117127204016e+15
5.14683458334e+15
5.07919828696574e+15
5.02149343522318e+15
5.00971924520761e+15
5.01958004655536e+15
5.04356049739365e+15
5.0692788128689e+15
5.06052462799113e+15
5.03377696413646e+15
4.98860007830506e+15
4.93947706084049e+15
4.89001183432158e+15
4.84288432577002e+15
4.7993506689136e+15
4.7600239889305e+15
4.72511157508147e+15
4.67072042120899e+15
4.62132641166354e+15
4.57517071107444e+15
4.53413962858454e+15
4.49572283494844e+15
4.46193772824932e+15
4.43026989659086e+15
4.40281343783026e+15
4.37701575754644e+15
4.35503533594563e+15
4.33427639419136e+15
4.31656459912568e+15
4.28419860993108e+15
4.25583280967347e+15
4.22737473015978e+15
4.20265626529948e+15
4.17749343869708e+15
4.15587635230998e+15
4.1335174734631e+15
4.11459582603031e+15
4.09468285230617e+15
4.07813905626873e+15
4.06039613497612e+15
4.04598444579035e+15
4.03016674730895e+15
4.01767877733489e+15
4.00359070940157e+15
3.99283618718745e+15
3.97872528589422e+15
3.95920822966444e+15
3.93799532712591e+15
3.92002513226852e+15
3.90019535550043e+15
3.88361805215797e+15
3.8650250588588e+15
3.84971542966625e+15
3.83224572316406e+15
3.81808784870348e+15
3.80164558752414e+15
3.78856819921884e+15
3.77308388597014e+15
3.76101823597028e+15
3.7464383308015e+15
3.735335047736e+15
3.7216049908889e+15
3.7114009241649e+15
3.69847115219099e+15
3.68912065193068e+15
3.6769385303483e+15
3.6683968035266e+15
3.65692811051248e+15
3.6491758587339e+15
3.63643657499563e+15
3.62284892100631e+15
3.60616064229309e+15
3.59337036418817e+15
3.57736789878967e+15
3.56532569929367e+15
3.54996717418411e+15
3.53863269789566e+15
3.523887215509e+15
3.51321929989792e+15
3.49904724754711e+15
3.48901147023916e+15
3.47537969282472e+15
3.46594881047007e+15
3.45281619353008e+15
3.44395763007724e+15
3.43129341748374e+15
3.4229871580906e+15
3.41077618625803e+15
3.40298862145886e+15
3.39119837017861e+15
3.38390752370874e+15
3.37252048026144e+15
3.36571346158473e+15
3.35471485912252e+15
3.3483560445723e+15
3.33771037929666e+15
3.33174877100546e+15
3.32144851239251e+15
3.31585321368123e+15
3.30584677223024e+15
3.300588129538e+15
3.2908139275806e+15
3.28580232666775e+15
3.27129478102225e+15
)
;

boundaryField
{
    electrode
    {
        type            driftDiffusionPositiveIonDensity;
        seec            0;
        fieldName       Arp1;
        value           uniform 6.3174237529055e+16;
    }
    ground
    {
        type            driftDiffusionPositiveIonDensity;
        seec            0;
        fieldName       Arp1;
        value           uniform 3.27129478102225e+15;
    }
    otherfaces
    {
        type            empty;
    }
}


// ************************************************************************* //
