/*--------------------------------*- C++ -*----------------------------------*\
| =========                 |                                                 |
| \\      /  F ield         | foam-extend: Open Source CFD                    |
|  \\    /   O peration     | Version:     4.0                                |
|   \\  /    A nd           | Web:         http://www.foam-extend.org         |
|    \\/     M anipulation  |                                                 |
\*---------------------------------------------------------------------------*/
FoamFile
{
    version     2.0;
    format      ascii;
    class       volScalarField;
    location    "6.2e-06";
    object      electron;
}
// * * * * * * * * * * * * * * * * * * * * * * * * * * * * * * * * * * * * * //

dimensions      [0 0 0 1 0 0 0];

internalField   nonuniform List<scalar> 
300
(
6.33671778901596e+16
6.33655976062751e+16
6.33614294217546e+16
6.33542882148243e+16
6.33442332551983e+16
6.33312411266933e+16
6.33153065990576e+16
6.32964290998228e+16
6.32746056510985e+16
6.32498337228892e+16
6.32221105986694e+16
6.31914333285376e+16
6.31577987873364e+16
6.31212036535089e+16
6.30816444091752e+16
6.30391173393023e+16
6.29936185294121e+16
6.29451438637978e+16
6.28936890235809e+16
6.28392494847009e+16
6.27818205158747e+16
6.27213971765098e+16
6.26579743145964e+16
6.25915465645847e+16
6.25221083452517e+16
6.24496538575792e+16
6.23741770826529e+16
6.22956717795891e+16
6.22141314835073e+16
6.21295495035574e+16
6.20419189210121e+16
6.19512325874454e+16
6.18574831230066e+16
6.1760662914801e+16
6.1660764115391e+16
6.15577786414407e+16
6.14516981724984e+16
6.1342514149948e+16
6.12302177761406e+16
6.11148000137035e+16
6.09962515850609e+16
6.08745629721707e+16
6.07497244164847e+16
6.06217259191511e+16
6.04905572414702e+16
6.03562079056115e+16
6.02186671956115e+16
6.00779241586527e+16
5.99339676066365e+16
5.97867861180658e+16
5.96363680402441e+16
5.94827014917893e+16
5.93257743654807e+16
5.91655743314461e+16
5.90020888406797e+16
5.88353051289154e+16
5.86652102208601e+16
5.84917909347772e+16
5.8315033887389e+16
5.81349254990721e+16
5.79514519994707e+16
5.77645994338234e+16
5.75743536701316e+16
5.73807004058207e+16
5.71836251706157e+16
5.6983113326567e+16
5.67791500813316e+16
5.65717205401312e+16
5.63608097759951e+16
5.61464027611464e+16
5.59284839191585e+16
5.57070364986629e+16
5.54820425528634e+16
5.52534835712163e+16
5.50213409289574e+16
5.47855959964608e+16
5.45462301734012e+16
5.4303224902694e+16
5.4056561678827e+16
5.38062220550953e+16
5.35521876509468e+16
5.32944401597447e+16
5.30329613569951e+16
5.2767733109019e+16
5.24987373820313e+16
5.22259562515773e+16
5.1949371912297e+16
5.16689666879562e+16
5.1384723041702e+16
5.10966235865058e+16
5.08046510957316e+16
5.05087885137906e+16
5.02090189668376e+16
4.99053257734526e+16
4.95976924552608e+16
4.92861027474462e+16
4.89705406090994e+16
4.86509902333585e+16
4.83274360572811e+16
4.79998627713974e+16
4.76682553288924e+16
4.73325989543601e+16
4.69928791520691e+16
4.66490817136831e+16
4.63011927253818e+16
4.59491985743137e+16
4.55930859543164e+16
4.52328418708472e+16
4.48684536450524e+16
4.4499908916899e+16
4.41271956473123e+16
4.37503021192316e+16
4.33692169375074e+16
4.29839290275668e+16
4.25944276327551e+16
4.22007023102689e+16
4.18027429255843e+16
4.14005396452867e+16
4.09940829281914e+16
4.05833635146454e+16
4.01683724139041e+16
3.97491008894469e+16
3.93255404420969e+16
3.88976827908082e+16
3.84655198509628e+16
3.80290437100124e+16
3.75882466002832e+16
3.71431208687515e+16
3.66936589435794e+16
3.62398532971744e+16
3.57816964055317e+16
3.5319180703585e+16
3.48522985362641e+16
3.43810421049389e+16
3.39054034089005e+16
3.3425374181489e+16
3.29409458204596e+16
3.24521093120845e+16
3.19588551485613e+16
3.14611732382989e+16
3.09590528081178e+16
3.04524822966552e+16
2.99414492403397e+16
2.94259401495564e+16
2.89059403652341e+16
2.83814339191519e+16
2.78524034007896e+16
2.73188297138087e+16
2.67806918742455e+16
2.62379670769597e+16
2.56906299552474e+16
2.51386509432876e+16
2.45819959522879e+16
2.40206272098426e+16
2.3454503617749e+16
2.28835806071982e+16
2.23078098147462e+16
2.17271390769709e+16
2.11415116493863e+16
2.05508672658651e+16
1.9955139330862e+16
1.93542589022548e+16
1.87481455458191e+16
1.81367054333981e+16
1.75198024368064e+16
1.68970892565005e+16
1.6268003141386e+16
1.56320212201571e+16
1.49887566151031e+16
1.43378867416842e+16
1.36790577575344e+16
1.30118667165766e+16
1.23359393676507e+16
1.16510306391486e+16
1.09573796323163e+16
1.0255902751499e+16
9.54789495356223e+15
8.83511326446254e+15
8.12026436001202e+15
7.40695776249391e+15
6.69957815055136e+15
6.00352297209206e+15
5.32496400106927e+15
4.67051662317689e+15
4.04713636366597e+15
3.46159379920038e+15
2.91995584887239e+15
2.42730075224426e+15
1.98724263243251e+15
1.60158607752902e+15
1.27032049686046e+15
991665942091116
762233936950209
577269811809453
431131131449134
318127116214529
232379516067083
168269414258188
120561570911228
84211877730251.6
57500844152412
38517421515879.4
24815487124212.2
15324417777218.3
9242125290704.88
5650042219482.63
3647198234293.37
2551251951868.79
1944491085301.16
1599741909691.82
1398764772386.12
1279777565952.32
1209224839194.96
1168124024566.65
1145250019442.85
1133699548801.51
1128907761104.55
1127807805092.76
1128511111923.4
1129811468553.03
1130725684732.13
1130724157953.25
1129368971486.51
1126418138043.5
1121743239945.8
1115298493062.95
1107098722681.01
1097202034130.69
1085696656384.99
1072691983660.34
1058311601746.12
1042687877059.46
1025957681500.54
1008259018037.08
989728363437.891
970498595316.399
950697386549.648
930446014066.719
909858264038.653
889039865115.371
868083779644.768
847067964919.61
826069767991.999
805167817106.962
784432816622.585
763927509647.702
743706546204.217
723816932187.195
704298505108.818
685184460132.502
666501883799.774
648272292089.082
630512151454.899
613233475305.369
596444279212.587
580150710644.436
564352938464.676
549045174248.834
534224261400.666
519886380815.83
506023907044.058
492627884207.752
479688108516.696
467193499620.87
455132314093.733
443492404579.89
432261561953.102
421427662724.408
410978494873.123
400901272962.761
391181608447.279
381795247196.859
372720591895.079
363947147531.358
355465325437.581
347266626326.191
339343077164.928
331687298362.596
324292533142.992
317152729514.861
310262559814.121
303617571178.226
297212921371.665
291044065231.008
285078182875.713
279286701608.634
273678475601.286
268267502959.397
263069716499.75
258091278508.677
253300199061.136
248690471752.88
244317545339.604
240195751650.204
236348200523.046
232868236404.233
229891622111.867
227696278001.158
226765151866.64
227928701677.762
)
;

boundaryField
{
    electrode
    {
        type            driftDiffusionElectronDensity;
        seec            0.05;
        Edepend         1;
        field_emission  0;
        field_enhancement_factor 55;
        work_function   5;
        value           uniform 6.33671778901596e+16;
    }
    ground
    {
        type            driftDiffusionElectronDensity;
        seec            0.05;
        Edepend         1;
        field_emission  0;
        field_enhancement_factor 55;
        work_function   5;
        value           uniform 230152988724.592;
    }
    otherfaces
    {
        type            empty;
    }
}


// ************************************************************************* //
