/*--------------------------------*- C++ -*----------------------------------*\
| =========                 |                                                 |
| \\      /  F ield         | foam-extend: Open Source CFD                    |
|  \\    /   O peration     | Version:     4.0                                |
|   \\  /    A nd           | Web:         http://www.foam-extend.org         |
|    \\/     M anipulation  |                                                 |
\*---------------------------------------------------------------------------*/
FoamFile
{
    version     2.0;
    format      ascii;
    class       volScalarField;
    location    "6.2e-06";
    object      N_electronMean;
}
// * * * * * * * * * * * * * * * * * * * * * * * * * * * * * * * * * * * * * //

dimensions      [0 0 0 1 0 0 0];

internalField   nonuniform List<scalar> 
300
(
6.04373695620118e+16
6.04358854298093e+16
6.04317929683553e+16
6.04246204846951e+16
6.04144047097146e+16
6.04011093091995e+16
6.03847139361862e+16
6.03652072847013e+16
6.03425786607021e+16
6.03168201751781e+16
6.02879261369014e+16
6.02558928241879e+16
6.02207183512536e+16
6.01824025062878e+16
6.01409466424195e+16
6.00963535691771e+16
6.00486274599253e+16
5.99977737723479e+16
5.99437991711135e+16
5.98867114546375e+16
5.98265194902899e+16
5.97632331530179e+16
5.96968632660908e+16
5.9627421540434e+16
5.95549205301836e+16
5.94793735977184e+16
5.94007948500336e+16
5.9319199075421e+16
5.92346016917154e+16
5.91470186767031e+16
5.90564665228488e+16
5.89629622246105e+16
5.88665232149629e+16
5.87671672636892e+16
5.86649124040473e+16
5.85597768739155e+16
5.84517790578151e+16
5.83409374337037e+16
5.82272705148615e+16
5.81107967908741e+16
5.79915346790353e+16
5.78695024748563e+16
5.77447182934077e+16
5.76172000156236e+16
5.74869652418038e+16
5.73540312463085e+16
5.72184149352782e+16
5.70801328089125e+16
5.69392009322193e+16
5.67956349139938e+16
5.66494499056786e+16
5.65006606011603e+16
5.6349281204875e+16
5.61953253732476e+16
5.6038806131224e+16
5.58797357864192e+16
5.57181258553902e+16
5.55539870056288e+16
5.53873290109499e+16
5.52181607082344e+16
5.50464899585057e+16
5.4872323610698e+16
5.46956674615747e+16
5.45165262460105e+16
5.43349036638957e+16
5.41508023421796e+16
5.39642237360742e+16
5.37751680696337e+16
5.35836343061796e+16
5.33896201184047e+16
5.31931218602065e+16
5.2994134559146e+16
5.27926519422105e+16
5.25886664263936e+16
5.23821690676117e+16
5.21731495627602e+16
5.1961596271944e+16
5.17474961918954e+16
5.15308348833905e+16
5.13115964265759e+16
5.10897634156625e+16
5.08653168843811e+16
5.06382362344674e+16
5.0408499212194e+16
5.01760818987013e+16
4.9940958723562e+16
4.97031024333031e+16
4.94624840228635e+16
4.92190727061022e+16
4.89728359150371e+16
4.87237392744834e+16
4.8471746620283e+16
4.8216820029783e+16
4.79589197379948e+16
4.7698004059175e+16
4.74340293695632e+16
4.71669500895712e+16
4.68967186668401e+16
4.66232855598362e+16
4.6346599233892e+16
4.60666061564819e+16
4.57832507691474e+16
4.54964754952828e+16
4.52062207705939e+16
4.49124250081082e+16
4.46150245779372e+16
4.4313953812353e+16
4.4009144997245e+16
4.37005283830332e+16
4.33880321662639e+16
4.30715824608592e+16
4.27511032960526e+16
4.24265166272953e+16
4.20977423669321e+16
4.17646983965442e+16
4.142730057981e+16
4.10854628294981e+16
4.07390971425561e+16
4.0388113565609e+16
4.00324201711091e+16
3.96719230976675e+16
3.93065266119128e+16
3.89361331616012e+16
3.85606434404126e+16
3.81799563870512e+16
3.77939691384222e+16
3.74025770545912e+16
3.70056737737581e+16
3.66031512266768e+16
3.61948996631756e+16
3.5780807709865e+16
3.53607624275187e+16
3.49346493579146e+16
3.4502352568624e+16
3.40637547692564e+16
3.36187374483289e+16
3.31671808985082e+16
3.27089641933204e+16
3.22439652222357e+16
3.17720607670033e+16
3.12931265450756e+16
3.08070372472683e+16
3.03136666005921e+16
2.9812887447296e+16
2.93045718903544e+16
2.8788591424449e+16
2.82648169670495e+16
2.77331188739136e+16
2.71933669549588e+16
2.66454305616939e+16
2.60891787539286e+16
2.55244803978247e+16
2.49512043068644e+16
2.43692194452044e+16
2.37783950192526e+16
2.31786006755355e+16
2.25697067657498e+16
2.19515847113459e+16
2.1324107033626e+16
2.06871469115365e+16
2.00405752167997e+16
1.93842438199822e+16
1.87179606844176e+16
1.80414813819446e+16
1.73545116144861e+16
1.66567178656142e+16
1.59477570226273e+16
1.52272974463419e+16
1.4495018228079e+16
1.37506212282695e+16
1.29938924526209e+16
1.22248337459906e+16
1.14438339564477e+16
1.0651851752073e+16
9.8506579704352e+15
9.04304058040613e+15
8.23294348581098e+15
7.42570039076928e+15
6.6281204856705e+15
5.84828454367233e+15
5.09529079386314e+15
4.37880163881557e+15
3.70829085103747e+15
3.09228731880133e+15
2.53762748286162e+15
2.04874215708957e+15
1.6272817783681e+15
1.27207840151996e+15
979385575318684
743445347718695
557198895617814
413009720180829
303330338418733
221200777646188
160161731912568
115063880663720
81987476215101.2
57846191376966
40243505960900.4
27586935365632.1
18717158363339.2
12564394312222.8
8383374580486.78
5684146955551.42
4042805603600.7
3090115991639.43
2545926965600.57
2230037849176.81
2039732042087.05
1919634927119.9
1840018388321.39
1784421848996.87
1743382662683.39
1711235056314.68
1684431627140.55
1660687218325.93
1638485434370.76
1616812166095.5
1595047921821.92
1572786586128.01
1549748478512.92
1525754230715.14
1500722918815.01
1474653482450.21
1447592158687.78
1419617752498.08
1390830884626.9
1361344673852.96
1331278931097.29
1300755682518.62
1269895849683.21
1238817531854.03
1207633415323.74
1176449842198.92
1145366188595.7
1114473864898.82
1083855893358.44
1053587395250.8
1023734849100.91
994356571969.87
965503248088.832
937216731184.786
909531895248.922
882478401101.863
856080796882.716
830358431431.854
805324637177.926
780987834963.209
757352091519.127
734417842094.014
712183462484.688
690644964588.233
669795631459.859
649626231492.565
630125701910.798
611282348362.271
593082029308.336
575507027357.753
558540410757.018
542166748203.682
526369657653.228
511131580677.863
496434761647.65
482261176621.49
468592878916.808
455412301567.853
442701074812.563
430440529982.508
418612574698.026
407199241802.334
396182157344.794
385544365300.693
375271706041.249
365352004267.348
355773857252.067
346526597307.732
337600179878.206
328985093184.988
320672620546.759
312654869659.228
304924639402.715
297474578270.331
290296537022.832
283370204369.591
276669609268.259
270187673736.974
263931834452.156
257911317259.278
252135761563.927
246590075496.582
241250845478.421
236133797942.612
231279380458.252
226686007955.3
222382536744.552
218448852866.404
215007362927.921
212311203677.595
210767245201.526
211111753045.292
)
;

boundaryField
{
    electrode
    {
        type            calculated;
        value           uniform 6.04373695622024e+16;
    }
    ground
    {
        type            calculated;
        value           uniform 212753758763.665;
    }
    otherfaces
    {
        type            empty;
    }
}


// ************************************************************************* //
