/*--------------------------------*- C++ -*----------------------------------*\
| =========                 |                                                 |
| \\      /  F ield         | foam-extend: Open Source CFD                    |
|  \\    /   O peration     | Version:     4.0                                |
|   \\  /    A nd           | Web:         http://www.foam-extend.org         |
|    \\/     M anipulation  |                                                 |
\*---------------------------------------------------------------------------*/
FoamFile
{
    version     2.0;
    format      ascii;
    class       volScalarField;
    location    "6.2e-06";
    object      Phi;
}
// * * * * * * * * * * * * * * * * * * * * * * * * * * * * * * * * * * * * * //

dimensions      [0 0 0 1 0 0 0];

internalField   nonuniform List<scalar> 
300
(
699.999925966027
699.999713540369
699.999210054013
699.998448977543
699.997438787852
699.996174136021
699.994655920575
699.992883719298
699.9908569901
699.988575264025
699.98603797779
699.98324451807
699.980194218763
699.976886357662
699.973320157128
699.969494783321
699.965409345555
699.961062895675
699.956454427351
699.951582875348
699.946447114751
699.941045960145
699.935378164764
699.929442419591
699.923237352419
699.916761526876
699.910013441397
699.902991528169
699.895694152023
699.888119609292
699.880266126617
699.872131859722
699.863714892137
699.855013233881
699.846024820104
699.836747509677
699.827179083745
699.817317244229
699.807159612285
699.796703726713
699.785947042318
699.774886928225
699.763520666143
699.751845448572
699.739858376965
699.72755645983
699.714936610783
699.701995646534
699.688730284821
699.675137142281
699.661212732256
699.646953462534
699.632355633022
699.617415433344
699.60212894037
699.586492115665
699.570500802852
699.554150724902
699.537437481325
699.520356545256
699.502903260438
699.485072838137
699.46686035406
699.448260745214
699.429268806127
699.40987918379
699.390086372933
699.369884716641
699.349268415865
699.328231532706
699.306767938955
699.284871194026
699.262534521766
699.239750941212
699.216513290229
699.192814219806
699.168646188561
699.144001456501
699.118872078375
699.09324989675
699.067126534808
699.040493388858
699.013341620542
698.985662148707
698.957445640927
698.928682504648
698.899362877923
698.86947661972
698.839013299763
698.807962187876
698.776312242797
698.74405210043
698.711170061485
698.677654078471
698.643491741997
698.608670266335
698.573176474184
698.536996780589
698.500117175954
698.46252320808
698.424199963163
698.385132045676
698.345303557053
698.304698073095
698.263298619992
698.221087648869
698.178047008742
698.134157917764
698.089400932627
698.04375591599
697.997202001768
697.949717558111
697.901280147905
697.851866486579
697.801452397008
697.750012761269
697.697521468987
697.643951361983
697.589274174901
697.533460471477
697.476479576052
697.418299499905
697.358886861947
697.298206803235
697.236222894754
697.172897037798
697.108189356258
697.04205808001
696.974459418522
696.90534742368
696.834673840728
696.762387946075
696.688436370562
696.61276290661
696.535308297479
696.456010006598
696.374801964718
696.291614292254
696.206372993867
696.118999622029
696.029410905587
695.93751833868
695.843227725522
695.7464386764
695.647044042794
695.544929285143
695.439971793114
695.332040086492
695.220992859938
695.106678155355
694.988932311601
694.867577897258
694.742422279198
694.613256485609
694.479853297786
694.341965212029
694.199321777124
694.051626898494
693.898555563972
693.739749307851
693.574814275348
693.4033090257
693.224754817708
693.038592832898
692.844239104932
692.64094012387
692.42768019086
692.203387753181
691.9669101119
691.716938378913
691.451956662868
691.170095409909
690.869227152282
690.546766456841
690.19983577182
689.82560315048
689.420643426333
688.980805002226
688.501964538081
687.979703570278
687.408761493917
686.783977503859
686.100182754815
685.351427893033
684.532441123598
683.637980078125
682.662653676846
681.601829672049
680.451727873742
679.208315489426
677.868720126997
676.430927357581
674.893512514906
673.254937534341
671.514971385435
669.673785109499
667.731908829392
665.68950745209
663.54706727389
661.304637586946
658.9630232593
656.521968431099
653.980636227387
651.338381611228
648.594518980256
645.749105145652
642.802600708968
639.755866347885
636.609866132428
633.365583887883
630.02396180973
626.585872370977
623.052104505696
619.423359063071
615.700728983637
611.885207019687
607.977720901152
603.979095368583
599.890102804371
595.711422581491
591.443691343918
587.087461245252
582.643250918588
578.111502270075
573.492632604134
568.786997939534
563.995248876013
559.11795556651
554.155689974047
549.108948852926
543.978237850362
538.763991307538
533.466658444161
528.086619361298
522.62427406084
517.079954800222
511.45401792072
505.746752787114
499.958477012023
494.089441267676
488.139928381049
482.110154162044
476.000401893915
469.811063564492
463.542565248083
457.195267836994
450.769569605261
444.26580345021
437.684342791674
431.025495053654
424.289611086626
417.476975174574
410.587917528394
403.622700727111
396.58163574015
389.464964827564
382.272980783453
375.005906554427
367.664017865801
360.247519590201
352.756671394536
345.191661004994
337.552733075829
329.840059090753
322.053869378432
314.19431956782
306.261665552569
298.256180302022
290.178199122445
282.027978966997
273.805841370076
265.512028257877
257.1468482289
248.710528997104
240.203366847339
231.625576101674
222.977441528086
214.259164750193
205.471019684304
196.613195802593
187.685956995427
178.689481238456
169.624023012391
160.489749202564
151.28690518632
142.015647422796
132.676212844721
123.268747931168
113.793481510155
104.250550347893
94.6401754712128
84.9624846367812
75.217691789892
65.4059167109518
55.5273664052789
45.58215330879
35.5704785390348
25.4924478161986
15.3482576319368
5.13800817829775
)
;

boundaryField
{
    electrode
    {
        type            fixedValue;
        value           uniform 700;
    }
    ground
    {
        type            fixedValue;
        value           uniform 0;
    }
    otherfaces
    {
        type            empty;
    }
}


// ************************************************************************* //
