/*--------------------------------*- C++ -*----------------------------------*\
| =========                 |                                                 |
| \\      /  F ield         | foam-extend: Open Source CFD                    |
|  \\    /   O peration     | Version:     4.0                                |
|   \\  /    A nd           | Web:         http://www.foam-extend.org         |
|    \\/     M anipulation  |                                                 |
\*---------------------------------------------------------------------------*/
FoamFile
{
    version     2.0;
    format      ascii;
    class       volScalarField;
    location    "6.2e-06";
    object      Te;
}
// * * * * * * * * * * * * * * * * * * * * * * * * * * * * * * * * * * * * * //

dimensions      [0 0 0 1 0 0 0];

internalField   nonuniform List<scalar> 
300
(
40228.5948109983
40228.8920908158
40229.0731034694
40229.1829670787
40229.3553828871
40229.5647249018
40229.8144004286
40230.1061846934
40230.4393404544
40230.8140218571
40231.2302395891
40231.6879833403
40232.1872686778
40232.7281115076
40233.3105337178
40233.9345633411
40234.6002340784
40235.3075854964
40236.0566630356
40236.847518037
40237.6802077851
40238.5547955441
40239.4713506037
40240.4299483275
40241.4306702021
40242.473603893
40243.5588433048
40244.6864886432
40245.8566464832
40247.0694298415
40248.3249582493
40249.6233578335
40250.9647614016
40252.3493085305
40253.7771456577
40255.2484261844
40256.7633105741
40258.3219664614
40259.9245687699
40261.5712998247
40263.2623494798
40264.9979152484
40266.7782024369
40268.6034242879
40270.4738021276
40272.389565519
40274.3509524257
40276.3582093782
40278.4115916478
40280.5113634296
40282.657798035
40284.8511780869
40287.0917957265
40289.3799528314
40291.7159612347
40294.1001429569
40296.5328304534
40299.0143668758
40301.5451063423
40304.1254141793
40306.7556671219
40309.4362535746
40312.1675742934
40314.9500436342
40317.7840896529
40320.670149918
40323.6086645633
40326.6000822011
40329.6449051436
40332.7437599089
40335.8973426947
40339.106193919
40342.3706967758
40345.6913034268
40349.0685809564
40352.503136082
40355.9955999909
40359.5466247549
40363.1568826653
40366.8270665487
40370.5578903713
40374.3500899524
40378.2044237266
40382.1216735499
40386.1026455433
40390.1481709713
40394.2591071692
40398.4363385108
40402.6807774197
40406.9933654378
40411.3750743393
40415.8269073021
40420.3499001412
40424.9451226031
40429.6136797262
40434.3567132754
40439.1754032492
40444.0709694723
40449.0446732716
40454.0978192437
40459.2317571241
40464.4478837607
40469.7476451997
40475.1325388899
40480.6041160224
40486.1639840053
40491.8138090855
40497.5553191345
40503.3903066065
40509.3206316764
40515.3482255843
40521.4750941936
40527.7033217774
40534.0350750624
40540.4726075404
40547.018264078
40553.6744858419
40560.4438155776
40567.3289032614
40574.3325121587
40581.4575253406
40588.7069526855
40596.0839384106
40603.5917691944
40611.233882938
40619.0138782328
40626.9355246011
40635.0027735917
40643.2197708189
40651.5908690384
40660.1206423795
40668.8139018585
40677.6757123101
40686.7114109037
40695.9266274301
40705.3273065608
40714.9197323504
40724.7105551756
40734.7068214562
40744.9160067892
40755.346052541
40766.0054053793
40776.9030632967
40788.0486311193
40799.452364203
40811.1252285637
40823.0790389671
40835.3264570296
40847.8809379155
40860.7574761495
40873.972860177
40887.5444580694
40901.4903741286
40915.830629056
40930.5874239145
40945.7851934608
40961.4505459263
40977.6133677662
40994.3053555162
41011.5646248476
41029.4284793625
41047.9490699676
41067.1801650255
41087.2053360383
41108.2525369603
41130.4355726589
41153.6172454314
41177.7961900742
41203.1614915986
41229.9663032651
41258.4299070876
41288.6945352634
41320.9077255595
41354.8990491104
41390.6420249397
41428.9011759052
41470.0603176633
41513.7723833221
41560.5161017335
41611.1608111689
41665.8519859614
41725.738596672
41792.7517278729
41868.4809479979
41956.3810365666
42061.5565935629
42189.8903156219
42350.7649676855
42557.7225325095
42827.8271766487
43185.2157327977
43664.4249824661
44315.1553288203
45206.7655417581
46422.5339478447
48107.5776664919
50482.0209038611
53842.6515323303
58685.0738989042
64862.8897577124
73126.7376683026
86132.1320184749
103797.073133677
128131.342825977
161691.129758733
206255.580392803
261523.86258949
324303.200544761
389794.228387549
453551.594870444
512593.308565708
565550.031287631
612167.496535412
652823.045996616
688181.812270687
718907.7839111
745746.808811478
769372.733849907
790323.309959198
809038.017971159
825859.166662081
841064.317045121
854914.664967397
867623.363994282
879361.654210372
890270.675136889
900467.232778714
910048.094576034
919093.326852556
927669.293557849
935830.882737874
943623.317612758
951083.610689155
958241.747727519
965121.656555768
971742.00681063
978116.867594958
984256.302009434
990166.755692375
995852.271030532
1001313.40495712
1006544.56931762
1011540.53197843
1016297.00575499
1020805.93553161
1025057.57408664
1029040.49379577
1032741.86223143
1036147.57836901
1039242.41151743
1042010.12110092
1044433.56960456
1046494.79748731
1048175.16635808
1049454.93754579
1050314.33581981
1050723.62949393
1050683.33133932
1050160.36089389
1049134.42059085
1047582.93165445
1045483.80647768
1042814.53434108
1039552.34043511
1035674.09984906
1031156.29864621
1025975.11139596
1020106.44530343
1013525.90874222
1006208.8518566
998133.306836267
989270.389835998
979591.336266487
969072.967669505
957686.27452074
945401.314922043
932186.395710425
918008.186240273
902831.446219982
886618.809215142
869330.382012838
850924.051314308
831353.533541332
810581.394141563
788551.156447291
765198.948300113
740468.560219422
714280.685098324
686549.961991278
657192.148747265
626096.981757723
593131.789581573
558160.932529713
520995.467713298
481403.887415724
439100.087040839
393685.986377334
344599.731511344
291025.320254639
231893.440491016
)
;

boundaryField
{
    electrode
    {
        type            electronTemperature;
        seec            0.05;
        Tse             1000;
        Edepend         1;
        TFN             1000;
        field_emission  0;
        field_enhancement_factor 55;
        work_function   5;
        value           uniform 40228.5948109983;
    }
    ground
    {
        type            electronTemperature;
        seec            0.05;
        Tse             1000;
        Edepend         1;
        TFN             1000;
        field_emission  0;
        field_enhancement_factor 55;
        work_function   5;
        value           uniform 198354.873011408;
    }
    otherfaces
    {
        type            empty;
    }
}


// ************************************************************************* //
