/*--------------------------------*- C++ -*----------------------------------*\
| =========                 |                                                 |
| \\      /  F ield         | foam-extend: Open Source CFD                    |
|  \\    /   O peration     | Version:     4.0                                |
|   \\  /    A nd           | Web:         http://www.foam-extend.org         |
|    \\/     M anipulation  |                                                 |
\*---------------------------------------------------------------------------*/
FoamFile
{
    version     2.0;
    format      ascii;
    class       volVectorField;
    location    "1e-10";
    object      E;
}
// * * * * * * * * * * * * * * * * * * * * * * * * * * * * * * * * * * * * * //

dimensions      [0 0 0 1 0 0 0];

internalField   nonuniform List<vector> 
249
(
(-0 2265.21540499273 -0)
(-0 1510.05067086261 -0)
(-0 1510.05066890492 -0)
(-0 1510.05066755005 -0)
(-0 1510.05066734811 -0)
(-0 1510.05066848411 -0)
(-0 1510.05067096401 -0)
(-0 1510.05067202711 -0)
(-0 1510.05067203183 -0)
(-0 1510.05067130045 -0)
(-0 1510.05066902157 -0)
(-0 1510.0506675992 -0)
(-0 1510.05066796774 -0)
(-0 1510.05066720198 -0)
(-0 1510.05066571677 -0)
(-0 1510.05066522352 -0)
(-0 1510.05066512555 -0)
(-0 1510.05066572215 -0)
(-0 1510.05066704809 -0)
(-0 1510.05066890759 -0)
(-0 1510.05066988597 -0)
(-0 1510.0506707142 -0)
(-0 1510.05067004598 -0)
(-0 1510.05066816602 -0)
(-0 1510.05066678592 -0)
(-0 1510.0506658377 -0)
(-0 1510.05066663908 -0)
(-0 1510.05066801677 -0)
(-0 1510.05066854201 -0)
(-0 1510.05066827766 -0)
(-0 1510.05066952511 -0)
(-0 1510.05067064243 -0)
(-0 1510.05066964109 -0)
(-0 1510.05066838877 -0)
(-0 1510.05066708057 -0)
(-0 1510.05066675447 -0)
(-0 1510.05066715024 -0)
(-0 1510.05066569382 -0)
(-0 1510.05066475249 -0)
(-0 1510.05066361591 -0)
(-0 1510.05066395776 -0)
(-0 1510.05066593534 -0)
(-0 1510.05066609564 -0)
(-0 1510.05066596157 -0)
(-0 1510.05066688598 -0)
(-0 1510.05066688289 -0)
(-0 1510.05066590496 -0)
(-0 1510.05066606019 -0)
(-0 1510.05066692387 -0)
(-0 1510.05066907347 -0)
(-0 1510.05067022815 -0)
(-0 1510.05066951583 -0)
(-0 1510.05067084776 -0)
(-0 1510.05067215493 -0)
(-0 1510.05067264953 -0)
(-0 1510.05067373855 -0)
(-0 1510.05067335022 -0)
(-0 1510.05067333609 -0)
(-0 1510.05067258098 -0)
(-0 1510.05067194581 -0)
(-0 1510.05067261892 -0)
(-0 1510.05067123705 -0)
(-0 1510.05066951121 -0)
(-0 1510.0506684429 -0)
(-0 1510.05066869133 -0)
(-0 1510.05067024061 -0)
(-0 1510.05067059871 -0)
(-0 1510.05066924789 -0)
(-0 1510.05066810435 -0)
(-0 1510.05066923193 -0)
(-0 1510.05067028152 -0)
(-0 1510.05066951865 -0)
(-0 1510.0506697595 -0)
(-0 1510.05066996678 -0)
(-0 1510.05067008754 -0)
(-0 1510.05067112655 -0)
(-0 1510.05067133331 -0)
(-0 1510.05067086237 -0)
(-0 1510.0506722681 -0)
(-0 1510.05067301656 -0)
(-0 1510.05067206127 -0)
(-0 1510.0506723878 -0)
(-0 1510.05067236229 -0)
(-0 1510.05067151474 -0)
(-0 1510.05067085438 -0)
(-0 1510.05067107933 -0)
(-0 1510.05067103246 -0)
(-0 1510.05067147287 -0)
(-0 1510.05067299488 -0)
(-0 1510.05067396485 -0)
(-0 1510.05067373807 -0)
(-0 1510.05067404977 -0)
(-0 1510.05067444279 -0)
(-0 1510.05067438533 -0)
(-0 1510.05067502974 -0)
(-0 1510.05067532742 -0)
(-0 1510.05067543754 -0)
(-0 1510.0506757406 -0)
(-0 1510.05067601305 -0)
(-0 1510.05067612286 -0)
(-0 1510.05067679505 -0)
(-0 1510.05067731586 -0)
(-0 1510.05067593158 -0)
(-0 1510.05067486941 -0)
(-0 1510.05067403171 -0)
(-0 1510.05067379542 -0)
(-0 1510.05067335994 -0)
(-0 1510.05067224652 -0)
(-0 1510.05067246917 -0)
(-0 1510.05067175979 -0)
(-0 1510.05067013759 -0)
(-0 1510.05066967881 -0)
(-0 1510.05067001269 -0)
(-0 1510.05066906184 -0)
(-0 1510.05066848436 -0)
(-0 1510.05066907387 -0)
(-0 1510.05066966382 -0)
(-0 1510.05066984032 -0)
(-0 1510.05066914101 -0)
(-0 1510.05066866521 -0)
(-0 1510.05066823063 -0)
(-0 1510.05066762565 -0)
(-0 1510.05066727854 -0)
(-0 1510.05066687085 -0)
(-0 1510.0506668998 -0)
(-0 1510.05066832368 -0)
(-0 1510.05066990308 -0)
(-0 1510.05066927732 -0)
(-0 1510.05066916083 -0)
(-0 1510.05066994358 -0)
(-0 1510.05066912433 -0)
(-0 1510.05066859248 -0)
(-0 1510.05066855998 -0)
(-0 1510.05066880931 -0)
(-0 1510.05066883116 -0)
(-0 1510.05066839513 -0)
(-0 1510.05066875154 -0)
(-0 1510.05066955381 -0)
(-0 1510.05067015786 -0)
(-0 1510.05067009864 -0)
(-0 1510.05066923265 -0)
(-0 1510.05066880562 -0)
(-0 1510.05066847651 -0)
(-0 1510.05066796414 -0)
(-0 1510.05066772987 -0)
(-0 1510.05066758129 -0)
(-0 1510.05066816249 -0)
(-0 1510.05066844931 -0)
(-0 1510.05066827323 -0)
(-0 1510.05066821191 -0)
(-0 1510.05066821081 -0)
(-0 1510.05066830931 -0)
(-0 1510.05066772201 -0)
(-0 1510.05066765656 -0)
(-0 1510.05066821632 -0)
(-0 1510.05066834781 -0)
(-0 1510.05066874372 -0)
(-0 1510.05066860954 -0)
(-0 1510.05066809969 -0)
(-0 1510.05066725342 -0)
(-0 1510.05066571972 -0)
(-0 1510.0506651043 -0)
(-0 1510.05066533491 -0)
(-0 1510.05066504784 -0)
(-0 1510.05066429663 -0)
(-0 1510.05066466196 -0)
(-0 1510.05066469081 -0)
(-0 1510.05066410637 -0)
(-0 1510.05066387649 -0)
(-0 1510.05066377395 -0)
(-0 1510.05066396634 -0)
(-0 1510.05066359273 -0)
(-0 1510.05066316311 -0)
(-0 1510.05066287908 -0)
(-0 1510.0506631649 -0)
(-0 1510.05066358477 -0)
(-0 1510.05066283638 -0)
(-0 1510.05066329143 -0)
(-0 1510.05066437924 -0)
(-0 1510.050664374 -0)
(-0 1510.05066447261 -0)
(-0 1510.05066411078 -0)
(-0 1510.05066347365 -0)
(-0 1510.05066330256 -0)
(-0 1510.05066306523 -0)
(-0 1510.05066268383 -0)
(-0 1510.05066242599 -0)
(-0 1510.0506624385 -0)
(-0 1510.05066291589 -0)
(-0 1510.0506632237 -0)
(-0 1510.05066338614 -0)
(-0 1510.05066340785 -0)
(-0 1510.05066259239 -0)
(-0 1510.05066211115 -0)
(-0 1510.05066188488 -0)
(-0 1510.05066148218 -0)
(-0 1510.05066146191 -0)
(-0 1510.05066094982 -0)
(-0 1510.05066062832 -0)
(-0 1510.05066098783 -0)
(-0 1510.05066103085 -0)
(-0 1510.05066122499 -0)
(-0 1510.05066177896 -0)
(-0 1510.05066223353 -0)
(-0 1510.05066270258 -0)
(-0 1510.05066277127 -0)
(-0 1510.05066279271 -0)
(-0 1510.05066293846 -0)
(-0 1510.05066264716 -0)
(-0 1510.05066260801 -0)
(-0 1510.05066252312 -0)
(-0 1510.05066192534 -0)
(-0 1510.05066197614 -0)
(-0 1510.0506626921 -0)
(-0 1510.05066323335 -0)
(-0 1510.05066340172 -0)
(-0 1510.05066375279 -0)
(-0 1510.05066371767 -0)
(-0 1510.05066293326 -0)
(-0 1510.0506625611 -0)
(-0 1510.05066241186 -0)
(-0 1510.0506621595 -0)
(-0 1510.05066255014 -0)
(-0 1510.05066286898 -0)
(-0 1510.05066292313 -0)
(-0 1510.05066324101 -0)
(-0 1510.05066315129 -0)
(-0 1510.05066283062 -0)
(-0 1510.05066266508 -0)
(-0 1510.05066263317 -0)
(-0 1510.05066270248 -0)
(-0 1510.05066276179 -0)
(-0 1510.05066286881 -0)
(-0 1510.0506627843 -0)
(-0 1510.05066266387 -0)
(-0 1510.05066272488 -0)
(-0 1510.05066267763 -0)
(-0 1510.05066283238 -0)
(-0 1510.05066281773 -0)
(-0 1510.05066241317 -0)
(-0 1510.05066216701 -0)
(-0 1510.05066221313 -0)
(-0 1510.05066233517 -0)
(-0 1510.05066222095 -0)
(-0 1510.0506619495 -0)
(-0 1510.0506616746 -0)
(-0 1510.05066160015 -0)
(-0 1510.05066170121 -0)
(-0 2265.3998824456 -0)
)
;

boundaryField
{
    dielectric_2
    {
        type            calculated;
        value           nonuniform 0();
    }
    dielectric_1
    {
        type            calculated;
        value           nonuniform 0();
    }
    otherfaces
    {
        type            empty;
    }
    procBoundary0to1
    {
        type            processor;
        value           uniform (-0 2265.35021481777 -0);
    }
    procBoundary0to2
    {
        type            processor;
        value           uniform (-0 2265.72978042453 -0);
    }
}


// ************************************************************************* //
