/*--------------------------------*- C++ -*----------------------------------*\
| =========                 |                                                 |
| \\      /  F ield         | foam-extend: Open Source CFD                    |
|  \\    /   O peration     | Version:     4.0                                |
|   \\  /    A nd           | Web:         http://www.foam-extend.org         |
|    \\/     M anipulation  |                                                 |
\*---------------------------------------------------------------------------*/
FoamFile
{
    version     2.0;
    format      ascii;
    class       volVectorField;
    location    "2e-10";
    object      E;
}
// * * * * * * * * * * * * * * * * * * * * * * * * * * * * * * * * * * * * * //

dimensions      [0 0 0 1 0 0 0];

internalField   nonuniform List<vector> 
252
(
(-0 3020.702371871 -0)
(-0 3020.61537224845 -0)
(-0 3020.61579909928 -0)
(-0 3020.61610197271 -0)
(-0 3020.6170448701 -0)
(-0 3020.6182300491 -0)
(-0 3020.61836822011 -0)
(-0 3020.61888689875 -0)
(-0 3020.61977422987 -0)
(-0 3020.61930243624 -0)
(-0 3020.6189532589 -0)
(-0 3020.61817444892 -0)
(-0 3020.61713970304 -0)
(-0 3020.61801785618 -0)
(-0 3020.61824185669 -0)
(-0 3020.61714233803 -0)
(-0 3020.61723010892 -0)
(-0 3020.61790709753 -0)
(-0 3020.61853856927 -0)
(-0 3020.6190380747 -0)
(-0 3020.61896618442 -0)
(-0 3020.61950732845 -0)
(-0 3020.62034903479 -0)
(-0 3020.62126316945 -0)
(-0 3020.62197485413 -0)
(-0 3020.62141525984 -0)
(-0 3020.62082237276 -0)
(-0 3020.62086757032 -0)
(-0 3020.61943320066 -0)
(-0 3020.61840312176 -0)
(-0 3020.61917090956 -0)
(-0 3020.6197169625 -0)
(-0 3020.6194716902 -0)
(-0 3020.61913600626 -0)
(-0 3020.61946607739 -0)
(-0 3020.61900638871 -0)
(-0 3020.61920927957 -0)
(-0 3020.61999905922 -0)
(-0 3020.61954340346 -0)
(-0 3020.61942462778 -0)
(-0 3020.61981952669 -0)
(-0 3020.62054852511 -0)
(-0 3020.62099501732 -0)
(-0 3020.62090889213 -0)
(-0 3020.62090603671 -0)
(-0 3020.62087967694 -0)
(-0 3020.62080140993 -0)
(-0 3020.62016066136 -0)
(-0 3020.62045371119 -0)
(-0 3020.62123327097 -0)
(-0 3020.6213079191 -0)
(-0 3020.6211598244 -0)
(-0 3020.62053798434 -0)
(-0 3020.62026561279 -0)
(-0 3020.62049110057 -0)
(-0 3020.62016660589 -0)
(-0 3020.62008556039 -0)
(-0 3020.62019104657 -0)
(-0 3020.62024319165 -0)
(-0 3020.6203350633 -0)
(-0 3020.61993438155 -0)
(-0 3020.61986878489 -0)
(-0 3020.62000957433 -0)
(-0 3020.61994453892 -0)
(-0 3020.61968133789 -0)
(-0 3020.61943100573 -0)
(-0 3020.61937375906 -0)
(-0 3020.6190298368 -0)
(-0 3020.61903928527 -0)
(-0 3020.61966267714 -0)
(-0 3020.62002133022 -0)
(-0 3020.61978662559 -0)
(-0 3020.61927909816 -0)
(-0 3020.61935213738 -0)
(-0 3020.61938021312 -0)
(-0 3020.61939636551 -0)
(-0 3020.61990397892 -0)
(-0 3020.6204925254 -0)
(-0 3020.62089737156 -0)
(-0 3020.62067936691 -0)
(-0 3020.62025032438 -0)
(-0 3020.61978120634 -0)
(-0 3020.61982851232 -0)
(-0 3020.62009784448 -0)
(-0 3020.61987660668 -0)
(-0 3020.61948985136 -0)
(-0 3020.61889975978 -0)
(-0 3020.6187670204 -0)
(-0 3020.61865417856 -0)
(-0 3020.61799961021 -0)
(-0 3020.61765403693 -0)
(-0 3020.61761721331 -0)
(-0 3020.61767146433 -0)
(-0 3020.61832721183 -0)
(-0 3020.61850380078 -0)
(-0 3020.61825952075 -0)
(-0 3020.61862744402 -0)
(-0 3020.61864786717 -0)
(-0 3020.61790743249 -0)
(-0 3020.61772252456 -0)
(-0 3020.61812866534 -0)
(-0 3020.61783538466 -0)
(-0 3020.61777539177 -0)
(-0 3020.61786070758 -0)
(-0 3020.6177141382 -0)
(-0 3020.61787260243 -0)
(-0 3020.61803693101 -0)
(-0 3020.61808054361 -0)
(-0 3020.61787256437 -0)
(-0 3020.61762046748 -0)
(-0 3020.61741176934 -0)
(-0 3020.61761129859 -0)
(-0 3020.61774684327 -0)
(-0 3020.61752652166 -0)
(-0 3020.61777720493 -0)
(-0 3020.61778920564 -0)
(-0 3020.61726910101 -0)
(-0 3020.61732746061 -0)
(-0 3020.61764993248 -0)
(-0 3020.6177481072 -0)
(-0 3020.61786527942 -0)
(-0 3020.61818562164 -0)
(-0 3020.61841008534 -0)
(-0 3020.61853052126 -0)
(-0 3020.61871950881 -0)
(-0 3020.61894992868 -0)
(-0 3020.61897698986 -0)
(-0 3020.61870433135 -0)
(-0 3020.61882244521 -0)
(-0 3020.61860825389 -0)
(-0 3020.61801297579 -0)
(-0 3020.6178701151 -0)
(-0 3020.61777455675 -0)
(-0 3020.61782429465 -0)
(-0 3020.61784710752 -0)
(-0 3020.61753153929 -0)
(-0 3020.61712073046 -0)
(-0 3020.61688206394 -0)
(-0 3020.61715366254 -0)
(-0 3020.61750464525 -0)
(-0 3020.61761075217 -0)
(-0 3020.61760393793 -0)
(-0 3020.61764751708 -0)
(-0 3020.61780623486 -0)
(-0 3020.61772418431 -0)
(-0 3020.6176219969 -0)
(-0 3020.6175972125 -0)
(-0 3020.6178763446 -0)
(-0 3020.61825943305 -0)
(-0 3020.61831906569 -0)
(-0 3020.61811940507 -0)
(-0 3020.61775080834 -0)
(-0 3020.61762090628 -0)
(-0 3020.61823395211 -0)
(-0 3020.61871720264 -0)
(-0 3020.61846023902 -0)
(-0 3020.6178911268 -0)
(-0 3020.61759010406 -0)
(-0 3020.61782038297 -0)
(-0 3020.61794754668 -0)
(-0 3020.61798642497 -0)
(-0 3020.61806385438 -0)
(-0 3020.61814337883 -0)
(-0 3020.61813708227 -0)
(-0 3020.61825501623 -0)
(-0 3020.61846271474 -0)
(-0 3020.6187496559 -0)
(-0 3020.61883184081 -0)
(-0 3020.61883851692 -0)
(-0 3020.6187474241 -0)
(-0 3020.61860193837 -0)
(-0 3020.61867892272 -0)
(-0 3020.61856020835 -0)
(-0 3020.61834962595 -0)
(-0 3020.61826377618 -0)
(-0 3020.61830283554 -0)
(-0 3020.61851076569 -0)
(-0 3020.61859568285 -0)
(-0 3020.61838771172 -0)
(-0 3020.61830222684 -0)
(-0 3020.61829723312 -0)
(-0 3020.61837556343 -0)
(-0 3020.61870845017 -0)
(-0 3020.61867682182 -0)
(-0 3020.61850314074 -0)
(-0 3020.61866282245 -0)
(-0 3020.61887917126 -0)
(-0 3020.61900999277 -0)
(-0 3020.61900949108 -0)
(-0 3020.61881809545 -0)
(-0 3020.61870516306 -0)
(-0 3020.6186061177 -0)
(-0 3020.61823618878 -0)
(-0 3020.61815891656 -0)
(-0 3020.61818455626 -0)
(-0 3020.61813992494 -0)
(-0 3020.61828188554 -0)
(-0 3020.61815894837 -0)
(-0 3020.61798502045 -0)
(-0 3020.61792804042 -0)
(-0 3020.61788476326 -0)
(-0 3020.61813409084 -0)
(-0 3020.61822761681 -0)
(-0 3020.61816862011 -0)
(-0 3020.61824471876 -0)
(-0 3020.61815116584 -0)
(-0 3020.61787028057 -0)
(-0 3020.61738812437 -0)
(-0 3020.61701685142 -0)
(-0 3020.61731398255 -0)
(-0 3020.61746774253 -0)
(-0 3020.61744545843 -0)
(-0 3020.61747038424 -0)
(-0 3020.61735525355 -0)
(-0 3020.61759057059 -0)
(-0 3020.6178055429 -0)
(-0 3020.6178624877 -0)
(-0 3020.61810800432 -0)
(-0 3020.61800602877 -0)
(-0 3020.61784630309 -0)
(-0 3020.61797883107 -0)
(-0 3020.61797679279 -0)
(-0 3020.61794238677 -0)
(-0 3020.61766853698 -0)
(-0 3020.61749294718 -0)
(-0 3020.61744334453 -0)
(-0 3020.61735838974 -0)
(-0 3020.61759439392 -0)
(-0 3020.61780776054 -0)
(-0 3020.61789678344 -0)
(-0 3020.61776748925 -0)
(-0 3020.6175625019 -0)
(-0 3020.61756294079 -0)
(-0 3020.61758293167 -0)
(-0 3020.61732924534 -0)
(-0 3020.61732967985 -0)
(-0 3020.61740094532 -0)
(-0 3020.61722889879 -0)
(-0 3020.61737764523 -0)
(-0 3020.6175296265 -0)
(-0 3020.61744835146 -0)
(-0 3020.61715306614 -0)
(-0 3020.61705704736 -0)
(-0 3020.61692910458 -0)
(-0 3020.61677632677 -0)
(-0 3020.61700408916 -0)
(-0 3020.61697841326 -0)
(-0 3020.61693846654 -0)
(-0 3020.61713035673 -0)
(-0 3020.61707528342 -0)
(-0 3020.6170870096 -0)
(-0 4530.91861002363 -0)
)
;

boundaryField
{
    dielectric_2
    {
        type            calculated;
        value           nonuniform 0();
    }
    dielectric_1
    {
        type            calculated;
        value           uniform (-0 3020.78960741415 -0);
    }
    otherfaces
    {
        type            empty;
    }
    procBoundary1to0
    {
        type            processor;
        value           uniform (-0 4530.91222680696 -0);
    }
}


// ************************************************************************* //
