/*--------------------------------*- C++ -*----------------------------------*\
| =========                 |                                                 |
| \\      /  F ield         | foam-extend: Open Source CFD                    |
|  \\    /   O peration     | Version:     4.0                                |
|   \\  /    A nd           | Web:         http://www.foam-extend.org         |
|    \\/     M anipulation  |                                                 |
\*---------------------------------------------------------------------------*/
FoamFile
{
    version     2.0;
    format      ascii;
    class       volScalarField;
    location    "7e-07";
    object      Ar;
}
// * * * * * * * * * * * * * * * * * * * * * * * * * * * * * * * * * * * * * //

dimensions      [0 0 0 1 0 0 0];

internalField   nonuniform List<scalar> 
300
(
3.21880310928455e+22
3.21880310704331e+22
3.21880310917245e+22
3.21880311090265e+22
3.21880311337604e+22
3.21880311661769e+22
3.21880312057106e+22
3.21880312527333e+22
3.21880313070504e+22
3.21880313686568e+22
3.21880314375717e+22
3.21880315137722e+22
3.21880315972504e+22
3.21880316879993e+22
3.21880317860096e+22
3.21880318912711e+22
3.21880320037746e+22
3.21880321235042e+22
3.21880322504409e+22
3.21880323845643e+22
3.21880325258499e+22
3.21880326742694e+22
3.21880328297906e+22
3.21880329923764e+22
3.21880331620018e+22
3.21880333386076e+22
3.21880335221443e+22
3.21880337125589e+22
3.21880339097816e+22
3.21880341137465e+22
3.21880343244015e+22
3.21880345416644e+22
3.21880347654417e+22
3.21880349956481e+22
3.21880352321945e+22
3.21880354749879e+22
3.2188035723936e+22
3.2188035978937e+22
3.2188036239885e+22
3.21880365066749e+22
3.21880367791989e+22
3.21880370573452e+22
3.21880373410013e+22
3.21880376300534e+22
3.21880379243863e+22
3.21880382238842e+22
3.21880385284329e+22
3.21880388379169e+22
3.21880391522305e+22
3.21880394712608e+22
3.21880397949077e+22
3.21880401230454e+22
3.21880404555682e+22
3.21880407923473e+22
3.21880411332656e+22
3.2188041478199e+22
3.21880418270385e+22
3.21880421796772e+22
3.2188042536011e+22
3.218804289594e+22
3.21880432593629e+22
3.21880436261835e+22
3.21880439963132e+22
3.21880443696816e+22
3.21880447461991e+22
3.21880451257572e+22
3.21880455082747e+22
3.21880458936736e+22
3.21880462818797e+22
3.21880466728227e+22
3.2188047066438e+22
3.21880474626709e+22
3.21880478614654e+22
3.218804826276e+22
3.21880486665185e+22
3.21880490726944e+22
3.21880494812393e+22
3.21880498921217e+22
3.21880503052877e+22
3.21880507207417e+22
3.21880511384251e+22
3.21880515583183e+22
3.21880519804119e+22
3.21880524046957e+22
3.2188052831183e+22
3.21880532598695e+22
3.21880536907532e+22
3.21880541238495e+22
3.21880545591921e+22
3.21880549968024e+22
3.21880554367207e+22
3.21880558790359e+22
3.21880563237413e+22
3.21880567708931e+22
3.21880572205567e+22
3.21880576728054e+22
3.21880581277217e+22
3.2188058585397e+22
3.21880590459426e+22
3.21880595094683e+22
3.21880599760884e+22
3.21880604459309e+22
3.21880609191698e+22
3.21880613959276e+22
3.21880618763773e+22
3.21880623607051e+22
3.21880628490836e+22
3.21880633417343e+22
3.21880638388615e+22
3.2188064340688e+22
3.21880648474586e+22
3.21880653594331e+22
3.21880658768913e+22
3.21880664001236e+22
3.21880669294357e+22
3.21880674651651e+22
3.21880680076674e+22
3.21880685572705e+22
3.21880691143445e+22
3.2188069679284e+22
3.21880702525219e+22
3.21880708344666e+22
3.21880714255883e+22
3.21880720263342e+22
3.21880726371687e+22
3.21880732585864e+22
3.21880738911264e+22
3.21880745352974e+22
3.21880751916539e+22
3.21880758607569e+22
3.21880765431964e+22
3.21880772395643e+22
3.21880779504685e+22
3.21880786765484e+22
3.21880794184669e+22
3.21880801768403e+22
3.21880809523088e+22
3.21880817455482e+22
3.21880825572338e+22
3.2188083388016e+22
3.21880842385718e+22
3.2188085109578e+22
3.21880860017251e+22
3.21880869156968e+22
3.21880878521637e+22
3.2188088811741e+22
3.21880897950655e+22
3.21880908027625e+22
3.21880918354525e+22
3.21880928937531e+22
3.21880939782011e+22
3.21880950893405e+22
3.21880962277276e+22
3.21880973938257e+22
3.21880985880795e+22
3.21880998109313e+22
3.21881010627736e+22
3.21881023439143e+22
3.21881036546344e+22
3.21881049951648e+22
3.21881063657251e+22
3.21881077664044e+22
3.21881091971833e+22
3.21881106579698e+22
3.21881121485926e+22
3.21881136691975e+22
3.21881152192054e+22
3.21881167947206e+22
3.2188118398416e+22
3.21881200413791e+22
3.21881216912582e+22
3.2188123340912e+22
3.21881250155768e+22
3.21881267185071e+22
3.2188128446488e+22
3.21881301030316e+22
3.21881318193947e+22
3.21881335376869e+22
3.21881351832008e+22
3.21881368887612e+22
3.21881384412172e+22
3.2188140024453e+22
3.21881415181108e+22
3.21881428404862e+22
3.21881441381192e+22
3.21881452610553e+22
3.21881462874271e+22
3.21881471299722e+22
3.21881477904446e+22
3.21881484186684e+22
3.21881489126262e+22
3.21881492643568e+22
3.21881495887868e+22
3.21881498416217e+22
3.2188150020992e+22
3.21881501614688e+22
3.21881502730469e+22
3.21881504082563e+22
3.21881505108343e+22
3.2188150579548e+22
3.21881506289994e+22
3.21881506663414e+22
3.21881507042285e+22
3.21881507692886e+22
3.21881508248689e+22
3.2188150876085e+22
3.21881509244251e+22
3.21881509657661e+22
3.21881510058048e+22
3.21881510267179e+22
3.21881510466607e+22
3.21881510791024e+22
3.21881511159027e+22
3.2188151141054e+22
3.21881511665676e+22
3.21881511966946e+22
3.21881512199786e+22
3.21881512473649e+22
3.21881512663621e+22
3.21881512843953e+22
3.21881512937116e+22
3.21881513028232e+22
3.21881513175888e+22
3.21881513441976e+22
3.21881513743212e+22
3.21881514043416e+22
3.21881514407913e+22
3.21881514741356e+22
3.21881515100665e+22
3.21881515441016e+22
3.21881515738021e+22
3.21881516054625e+22
3.21881516303519e+22
3.21881516588859e+22
3.21881516854907e+22
3.21881517129494e+22
3.21881517448269e+22
3.21881517735572e+22
3.21881518119347e+22
3.2188151859755e+22
3.21881519073359e+22
3.21881519562822e+22
3.21881520041443e+22
3.218815205363e+22
3.21881521012932e+22
3.21881521502573e+22
3.21881521966051e+22
3.2188152244105e+22
3.21881522888154e+22
3.21881523354774e+22
3.21881523797319e+22
3.21881524271946e+22
3.2188152472487e+22
3.21881525216434e+22
3.21881525686684e+22
3.21881526193676e+22
3.21881526675011e+22
3.21881527195722e+22
3.21881527668771e+22
3.21881528195081e+22
3.21881528654669e+22
3.21881529163588e+22
3.21881529612623e+22
3.21881530112755e+22
3.21881530576655e+22
3.21881531105927e+22
3.2188153156661e+22
3.21881532087766e+22
3.21881532530183e+22
3.21881533043652e+22
3.21881533477378e+22
3.21881533991594e+22
3.21881534416514e+22
3.21881534927416e+22
3.21881535340468e+22
3.21881535848148e+22
3.21881536249925e+22
3.21881536754405e+22
3.21881537144368e+22
3.21881537644855e+22
3.21881538021219e+22
3.21881538517099e+22
3.21881538878147e+22
3.21881539368079e+22
3.21881539713127e+22
3.21881540196803e+22
3.21881540525527e+22
3.21881541003087e+22
3.21881541315527e+22
3.2188154178682e+22
3.21881542081767e+22
3.21881542545117e+22
3.21881542821364e+22
3.21881543276507e+22
3.21881543532912e+22
3.21881543979073e+22
3.21881544215438e+22
3.2188154465318e+22
3.21881544869629e+22
3.21881545396375e+22
)
;

boundaryField
{
    electrode
    {
        type            zeroGradient;
    }
    ground
    {
        type            zeroGradient;
    }
    otherfaces
    {
        type            empty;
    }
}


// ************************************************************************* //
