/*--------------------------------*- C++ -*----------------------------------*\
| =========                 |                                                 |
| \\      /  F ield         | foam-extend: Open Source CFD                    |
|  \\    /   O peration     | Version:     4.0                                |
|   \\  /    A nd           | Web:         http://www.foam-extend.org         |
|    \\/     M anipulation  |                                                 |
\*---------------------------------------------------------------------------*/
FoamFile
{
    version     2.0;
    format      ascii;
    class       volScalarField;
    location    "7e-07";
    object      Arm;
}
// * * * * * * * * * * * * * * * * * * * * * * * * * * * * * * * * * * * * * //

dimensions      [0 0 0 1 0 0 0];

internalField   nonuniform List<scalar> 
300
(
3.57416673767705e+15
3.57604733972852e+15
3.57799746434767e+15
3.57930316290418e+15
3.58011929102913e+15
3.58049773084339e+15
3.58048269954735e+15
3.58010562183584e+15
3.57939215211156e+15
3.57836427989365e+15
3.57703777017109e+15
3.57542670984972e+15
3.57354315114472e+15
3.57139769615567e+15
3.56899980147524e+15
3.56635801801121e+15
3.56347715325385e+15
3.56036580245492e+15
3.55703231063901e+15
3.55348315402085e+15
3.54972453407529e+15
3.54576237253287e+15
3.54160235940679e+15
3.53724997575164e+15
3.5326944518392e+15
3.52795361524185e+15
3.52303114316698e+15
3.51792902298063e+15
3.51266089038185e+15
3.50723164764901e+15
3.50162744309243e+15
3.49585969019236e+15
3.48994653704681e+15
3.48389334048565e+15
3.47770518679002e+15
3.47138688682117e+15
3.4649385911764e+15
3.45836682845219e+15
3.4516786764197e+15
3.44487766308326e+15
3.43796728834959e+15
3.43095283523669e+15
3.42383818210499e+15
3.41662702062408e+15
3.40932285110537e+15
3.40192894173023e+15
3.39444623115932e+15
3.38687618831526e+15
3.3792110166255e+15
3.37144934339984e+15
3.36357848795699e+15
3.35561104725186e+15
3.3475415404964e+15
3.33938775667118e+15
3.33115779117914e+15
3.32286806060111e+15
3.31452183881403e+15
3.30612204198642e+15
3.29767124605954e+15
3.28916985608704e+15
3.28062220059237e+15
3.2720303976336e+15
3.26339112184294e+15
3.25468633178519e+15
3.24592000647633e+15
3.23711782874138e+15
3.22828184210042e+15
3.21941388635246e+15
3.21051554729519e+15
3.20158818874293e+15
3.19263097399411e+15
3.18363672606614e+15
3.17460390079474e+15
3.16554000890688e+15
3.156431430758e+15
3.14727924527349e+15
3.13808983022773e+15
3.12885898033833e+15
3.1196068377705e+15
3.11030259050145e+15
3.1009810378773e+15
3.09164424682561e+15
3.08228911028823e+15
3.0729179376475e+15
3.0635158229847e+15
3.05409054870473e+15
3.04465385385602e+15
3.03520606062569e+15
3.02573518888324e+15
3.01624906577036e+15
3.00674173166138e+15
2.99716782727434e+15
2.98758296181889e+15
2.97798865999671e+15
2.9683849473851e+15
2.95877185061585e+15
2.94914915131207e+15
2.93951643932392e+15
2.92986273176244e+15
2.92018797748859e+15
2.9104984643345e+15
2.90079553355106e+15
2.89104721390896e+15
2.88128295037902e+15
2.87149343955353e+15
2.86166928261063e+15
2.85182563219613e+15
2.84194273318321e+15
2.83203108679302e+15
2.82209614981865e+15
2.81213603700225e+15
2.80214847289498e+15
2.79212569281356e+15
2.78206549659611e+15
2.77196569737351e+15
2.76180861177145e+15
2.75157525449567e+15
2.74129057388873e+15
2.73095541028626e+15
2.72056170456718e+15
2.71008294144855e+15
2.69953226179367e+15
2.68888049833191e+15
2.67813812953199e+15
2.66731661852725e+15
2.65641379152313e+15
2.64540138013222e+15
2.63429698146811e+15
2.62308968638966e+15
2.61177750296016e+15
2.60034473217797e+15
2.58878753229292e+15
2.5771009490568e+15
2.56525887193444e+15
2.55322469273165e+15
2.5410174206858e+15
2.52864100978334e+15
2.51607033979896e+15
2.50328650456765e+15
2.49029874154624e+15
2.47709101010454e+15
2.46364668752306e+15
2.44993359446737e+15
2.43591961589295e+15
2.42158005790225e+15
2.40693489390444e+15
2.39196918375642e+15
2.37666659126445e+15
2.36099658827315e+15
2.34491010995275e+15
2.32841980163177e+15
2.3115009157308e+15
2.29409096834312e+15
2.27618894282461e+15
2.25777661407307e+15
2.23880416968697e+15
2.21922827968782e+15
2.19904852662437e+15
2.17824578063912e+15
2.1567750044555e+15
2.13460056723988e+15
2.111707473459e+15
2.08805730846181e+15
2.06366278291232e+15
2.03851093730334e+15
2.01254694626188e+15
1.98579174427038e+15
1.95828998654298e+15
1.93007057852248e+15
1.90117545980201e+15
1.87167336835023e+15
1.84159742488627e+15
1.81103996900867e+15
1.78017263671678e+15
1.74918947833487e+15
1.71826026943713e+15
1.68756417491157e+15
1.65730015046064e+15
1.62770726757752e+15
1.59894091410624e+15
1.57115537370505e+15
1.54449780530074e+15
1.51904934123548e+15
1.49492505731581e+15
1.47212466979074e+15
1.45055729975658e+15
1.43026280631514e+15
1.4111894472249e+15
1.39324815197363e+15
1.37634960262808e+15
1.36037179066516e+15
1.34526766392682e+15
1.33102174888258e+15
1.31756458056055e+15
1.30491940073363e+15
1.29319677096969e+15
1.28240363228698e+15
1.27237505750919e+15
1.26481674980389e+15
1.25854966376895e+15
1.25032337751468e+15
1.24025745460375e+15
1.23004650888129e+15
1.22043734311374e+15
1.21157566115202e+15
1.20332455710035e+15
1.195639171644e+15
1.18836906454115e+15
1.18147724384808e+15
1.1748785836239e+15
1.16854290783593e+15
1.16246790133901e+15
1.1566256547953e+15
1.15097442403547e+15
1.14553407942566e+15
1.14027720787339e+15
1.13517330062144e+15
1.13024566808003e+15
1.12547172656261e+15
1.1208439668615e+15
1.11636762287621e+15
1.11202577741612e+15
1.10781946957353e+15
1.10374603984442e+15
1.09979360954801e+15
1.0959615923376e+15
1.09225728810834e+15
1.08866571544367e+15
1.08518702502269e+15
1.08182730793252e+15
1.07857026357966e+15
1.07541610591011e+15
1.07237061522366e+15
1.06942346627462e+15
1.06656859531376e+15
1.06381747278127e+15
1.06114906802822e+15
1.05857780627381e+15
1.05608784677982e+15
1.05368553520887e+15
1.05136732609112e+15
1.04912166821972e+15
1.04695997050863e+15
1.044864712288e+15
1.04283892281911e+15
1.04089517469571e+15
1.03901697296438e+15
1.03720973658373e+15
1.035473818237e+15
1.03379927917356e+15
1.0321912865065e+15
1.03064397898653e+15
1.02915320681634e+15
1.02772327462033e+15
1.02634698356234e+15
1.02502334898792e+15
1.02375263365296e+15
1.0225214259862e+15
1.02134066505218e+15
1.02020470732308e+15
1.0191214101247e+15
1.01808042811272e+15
1.01708703256705e+15
1.01613536475215e+15
1.01522563867817e+15
1.01435655639541e+15
1.01352327492157e+15
1.01272571477403e+15
1.01195605881465e+15
1.01122317241968e+15
1.01052209975603e+15
1.00986067686272e+15
1.00922776343663e+15
1.00863098659588e+15
1.00805985742066e+15
1.00751447355362e+15
1.00699449421356e+15
1.00650117955511e+15
1.00603764694412e+15
1.00559847653151e+15
1.00518341021427e+15
1.00478698800817e+15
1.00441048877482e+15
1.00406027993768e+15
1.00373444915694e+15
1.00342319019659e+15
1.00313241980858e+15
1.00286153787168e+15
1.00260377666443e+15
1.00236367727406e+15
1.00214299791607e+15
1.0019352822418e+15
1.00173889532321e+15
1.00155724354403e+15
1.00138643131892e+15
1.00122164960867e+15
1.00106369428143e+15
1.00090505945772e+15
1.00073792989978e+15
1.00054987952619e+15
)
;

boundaryField
{
    electrode
    {
        type            zeroGradient;
    }
    ground
    {
        type            zeroGradient;
    }
    otherfaces
    {
        type            empty;
    }
}


// ************************************************************************* //
