/*--------------------------------*- C++ -*----------------------------------*\
| =========                 |                                                 |
| \\      /  F ield         | foam-extend: Open Source CFD                    |
|  \\    /   O peration     | Version:     4.0                                |
|   \\  /    A nd           | Web:         http://www.foam-extend.org         |
|    \\/     M anipulation  |                                                 |
\*---------------------------------------------------------------------------*/
FoamFile
{
    version     2.0;
    format      ascii;
    class       volScalarField;
    location    "7e-07";
    object      Arp1;
}
// * * * * * * * * * * * * * * * * * * * * * * * * * * * * * * * * * * * * * //

dimensions      [0 0 0 1 0 0 0];

internalField   nonuniform List<scalar> 
300
(
6.11543779132739e+16
6.11775479209548e+16
6.11601700445186e+16
6.11509252109872e+16
6.11382242883731e+16
6.1121765404393e+16
6.11020713073765e+16
6.10787415226816e+16
6.10519481025979e+16
6.10216766058193e+16
6.09878944559852e+16
6.09506126032129e+16
6.09098286121172e+16
6.08655396388157e+16
6.08177453280413e+16
6.07664464009133e+16
6.0711644700811e+16
6.0653343577738e+16
6.05915480678049e+16
6.0526264990991e+16
6.04575032024884e+16
6.03852736889947e+16
6.03095894747164e+16
6.02304663629191e+16
6.01479219729934e+16
6.00619769600852e+16
5.99726541626716e+16
5.98799791094904e+16
5.97839796915115e+16
5.96846866904162e+16
5.95821328822696e+16
5.94763538126438e+16
5.93673873304936e+16
5.92552733645255e+16
5.9140054180906e+16
5.90217740270835e+16
5.89004790100115e+16
5.87762170639697e+16
5.86490377202516e+16
5.85189920200575e+16
5.8386132229534e+16
5.82505119131551e+16
5.81121854943021e+16
5.79712083229207e+16
5.78276363844719e+16
5.76815261979662e+16
5.75329346047435e+16
5.73819187886383e+16
5.72285356746066e+16
5.70728427055442e+16
5.69148962328442e+16
5.67547533195987e+16
5.65924694933954e+16
5.64281006141792e+16
5.62617011701045e+16
5.60933252594117e+16
5.59230258896683e+16
5.57508551247657e+16
5.55768639670674e+16
5.54011021780897e+16
5.52236185162508e+16
5.50444599615327e+16
5.48636727335068e+16
5.46813011507335e+16
5.44973880644907e+16
5.43119751666419e+16
5.41251020104083e+16
5.39368068042654e+16
5.37471260789199e+16
5.35560943056374e+16
5.33637444236124e+16
5.31701074985446e+16
5.29752123299156e+16
5.2779086231818e+16
5.25817542601901e+16
5.23832390444203e+16
5.21835621848273e+16
5.19827411689332e+16
5.17807937825877e+16
5.15777327863708e+16
5.13735706378047e+16
5.11683163812262e+16
5.09619762966366e+16
5.07545548658313e+16
5.05460530174123e+16
5.03364693563338e+16
5.01257993258187e+16
4.99140354963619e+16
4.97011674038208e+16
4.9487180504649e+16
4.92720587223624e+16
4.90557799845049e+16
4.88383208426677e+16
4.86196527448553e+16
4.83997434900284e+16
4.81785571142628e+16
4.79560529615096e+16
4.77321862379088e+16
4.7506907404413e+16
4.72801624449244e+16
4.70518915365876e+16
4.68220312313895e+16
4.65905108790766e+16
4.63572556509916e+16
4.61221846847328e+16
4.5885210241936e+16
4.5646239912282e+16
4.54051734945299e+16
4.51619049018268e+16
4.49163212117021e+16
4.46683020187616e+16
4.44177200401248e+16
4.41644406099677e+16
4.39083207945306e+16
4.36492105944762e+16
4.33869515274473e+16
4.31213767753169e+16
4.28523118704057e+16
4.25795727425356e+16
4.23029683551176e+16
4.20222969686458e+16
4.17373502105903e+16
4.14479094045339e+16
4.11537480186454e+16
4.08546302632539e+16
4.05503125877017e+16
4.02405418274051e+16
3.99250576783273e+16
3.96035911239086e+16
3.9275865637484e+16
3.89415972229019e+16
3.86004954081506e+16
3.82522620513907e+16
3.78965947866752e+16
3.75331844151688e+16
3.71617180443254e+16
3.67818784218342e+16
3.63933459435996e+16
3.5995798178949e+16
3.55889120585288e+16
3.51723645486515e+16
3.47458338457217e+16
3.4308999621111e+16
3.38615470432605e+16
3.34031644925162e+16
3.29335474580494e+16
3.24524008156345e+16
3.19594365483127e+16
3.14543795215536e+16
3.09369690550694e+16
3.04069552343717e+16
2.98641098935943e+16
2.93082209677612e+16
2.87390981985881e+16
2.81565769832144e+16
2.75605169501974e+16
2.6950810522352e+16
2.63273821402593e+16
2.56901928337305e+16
2.50392707350124e+16
2.43746384551368e+16
2.36964211112439e+16
2.30048705293745e+16
2.23002558123279e+16
2.15829470892263e+16
2.08530307650935e+16
2.0111232315321e+16
1.93615824701968e+16
1.86015690336035e+16
1.78201646248989e+16
1.70498000611712e+16
1.6298211224526e+16
1.55411250537241e+16
1.47759511294007e+16
1.40058831786649e+16
1.33270771545712e+16
1.26073277229788e+16
1.19015610151329e+16
1.12791171754467e+16
1.05992281706341e+16
1.00641028710991e+16
9.47612432985409e+15
8.93928081007873e+15
8.51768619362541e+15
8.04783847100458e+15
7.66497208021564e+15
7.2801035658756e+15
6.97527902921236e+15
6.74994791226862e+15
6.4613315152959e+15
6.22300395958894e+15
6.05705407454351e+15
5.86329462837975e+15
5.70016358341266e+15
5.58147548877188e+15
5.48198860381879e+15
5.39847205609394e+15
5.28356517451522e+15
5.19484992424011e+15
5.13630941950019e+15
5.09732880405874e+15
5.07117741452488e+15
5.04405100183001e+15
4.98887305316628e+15
4.94229522168807e+15
4.89940489943913e+15
4.85878981925532e+15
4.82473869290591e+15
4.79160026651775e+15
4.7772881620893e+15
4.76367993719349e+15
4.73731029102352e+15
4.70634861802921e+15
4.68684489328178e+15
4.66676842085273e+15
4.64189584641615e+15
4.62371433024168e+15
4.60125538841099e+15
4.58703296525964e+15
4.5736295325986e+15
4.5687927520447e+15
4.56402731428757e+15
4.55347338380284e+15
4.53094435451669e+15
4.50478027272618e+15
4.47859986358023e+15
4.44586315454618e+15
4.41611961852623e+15
4.38367720621269e+15
4.35301194680217e+15
4.32657909266818e+15
4.29808350992201e+15
4.27625057047157e+15
4.2506747424491e+15
4.22693600263191e+15
4.20223958283972e+15
4.17304151188254e+15
4.14689354243077e+15
4.11101684290909e+15
4.06560961487634e+15
4.02035745662726e+15
3.97366710083501e+15
3.92797679248157e+15
3.8805962747486e+15
3.83496844679589e+15
3.78795746935388e+15
3.74349693926227e+15
3.69781299974736e+15
3.65484703268176e+15
3.6098677617631e+15
3.56722917965668e+15
3.52132154004622e+15
3.47752727269271e+15
3.4298078409598e+15
3.38416600371579e+15
3.33479699338753e+15
3.28794053799179e+15
3.23710681587882e+15
3.19098849411696e+15
3.13949914523094e+15
3.09462900897724e+15
3.04478338248405e+15
3.00087821942382e+15
2.95182154334361e+15
2.90634588840246e+15
2.85429221889718e+15
2.80906156918379e+15
2.75774765897504e+15
2.7142795518463e+15
2.66366947433759e+15
2.62100157167361e+15
2.57024498542188e+15
2.5283893929897e+15
2.47789932281462e+15
2.4371684763218e+15
2.3869489686523e+15
2.34729426696703e+15
2.29734255587555e+15
2.25881262627287e+15
2.20920579412155e+15
2.17198712838532e+15
2.12279811429602e+15
2.08707220628335e+15
2.03843168017872e+15
2.00425499933333e+15
1.95620087832591e+15
1.92362140954944e+15
1.87613835857495e+15
1.84515413749187e+15
1.79826695459023e+15
1.76899478688477e+15
1.72286929983297e+15
1.69544262938885e+15
1.65011159626291e+15
1.62464329317518e+15
1.5801932941578e+15
1.55671588108141e+15
1.51310092818018e+15
1.49162333740037e+15
1.43913594343632e+15
)
;

boundaryField
{
    electrode
    {
        type            driftDiffusionPositiveIonDensity;
        seec            0;
        fieldName       Arp1;
        value           uniform 6.10745118958561e+16;
    }
    ground
    {
        type            driftDiffusionPositiveIonDensity;
        seec            0;
        fieldName       Arp1;
        value           uniform 1.43913594343632e+15;
    }
    otherfaces
    {
        type            empty;
    }
}


// ************************************************************************* //
