/*--------------------------------*- C++ -*----------------------------------*\
| =========                 |                                                 |
| \\      /  F ield         | foam-extend: Open Source CFD                    |
|  \\    /   O peration     | Version:     4.0                                |
|   \\  /    A nd           | Web:         http://www.foam-extend.org         |
|    \\/     M anipulation  |                                                 |
\*---------------------------------------------------------------------------*/
FoamFile
{
    version     2.0;
    format      ascii;
    class       volVectorField;
    location    "7e-07";
    object      E;
}
// * * * * * * * * * * * * * * * * * * * * * * * * * * * * * * * * * * * * * //

dimensions      [0 0 0 1 0 0 0];

internalField   nonuniform List<vector> 
300
(
(4.11734620564542 -0 -0)
(9.62436597501391 -0 -0)
(16.4079982309384 -0 -0)
(23.0678906767981 -0 -0)
(29.6656283163548 -0 -0)
(36.2729848865654 -0 -0)
(42.8897193885396 -0 -0)
(49.5212902976151 -0 -0)
(56.1650201139081 -0 -0)
(62.8225920035203 -0 -0)
(69.4953227506332 -0 -0)
(76.183131157704 -0 -0)
(82.8859707244231 -0 -0)
(89.6035246375476 -0 -0)
(96.3350607244294 -0 -0)
(103.079495201998 -0 -0)
(109.835407985368 -0 -0)
(116.601045177524 -0 -0)
(123.374333158012 -0 -0)
(130.152896385402 -0 -0)
(136.934080703645 -0 -0)
(143.714979800037 -0 -0)
(150.492457874626 -0 -0)
(157.263187360036 -0 -0)
(164.023675050531 -0 -0)
(170.770293335395 -0 -0)
(177.499321703247 -0 -0)
(184.206973349867 -0 -0)
(190.88942720263 -0 -0)
(197.542868521363 -0 -0)
(204.163515331334 -0 -0)
(210.747643807032 -0 -0)
(217.29162734132 -0 -0)
(223.791955658604 -0 -0)
(230.245257959403 -0 -0)
(236.648330123626 -0 -0)
(242.998150701303 -0 -0)
(249.291897175212 -0 -0)
(255.526962060519 -0 -0)
(261.70096499442 -0 -0)
(267.811759976867 -0 -0)
(273.857444321763 -0 -0)
(279.836363760471 -0 -0)
(285.747113516699 -0 -0)
(291.588540946047 -0 -0)
(297.359743990675 -0 -0)
(303.06006854463 -0 -0)
(308.689106788581 -0 -0)
(314.246687450924 -0 -0)
(319.732878119253 -0 -0)
(325.147970052542 -0 -0)
(330.492476773057 -0 -0)
(335.76712644 -0 -0)
(340.972849600975 -0 -0)
(346.110778845532 -0 -0)
(351.182233668188 -0 -0)
(356.188719498364 -0 -0)
(361.13191712043 -0 -0)
(366.013677129056 -0 -0)
(370.836013813305 -0 -0)
(375.601104081505 -0 -0)
(380.311274435142 -0 -0)
(384.969004207967 -0 -0)
(389.576927184481 -0 -0)
(394.137814418914 -0 -0)
(398.654589089981 -0 -0)
(403.130322757008 -0 -0)
(407.568228391526 -0 -0)
(411.971675723415 -0 -0)
(416.344185727485 -0 -0)
(420.689435141813 -0 -0)
(425.011272375866 -0 -0)
(429.313710639853 -0 -0)
(433.600942051272 -0 -0)
(437.877354733707 -0 -0)
(442.147524863697 -0 -0)
(446.416250998644 -0 -0)
(450.688541520125 -0 -0)
(454.969651540782 -0 -0)
(459.265090428556 -0 -0)
(463.580618863308 -0 -0)
(467.922306797478 -0 -0)
(472.296512270172 -0 -0)
(476.709920913023 -0 -0)
(481.169572015596 -0 -0)
(485.682865937375 -0 -0)
(490.257596556852 -0 -0)
(494.901978831445 -0 -0)
(499.624678046328 -0 -0)
(504.43481425249 -0 -0)
(509.342031468403 -0 -0)
(514.356502211056 -0 -0)
(519.488951451813 -0 -0)
(524.750728128682 -0 -0)
(530.153803249173 -0 -0)
(535.710826336851 -0 -0)
(541.435164690189 -0 -0)
(547.340935712235 -0 -0)
(553.443057399515 -0 -0)
(559.757295785833 -0 -0)
(566.300291555854 -0 -0)
(573.089637225029 -0 -0)
(580.143911506402 -0 -0)
(587.482715079405 -0 -0)
(595.12676769963 -0 -0)
(603.097918880414 -0 -0)
(611.419227776356 -0 -0)
(620.115030358694 -0 -0)
(629.210974248456 -0 -0)
(638.734111031585 -0 -0)
(648.71294535313 -0 -0)
(659.177499942676 -0 -0)
(670.159405389976 -0 -0)
(681.691948981111 -0 -0)
(693.810157667633 -0 -0)
(706.550889969931 -0 -0)
(719.95289129969 -0 -0)
(734.056896117895 -0 -0)
(748.905702847706 -0 -0)
(764.54428237096 -0 -0)
(781.019853299345 -0 -0)
(798.381987924929 -0 -0)
(816.682743352899 -0 -0)
(835.976743775268 -0 -0)
(856.321316418212 -0 -0)
(877.77664208459 -0 -0)
(900.405881895736 -0 -0)
(924.275336683199 -0 -0)
(949.454645916933 -0 -0)
(976.016962738021 -0 -0)
(1004.03918164551 -0 -0)
(1033.60220337643 -0 -0)
(1064.79118000282 -0 -0)
(1097.69585964598 -0 -0)
(1132.41095775497 -0 -0)
(1169.03653562548 -0 -0)
(1207.67849321721 -0 -0)
(1248.44912797753 -0 -0)
(1291.46774922193 -0 -0)
(1336.86138422657 -0 -0)
(1384.76564692525 -0 -0)
(1435.32571018223 -0 -0)
(1488.6973875927 -0 -0)
(1545.04849724252 -0 -0)
(1604.56037849464 -0 -0)
(1667.42961200916 -0 -0)
(1733.87020887973 -0 -0)
(1804.1159733308 -0 -0)
(1878.42332140913 -0 -0)
(1957.07481219655 -0 -0)
(2040.38295135872 -0 -0)
(2128.69491221884 -0 -0)
(2222.39820783392 -0 -0)
(2321.92715879816 -0 -0)
(2427.77087642957 -0 -0)
(2540.48264282961 -0 -0)
(2660.69121503421 -0 -0)
(2789.1144321482 -0 -0)
(2926.57575608093 -0 -0)
(3074.02528634987 -0 -0)
(3232.5609503538 -0 -0)
(3403.45860314652 -0 -0)
(3588.21770038468 -0 -0)
(3788.60414592039 -0 -0)
(4006.68730401637 -0 -0)
(4244.87043743268 -0 -0)
(4506.06892135239 -0 -0)
(4794.1269405208 -0 -0)
(5113.26413326404 -0 -0)
(5467.35763800493 -0 -0)
(5864.64674734211 -0 -0)
(6319.74254906096 -0 -0)
(6846.56284407615 -0 -0)
(7455.82986545832 -0 -0)
(8161.24399394345 -0 -0)
(8990.98310421458 -0 -0)
(9968.78250790441 -0 -0)
(11108.5032695965 -0 -0)
(12437.4935239845 -0 -0)
(13973.3588448693 -0 -0)
(15738.9120353003 -0 -0)
(17748.961343648 -0 -0)
(19997.6357383462 -0 -0)
(22497.5706822403 -0 -0)
(25234.3496399111 -0 -0)
(28176.4257202653 -0 -0)
(31291.3963961354 -0 -0)
(34544.7593610823 -0 -0)
(37919.7297189396 -0 -0)
(41364.0884559953 -0 -0)
(44821.8715047982 -0 -0)
(48281.2217038431 -0 -0)
(51719.7141385384 -0 -0)
(55110.9397301764 -0 -0)
(58455.9730592729 -0 -0)
(61758.5571936793 -0 -0)
(65021.0354327015 -0 -0)
(68233.7359825466 -0 -0)
(71389.4275222706 -0 -0)
(74502.6632190216 -0 -0)
(77587.0151160398 -0 -0)
(80652.2997010005 -0 -0)
(83702.2509064531 -0 -0)
(86727.5391203388 -0 -0)
(89722.2119854691 -0 -0)
(92689.9315789314 -0 -0)
(95632.4833234817 -0 -0)
(98552.5293858244 -0 -0)
(101452.321718327 -0 -0)
(104337.804759502 -0 -0)
(107214.863299853 -0 -0)
(110079.861676075 -0 -0)
(112927.568048197 -0 -0)
(115760.051518448 -0 -0)
(118580.598079348 -0 -0)
(121387.592232809 -0 -0)
(124181.602754584 -0 -0)
(126963.356943422 -0 -0)
(129734.048743977 -0 -0)
(132496.407950895 -0 -0)
(135253.265580444 -0 -0)
(138007.230556916 -0 -0)
(140756.581154183 -0 -0)
(143495.958939897 -0 -0)
(146220.659999943 -0 -0)
(148929.58617296 -0 -0)
(151620.754191104 -0 -0)
(154293.08784525 -0 -0)
(156946.675284283 -0 -0)
(159581.237181245 -0 -0)
(162198.584919031 -0 -0)
(164799.373451784 -0 -0)
(167384.989782191 -0 -0)
(169956.316412205 -0 -0)
(172512.779349809 -0 -0)
(175054.644724563 -0 -0)
(177580.266957317 -0 -0)
(180089.207289816 -0 -0)
(182579.453635855 -0 -0)
(185045.197741021 -0 -0)
(187483.60971455 -0 -0)
(189894.301903162 -0 -0)
(192277.141808114 -0 -0)
(194631.92093037 -0 -0)
(196958.657541716 -0 -0)
(199257.462503711 -0 -0)
(201528.687296321 -0 -0)
(203772.731793988 -0 -0)
(205990.04670457 -0 -0)
(208180.844724672 -0 -0)
(210345.224920029 -0 -0)
(212482.907611779 -0 -0)
(214593.544373313 -0 -0)
(216676.588870005 -0 -0)
(218731.483573648 -0 -0)
(220757.730632429 -0 -0)
(222754.96351501 -0 -0)
(224722.739582931 -0 -0)
(226661.280959454 -0 -0)
(228570.389576736 -0 -0)
(230450.440856092 -0 -0)
(232301.930453615 -0 -0)
(234125.149525979 -0 -0)
(235920.335516774 -0 -0)
(237687.01451851 -0 -0)
(239424.282958991 -0 -0)
(241132.214853613 -0 -0)
(242811.032893697 -0 -0)
(244461.268520906 -0 -0)
(246083.134256692 -0 -0)
(247676.87159363 -0 -0)
(249242.436238954 -0 -0)
(250780.07291161 -0 -0)
(252289.861777454 -0 -0)
(253772.141935245 -0 -0)
(255226.994914894 -0 -0)
(256654.745163156 -0 -0)
(258055.473343751 -0 -0)
(259429.518542756 -0 -0)
(260776.984630492 -0 -0)
(262098.266929657 -0 -0)
(263393.491296536 -0 -0)
(264663.107812591 -0 -0)
(265907.28179585 -0 -0)
(267126.480366296 -0 -0)
(268320.880326058 -0 -0)
(269490.963295712 -0 -0)
(270636.901414972 -0 -0)
(271759.175708988 -0 -0)
(272857.965792974 -0 -0)
(273933.787830395 -0 -0)
(274986.871419064 -0 -0)
(276017.773069457 -0 -0)
(277026.732218166 -0 -0)
(278014.339291138 -0 -0)
(278980.859915863 -0 -0)
(279926.893888343 -0 -0)
(280852.693413611 -0 -0)
(281758.879738981 -0 -0)
(282642.74181062 -0 -0)
)
;

boundaryField
{
    electrode
    {
        type            calculated;
        value           uniform (2.02836396510975 -0 -0);
    }
    ground
    {
        type            calculated;
        value           uniform (283076.740695808 -0 -0);
    }
    otherfaces
    {
        type            empty;
    }
}


// ************************************************************************* //
