/*--------------------------------*- C++ -*----------------------------------*\
| =========                 |                                                 |
| \\      /  F ield         | foam-extend: Open Source CFD                    |
|  \\    /   O peration     | Version:     4.0                                |
|   \\  /    A nd           | Web:         http://www.foam-extend.org         |
|    \\/     M anipulation  |                                                 |
\*---------------------------------------------------------------------------*/
FoamFile
{
    version     2.0;
    format      ascii;
    class       volScalarField;
    location    "7e-07";
    object      electron;
}
// * * * * * * * * * * * * * * * * * * * * * * * * * * * * * * * * * * * * * //

dimensions      [0 0 0 1 0 0 0];

internalField   nonuniform List<scalar> 
300
(
6.11579391122364e+16
6.11553008934982e+16
6.11494372508922e+16
6.11400743475863e+16
6.1127225270229e+16
6.11108891750354e+16
6.10910646271874e+16
6.10677487428432e+16
6.10409384672447e+16
6.10106314551458e+16
6.09768252109387e+16
6.09395175665185e+16
6.08987069714201e+16
6.08543925889423e+16
6.08065744871941e+16
6.07552538372473e+16
6.07004330961163e+16
6.06421161838757e+16
6.05803086536649e+16
6.0515017851184e+16
6.04462530613094e+16
6.03740256393568e+16
6.02983491268958e+16
6.02192393493831e+16
6.01367144946137e+16
6.00507951734651e+16
5.99615044594699e+16
5.98688679083392e+16
5.97729135596794e+16
5.96736719180595e+16
5.95711759149238e+16
5.9465460855046e+16
5.93565643451031e+16
5.92445262062098e+16
5.91293883743354e+16
5.90111947872358e+16
5.88899912600615e+16
5.87658253524201e+16
5.86387462273635e+16
5.85088045037155e+16
5.83760521040772e+16
5.82405420996318e+16
5.81023285526143e+16
5.79614663585344e+16
5.78180110890029e+16
5.76720188360222e+16
5.75235460592121e+16
5.7372649436107e+16
5.72193857173654e+16
5.70638115861258e+16
5.69059835227977e+16
5.67459576762463e+16
5.65837897396871e+16
5.64195348338089e+16
5.62532473954132e+16
5.60849810722877e+16
5.5914788624388e+16
5.57427218302886e+16
5.556883139983e+16
5.5393166891964e+16
5.52157766368098e+16
5.50367076631554e+16
5.48560056306117e+16
5.46737147631611e+16
5.4489877788284e+16
5.43045358788531e+16
5.41177285949486e+16
5.3929493830084e+16
5.3739867757746e+16
5.3548884777987e+16
5.33565774662836e+16
5.31629765202135e+16
5.29681107062624e+16
5.27720068072039e+16
5.25746895650841e+16
5.23761816245871e+16
5.21765034730383e+16
5.19756733781551e+16
5.17737073234178e+16
5.15706189366527e+16
5.13664194203198e+16
5.11611174734172e+16
5.09547192089351e+16
5.07472280705918e+16
5.05386447397791e+16
5.0328967039495e+16
5.0118189833793e+16
4.99063049197399e+16
4.96933009124537e+16
4.94791631279658e+16
4.92638734570307e+16
4.90474102299796e+16
4.88297480817879e+16
4.86108578050852e+16
4.83907061968598e+16
4.81692559019368e+16
4.79464652462691e+16
4.77222880654394e+16
4.74966735269012e+16
4.72695659440325e+16
4.70409045872486e+16
4.68106234879544e+16
4.65786512347213e+16
4.63449107705308e+16
4.61093191809386e+16
4.58717874791503e+16
4.56322203924906e+16
4.53905161417164e+16
4.51465662232135e+16
4.49002551911906e+16
4.4651460439556e+16
4.44000519905062e+16
4.41458922850326e+16
4.38888359807715e+16
4.36287297610912e+16
4.33654121510845e+16
4.30987133485471e+16
4.28284550712753e+16
4.25544504214682e+16
4.22765037703145e+16
4.19944106665693e+16
4.17079577745248e+16
4.14169228372703e+16
4.11210746743753e+16
4.08201732188203e+16
4.05139695887774e+16
4.02022062023576e+16
3.98846169408832e+16
3.95609273574074e+16
3.92308549364247e+16
3.88941094094601e+16
3.85503931226786e+16
3.81994014646098e+16
3.78408233537957e+16
3.74743417806987e+16
3.70996344129803e+16
3.6716374261836e+16
3.63242304014529e+16
3.59228687437107e+16
3.55119528688535e+16
3.50911449020468e+16
3.46601064274194e+16
3.42184994427383e+16
3.37659873396373e+16
3.33022358946735e+16
3.28269142750484e+16
3.23396960310603e+16
3.18402600623571e+16
3.13282915611654e+16
3.08034828848139e+16
3.02655343540639e+16
2.97141549727226e+16
2.91490630141786e+16
2.85699864751991e+16
2.79766633754092e+16
2.73688418723307e+16
2.67462801884143e+16
2.61087463283686e+16
2.54560175911317e+16
2.4787879784583e+16
2.4104126442435e+16
2.34045581504273e+16
2.26889810390222e+16
2.19572050741156e+16
2.12090444216709e+16
2.0444321659061e+16
1.96628692262442e+16
1.88645075914558e+16
1.80490470220545e+16
1.72163851173983e+16
1.63663743407861e+16
1.54983869326738e+16
1.46113677776164e+16
1.37044808330503e+16
1.27775530251066e+16
1.18307470311834e+16
1.08648323662277e+16
9.88257465265647e+15
8.88910219493424e+15
7.89220351682638e+15
6.90266716542907e+15
5.93407908358213e+15
5.00272802234266e+15
4.12609003155931e+15
3.321126861819e+15
2.6026471884059e+15
1.98146294484166e+15
1.46284266482892e+15
1.04567016671406e+15
722988243302635
483359696527550
312702511560999
196292815256315
120057073864274
72027670511413
42765334203650.6
25500040976050.9
15226995099943.7
8922755441969.81
5017448934649.6
2773582868630.85
1649395796535.01
1099954100794.85
827110179611.508
686393474908.816
611711626769.734
572146150913.778
552414515634.461
543924608921.426
541657856024.733
542735398177.205
545634720347.439
549280498929.409
552950760534.58
556160730696.8
558590627954.921
559986876190.632
560295110784.071
559450243966.626
557425041632.414
554241812255.163
549949000247.796
544612616124.705
538311422014.423
531133023254.648
523169824618.639
514515971166.316
505265234278.248
495509074860.533
485335325678.069
474827077646.734
464061970463.958
453111882748.057
442042697186.891
430914459486.605
419781434109.805
408692260007.928
397690009459.664
386811639901.62
376085045946.608
365536133881.256
355191663493.466
345073831313.549
335200862610.684
325587058056.664
316243170497.471
307176747737.135
298392488170.491
289892593802.103
281677120606.418
273744326426.627
266090974613.946
258712896707.392
251605165971.435
244760566277.124
238170835601.846
231829144428.176
225728456102.221
219860740019.243
214217787175.703
208791255729.402
203572767011.144
198553989181.465
193726718717.655
189082963321.958
184615020092.62
180315412954.346
176176729382.903
172190460720.069
168344740505.954
164629722570.811
161039939215.369
157570494071.704
154217055790.311
150975626164.267
147842544059.784
144814479786.735
141888447090.811
139061798877.557
136332249618.298
133697529895.878
131155387148.753
128696058049.551
126306798422.131
123985545085.842
121736781306.724
119566006654.175
117478722731.92
115471004190.916
113530388571.294
111659884990.896
109879392893.527
108192916248.56
106603298361.968
105144999963.913
103848525036.933
102774153152.133
102091385685.054
101928905606.186
102755821415.346
)
;

boundaryField
{
    electrode
    {
        type            driftDiffusionElectronDensity;
        seec            0.05;
        Edepend         1;
        field_emission  0;
        field_enhancement_factor 55;
        work_function   5;
        value           uniform 6.11579391122365e+16;
    }
    ground
    {
        type            driftDiffusionElectronDensity;
        seec            0.05;
        Edepend         1;
        field_emission  0;
        field_enhancement_factor 55;
        work_function   5;
        value           uniform 103908989531.681;
    }
    otherfaces
    {
        type            empty;
    }
}


// ************************************************************************* //
