/*--------------------------------*- C++ -*----------------------------------*\
| =========                 |                                                 |
| \\      /  F ield         | foam-extend: Open Source CFD                    |
|  \\    /   O peration     | Version:     4.0                                |
|   \\  /    A nd           | Web:         http://www.foam-extend.org         |
|    \\/     M anipulation  |                                                 |
\*---------------------------------------------------------------------------*/
FoamFile
{
    version     2.0;
    format      ascii;
    class       volVectorField;
    location    "7e-07";
    object      J_Arp1;
}
// * * * * * * * * * * * * * * * * * * * * * * * * * * * * * * * * * * * * * //

dimensions      [1 -1 -1 0 0 0 0];

internalField   nonuniform List<vector> 
300
(
(1.82651325866588e+16 -0 -0)
(5.90236124780847e+16 -0 -0)
(1.01574976049815e+17 -0 -0)
(1.41840197733453e+17 -0 -0)
(1.82380404313113e+17 -0 -0)
(2.22928497858293e+17 -0 -0)
(2.63481544369553e+17 -0 -0)
(3.04077910321978e+17 -0 -0)
(3.44679911852596e+17 -0 -0)
(3.85298592366433e+17 -0 -0)
(4.25933636855128e+17 -0 -0)
(4.6657624554333e+17 -0 -0)
(5.07219423249514e+17 -0 -0)
(5.47853885070188e+17 -0 -0)
(5.88467770835681e+17 -0 -0)
(6.29047150419929e+17 -0 -0)
(6.69576066215398e+17 -0 -0)
(7.10036567909002e+17 -0 -0)
(7.50408834069417e+17 -0 -0)
(7.90671302891676e+17 -0 -0)
(8.30800842036868e+17 -0 -0)
(8.70772949704332e+17 -0 -0)
(9.10561892101813e+17 -0 -0)
(9.50141002025771e+17 -0 -0)
(9.89482830032718e+17 -0 -0)
(1.02855937264937e+18 -0 -0)
(1.06734236035215e+18 -0 -0)
(1.10580342844787e+18 -0 -0)
(1.14391432398879e+18 -0 -0)
(1.1816471994775e+18 -0 -0)
(1.21897476145338e+18 -0 -0)
(1.25587043497172e+18 -0 -0)
(1.29230863740728e+18 -0 -0)
(1.3282648685382e+18 -0 -0)
(1.36371586505378e+18 -0 -0)
(1.3986397719803e+18 -0 -0)
(1.43301622263259e+18 -0 -0)
(1.46682643609405e+18 -0 -0)
(1.50005330393056e+18 -0 -0)
(1.53268145393219e+18 -0 -0)
(1.56469726966996e+18 -0 -0)
(1.59608893884953e+18 -0 -0)
(1.62684645779765e+18 -0 -0)
(1.65696161810962e+18 -0 -0)
(1.68642800306707e+18 -0 -0)
(1.71524095384069e+18 -0 -0)
(1.74339752335105e+18 -0 -0)
(1.77089646101357e+18 -0 -0)
(1.79773808768934e+18 -0 -0)
(1.82392434832977e+18 -0 -0)
(1.84945861263425e+18 -0 -0)
(1.87434572453351e+18 -0 -0)
(1.89859186024908e+18 -0 -0)
(1.92220447476091e+18 -0 -0)
(1.94519225315733e+18 -0 -0)
(1.96756499566099e+18 -0 -0)
(1.98933359619138e+18 -0 -0)
(2.01050994179622e+18 -0 -0)
(2.03110686637866e+18 -0 -0)
(2.05113807294005e+18 -0 -0)
(2.0706181353978e+18 -0 -0)
(2.08956234531223e+18 -0 -0)
(2.10798675810842e+18 -0 -0)
(2.12590815806043e+18 -0 -0)
(2.14334390268223e+18 -0 -0)
(2.16031204624702e+18 -0 -0)
(2.1768312391422e+18 -0 -0)
(2.19292067350019e+18 -0 -0)
(2.20860017352265e+18 -0 -0)
(2.22389009325982e+18 -0 -0)
(2.23881133603135e+18 -0 -0)
(2.25338543440764e+18 -0 -0)
(2.2676344283954e+18 -0 -0)
(2.28158096013165e+18 -0 -0)
(2.29524833870496e+18 -0 -0)
(2.30866037887441e+18 -0 -0)
(2.3218417209948e+18 -0 -0)
(2.33481748362383e+18 -0 -0)
(2.34761369994624e+18 -0 -0)
(2.36025707153178e+18 -0 -0)
(2.37277504263132e+18 -0 -0)
(2.38519607020391e+18 -0 -0)
(2.39754934626434e+18 -0 -0)
(2.40986508919958e+18 -0 -0)
(2.42217453354633e+18 -0 -0)
(2.43450993755646e+18 -0 -0)
(2.44690468595e+18 -0 -0)
(2.45939335451555e+18 -0 -0)
(2.47201183377621e+18 -0 -0)
(2.48479712799052e+18 -0 -0)
(2.49778787676279e+18 -0 -0)
(2.51102399612669e+18 -0 -0)
(2.52454691436704e+18 -0 -0)
(2.53839975864328e+18 -0 -0)
(2.55262718280298e+18 -0 -0)
(2.56727561833309e+18 -0 -0)
(2.58239327303193e+18 -0 -0)
(2.5980301787455e+18 -0 -0)
(2.61423827633444e+18 -0 -0)
(2.63107153788576e+18 -0 -0)
(2.64858579220951e+18 -0 -0)
(2.66683912432888e+18 -0 -0)
(2.68589162367203e+18 -0 -0)
(2.70580546068458e+18 -0 -0)
(2.72664516559543e+18 -0 -0)
(2.74847724678666e+18 -0 -0)
(2.77137052671383e+18 -0 -0)
(2.79539600790787e+18 -0 -0)
(2.82062677588532e+18 -0 -0)
(2.84713814418458e+18 -0 -0)
(2.87500743933991e+18 -0 -0)
(2.90431396123288e+18 -0 -0)
(2.93513901288041e+18 -0 -0)
(2.96756556983664e+18 -0 -0)
(3.00167828511782e+18 -0 -0)
(3.03756333889327e+18 -0 -0)
(3.07530807234252e+18 -0 -0)
(3.11500097613182e+18 -0 -0)
(3.15673117284069e+18 -0 -0)
(3.20058845775797e+18 -0 -0)
(3.24666255825582e+18 -0 -0)
(3.29504308907286e+18 -0 -0)
(3.34581902627476e+18 -0 -0)
(3.39907822848574e+18 -0 -0)
(3.45490692469363e+18 -0 -0)
(3.51338938823333e+18 -0 -0)
(3.57460709440831e+18 -0 -0)
(3.63863830375744e+18 -0 -0)
(3.70555740593052e+18 -0 -0)
(3.77543418699772e+18 -0 -0)
(3.84833314426477e+18 -0 -0)
(3.92431293444025e+18 -0 -0)
(4.00342524435182e+18 -0 -0)
(4.08571448400601e+18 -0 -0)
(4.17121673840613e+18 -0 -0)
(4.25995905754042e+18 -0 -0)
(4.35195865956708e+18 -0 -0)
(4.44722236417118e+18 -0 -0)
(4.54574566254779e+18 -0 -0)
(4.64751207618105e+18 -0 -0)
(4.7524926293341e+18 -0 -0)
(4.86064530974294e+18 -0 -0)
(4.97191418670353e+18 -0 -0)
(5.0862296660446e+18 -0 -0)
(5.20350764683549e+18 -0 -0)
(5.32364932846885e+18 -0 -0)
(5.44654187646385e+18 -0 -0)
(5.57205753209755e+18 -0 -0)
(5.70005427549878e+18 -0 -0)
(5.83037712434683e+18 -0 -0)
(5.9628569045356e+18 -0 -0)
(6.09731292483746e+18 -0 -0)
(6.23355307548659e+18 -0 -0)
(6.37137497838984e+18 -0 -0)
(6.51056832965682e+18 -0 -0)
(6.65091536185936e+18 -0 -0)
(6.79219391264128e+18 -0 -0)
(6.93417858641383e+18 -0 -0)
(7.07664196946593e+18 -0 -0)
(7.21936909773329e+18 -0 -0)
(7.36212787414798e+18 -0 -0)
(7.50469696225846e+18 -0 -0)
(7.64690186155456e+18 -0 -0)
(7.78857008478254e+18 -0 -0)
(7.92952634805356e+18 -0 -0)
(8.069347366067e+18 -0 -0)
(8.2077458230967e+18 -0 -0)
(8.3465763286257e+18 -0 -0)
(8.48474801025488e+18 -0 -0)
(8.6132177784685e+18 -0 -0)
(8.74857314545381e+18 -0 -0)
(8.88674043145052e+18 -0 -0)
(9.02258303344966e+18 -0 -0)
(9.15297854085817e+18 -0 -0)
(9.26369594184052e+18 -0 -0)
(9.42142668744892e+18 -0 -0)
(9.52752037862673e+18 -0 -0)
(9.64657833898308e+18 -0 -0)
(9.78758693088902e+18 -0 -0)
(9.85308335861179e+18 -0 -0)
(1.00256764482987e+19 -0 -0)
(1.00816413112305e+19 -0 -0)
(1.01805801078389e+19 -0 -0)
(1.02957283233499e+19 -0 -0)
(1.03921264424057e+19 -0 -0)
(1.04579009052987e+19 -0 -0)
(1.05190799293261e+19 -0 -0)
(1.06161025159449e+19 -0 -0)
(1.07314757124804e+19 -0 -0)
(1.07959514145654e+19 -0 -0)
(1.08356016950026e+19 -0 -0)
(1.09096697548976e+19 -0 -0)
(1.09671994800313e+19 -0 -0)
(1.10360183992006e+19 -0 -0)
(1.11292975232643e+19 -0 -0)
(1.12079879808064e+19 -0 -0)
(1.13197572025685e+19 -0 -0)
(1.13865486543619e+19 -0 -0)
(1.14702096547053e+19 -0 -0)
(1.15883785463973e+19 -0 -0)
(1.1723746716149e+19 -0 -0)
(1.18648561555654e+19 -0 -0)
(1.20092645677359e+19 -0 -0)
(1.2123594132488e+19 -0 -0)
(1.22384971860272e+19 -0 -0)
(1.234426167184e+19 -0 -0)
(1.24384690035867e+19 -0 -0)
(1.25333840557343e+19 -0 -0)
(1.26154035971791e+19 -0 -0)
(1.27333040758546e+19 -0 -0)
(1.28409420227224e+19 -0 -0)
(1.29617259388904e+19 -0 -0)
(1.30661167600874e+19 -0 -0)
(1.31920735897986e+19 -0 -0)
(1.3307217663585e+19 -0 -0)
(1.33991717333281e+19 -0 -0)
(1.3501292426701e+19 -0 -0)
(1.3582088694456e+19 -0 -0)
(1.36786937922493e+19 -0 -0)
(1.3769841073022e+19 -0 -0)
(1.38793926758977e+19 -0 -0)
(1.39823078381065e+19 -0 -0)
(1.40795356608186e+19 -0 -0)
(1.41680777587488e+19 -0 -0)
(1.42382958205413e+19 -0 -0)
(1.4301604035937e+19 -0 -0)
(1.43369235978464e+19 -0 -0)
(1.43748539515171e+19 -0 -0)
(1.43972069861768e+19 -0 -0)
(1.44186861943805e+19 -0 -0)
(1.44479922471795e+19 -0 -0)
(1.4464420409046e+19 -0 -0)
(1.44976396527174e+19 -0 -0)
(1.45128123327995e+19 -0 -0)
(1.4528903253956e+19 -0 -0)
(1.45365831218197e+19 -0 -0)
(1.45234502453282e+19 -0 -0)
(1.45158598249722e+19 -0 -0)
(1.44825222042075e+19 -0 -0)
(1.44353930652299e+19 -0 -0)
(1.43829129968779e+19 -0 -0)
(1.43195725189176e+19 -0 -0)
(1.42542919469943e+19 -0 -0)
(1.41774799288916e+19 -0 -0)
(1.41018530759857e+19 -0 -0)
(1.40161036310986e+19 -0 -0)
(1.39349635515479e+19 -0 -0)
(1.38446460749576e+19 -0 -0)
(1.37600873794327e+19 -0 -0)
(1.36636986372316e+19 -0 -0)
(1.35720760955443e+19 -0 -0)
(1.34640290582719e+19 -0 -0)
(1.33601821755867e+19 -0 -0)
(1.323746030337e+19 -0 -0)
(1.31190467086484e+19 -0 -0)
(1.29825693013867e+19 -0 -0)
(1.28523669221466e+19 -0 -0)
(1.2703196515369e+19 -0 -0)
(1.25692793961369e+19 -0 -0)
(1.24110493590163e+19 -0 -0)
(1.22759865008708e+19 -0 -0)
(1.2118349599699e+19 -0 -0)
(1.19816439668635e+19 -0 -0)
(1.18217991696711e+19 -0 -0)
(1.168786997815e+19 -0 -0)
(1.15275678133354e+19 -0 -0)
(1.13918458393582e+19 -0 -0)
(1.12285889579241e+19 -0 -0)
(1.10945520580655e+19 -0 -0)
(1.09286952912938e+19 -0 -0)
(1.07928983423647e+19 -0 -0)
(1.06213360227508e+19 -0 -0)
(1.0484197400922e+19 -0 -0)
(1.03089728165631e+19 -0 -0)
(1.01721676352139e+19 -0 -0)
(9.9936468446524e+18 -0 -0)
(9.85733796254365e+18 -0 -0)
(9.67583259031928e+18 -0 -0)
(9.54056439966871e+18 -0 -0)
(9.35670476842593e+18 -0 -0)
(9.22359187265928e+18 -0 -0)
(9.03798272291314e+18 -0 -0)
(8.90811329935962e+18 -0 -0)
(8.72159723539239e+18 -0 -0)
(8.59551831936349e+18 -0 -0)
(8.40852936792155e+18 -0 -0)
(8.28673332706798e+18 -0 -0)
(8.09945948178443e+18 -0 -0)
(7.98220317474262e+18 -0 -0)
(7.79498551173993e+18 -0 -0)
(7.68302123391776e+18 -0 -0)
(7.49680164812019e+18 -0 -0)
(7.39094681101694e+18 -0 -0)
(7.20608118046911e+18 -0 -0)
(7.10705144735034e+18 -0 -0)
(6.92411852297586e+18 -0 -0)
(6.83226699563762e+18 -0 -0)
(6.65125092505049e+18 -0 -0)
(6.56686809146107e+18 -0 -0)
(6.34499209076026e+18 -0 -0)
)
;

boundaryField
{
    electrode
    {
        type            calculated;
        value           uniform (-40111618592.8769 -0 -0);
    }
    ground
    {
        type            calculated;
        value           uniform (6.34922410211178e+18 -0 -0);
    }
    otherfaces
    {
        type            empty;
    }
}


// ************************************************************************* //
