/*--------------------------------*- C++ -*----------------------------------*\
| =========                 |                                                 |
| \\      /  F ield         | foam-extend: Open Source CFD                    |
|  \\    /   O peration     | Version:     4.0                                |
|   \\  /    A nd           | Web:         http://www.foam-extend.org         |
|    \\/     M anipulation  |                                                 |
\*---------------------------------------------------------------------------*/
FoamFile
{
    version     2.0;
    format      ascii;
    class       volVectorField;
    location    "7e-07";
    object      J_electron;
}
// * * * * * * * * * * * * * * * * * * * * * * * * * * * * * * * * * * * * * //

dimensions      [1 -1 -1 0 0 0 0];

internalField   nonuniform List<vector> 
300
(
(-1.08893005709941e+19 0 0)
(-1.09222240759269e+19 0 0)
(-1.26303037821411e+19 0 0)
(-1.25095607018286e+19 0 0)
(-1.24675133525101e+19 0 0)
(-1.24243085998454e+19 0 0)
(-1.23772358265609e+19 0 0)
(-1.23414100321941e+19 0 0)
(-1.22994051172735e+19 0 0)
(-1.2258522587525e+19 0 0)
(-1.22192461061419e+19 0 0)
(-1.21800091636527e+19 0 0)
(-1.21412626210874e+19 0 0)
(-1.21031257311086e+19 0 0)
(-1.20655434017336e+19 0 0)
(-1.2028510058757e+19 0 0)
(-1.19920294663794e+19 0 0)
(-1.19560933032897e+19 0 0)
(-1.19206898909775e+19 0 0)
(-1.18858010661652e+19 0 0)
(-1.18514043840013e+19 0 0)
(-1.18174843779516e+19 0 0)
(-1.17840054607044e+19 0 0)
(-1.17509486008528e+19 0 0)
(-1.17182886219288e+19 0 0)
(-1.16859876195542e+19 0 0)
(-1.16540276779366e+19 0 0)
(-1.16223841864855e+19 0 0)
(-1.15910224367798e+19 0 0)
(-1.1559925727625e+19 0 0)
(-1.15290796291465e+19 0 0)
(-1.14984516934878e+19 0 0)
(-1.14680360499599e+19 0 0)
(-1.14378206904941e+19 0 0)
(-1.14077889703507e+19 0 0)
(-1.13779383311086e+19 0 0)
(-1.13482649919664e+19 0 0)
(-1.13187655914493e+19 0 0)
(-1.12894408980719e+19 0 0)
(-1.12602972846047e+19 0 0)
(-1.12313381581787e+19 0 0)
(-1.12025709823522e+19 0 0)
(-1.11740073320862e+19 0 0)
(-1.11456556744085e+19 0 0)
(-1.11175287264001e+19 0 0)
(-1.1089639682042e+19 0 0)
(-1.10619983428607e+19 0 0)
(-1.10346249885007e+19 0 0)
(-1.10075215602296e+19 0 0)
(-1.0980712467234e+19 0 0)
(-1.09542021130614e+19 0 0)
(-1.09280020620567e+19 0 0)
(-1.09021285473567e+19 0 0)
(-1.08765805479083e+19 0 0)
(-1.08513759004278e+19 0 0)
(-1.08265117241178e+19 0 0)
(-1.0801997577468e+19 0 0)
(-1.0777833954928e+19 0 0)
(-1.0754022671458e+19 0 0)
(-1.07305567190311e+19 0 0)
(-1.07074434148482e+19 0 0)
(-1.06846696175475e+19 0 0)
(-1.06622222048237e+19 0 0)
(-1.06401109645182e+19 0 0)
(-1.06183052352191e+19 0 0)
(-1.05967968331419e+19 0 0)
(-1.05755800942753e+19 0 0)
(-1.05546218769859e+19 0 0)
(-1.05339137275637e+19 0 0)
(-1.05134343431746e+19 0 0)
(-1.04931482052584e+19 0 0)
(-1.04730462387763e+19 0 0)
(-1.04530944567702e+19 0 0)
(-1.04332535155353e+19 0 0)
(-1.04135159325765e+19 0 0)
(-1.03938193945448e+19 0 0)
(-1.03741612209451e+19 0 0)
(-1.03544771503273e+19 0 0)
(-1.03347370121332e+19 0 0)
(-1.03149244277352e+19 0 0)
(-1.02949488384908e+19 0 0)
(-1.02748145259853e+19 0 0)
(-1.02544510344338e+19 0 0)
(-1.02338074011406e+19 0 0)
(-1.02128504079694e+19 0 0)
(-1.01915181881297e+19 0 0)
(-1.01697573080426e+19 0 0)
(-1.0147506488396e+19 0 0)
(-1.01247369997315e+19 0 0)
(-1.01013446004646e+19 0 0)
(-1.0077297443409e+19 0 0)
(-1.00525416146665e+19 0 0)
(-1.0026970073544e+19 0 0)
(-1.00005582245708e+19 0 0)
(-9.97321334231296e+18 0 0)
(-9.9448657424422e+18 0 0)
(-9.91544970359236e+18 0 0)
(-9.88488232185679e+18 0 0)
(-9.85308163352979e+18 0 0)
(-9.81999016786526e+18 0 0)
(-9.78549613651401e+18 0 0)
(-9.74953258983883e+18 0 0)
(-9.71203366852179e+18 0 0)
(-9.6728672380812e+18 0 0)
(-9.6319956984272e+18 0 0)
(-9.58930707621872e+18 0 0)
(-9.54470679583864e+18 0 0)
(-9.49813453477904e+18 0 0)
(-9.44947200354314e+18 0 0)
(-9.39864934685973e+18 0 0)
(-9.34558205043907e+18 0 0)
(-9.29016457476964e+18 0 0)
(-9.23233607015727e+18 0 0)
(-9.17200607297877e+18 0 0)
(-9.10908026188779e+18 0 0)
(-9.04350710232357e+18 0 0)
(-8.97519220377623e+18 0 0)
(-8.90408014108321e+18 0 0)
(-8.83008650208975e+18 0 0)
(-8.75316968134594e+18 0 0)
(-8.6732690238598e+18 0 0)
(-8.59031079446118e+18 0 0)
(-8.50427954471633e+18 0 0)
(-8.4151223757806e+18 0 0)
(-8.32279027840188e+18 0 0)
(-8.22727014224075e+18 0 0)
(-8.12853841272242e+18 0 0)
(-8.02655557932496e+18 0 0)
(-7.92132549875702e+18 0 0)
(-7.81282943493105e+18 0 0)
(-7.70104147923121e+18 0 0)
(-7.58598292808663e+18 0 0)
(-7.46761992680663e+18 0 0)
(-7.34593234285625e+18 0 0)
(-7.22093112584831e+18 0 0)
(-7.09257370364386e+18 0 0)
(-6.96081343776136e+18 0 0)
(-6.82560743216985e+18 0 0)
(-6.68689854641576e+18 0 0)
(-6.54456704161704e+18 0 0)
(-6.39848399034856e+18 0 0)
(-6.24852107609506e+18 0 0)
(-6.09442847224601e+18 0 0)
(-5.93594931286639e+18 0 0)
(-5.77280565332306e+18 0 0)
(-5.6045151457588e+18 0 0)
(-5.4306441895105e+18 0 0)
(-5.25063520019546e+18 0 0)
(-5.06365801055073e+18 0 0)
(-4.86898626858372e+18 0 0)
(-4.66558981733404e+18 0 0)
(-4.4522046601948e+18 0 0)
(-4.22753332813523e+18 0 0)
(-3.98986209556588e+18 0 0)
(-3.73731334554858e+18 0 0)
(-3.46766330583581e+18 0 0)
(-3.17830519327503e+18 0 0)
(-2.86630063486114e+18 0 0)
(-2.52759402477833e+18 0 0)
(-2.15985676871847e+18 0 0)
(-1.75836697165562e+18 0 0)
(-1.3135245039926e+18 0 0)
(-8.21916837396611e+17 0 0)
(-2.84806778513785e+17 0 0)
(2.93519405001736e+17 0 0)
(9.53903725735313e+17 0 0)
(1.82080903045762e+18 0 0)
(2.67545997139247e+18 0 0)
(3.20690780721539e+18 0 0)
(5.0964962408273e+18 0 0)
(8.64165872762303e+18 0 0)
(1.09588372632927e+19 0 0)
(1.14707116424136e+19 0 0)
(1.19036955794709e+19 0 0)
(1.52326725300671e+19 0 0)
(1.56089257429775e+19 0 0)
(1.21686935142148e+19 0 0)
(1.13150154724008e+19 0 0)
(7.5082652387482e+18 0 0)
(5.24111597077004e+18 0 0)
(2.96884789662502e+18 0 0)
(5.64766552755274e+17 0 0)
(4.70760864534338e+18 0 0)
(9.79164537385753e+18 0 0)
(1.91621552879866e+19 0 0)
(3.0334666754655e+19 0 0)
(4.32948067351732e+19 0 0)
(5.50936221729696e+19 0 0)
(6.21555697976601e+19 0 0)
(6.43347694462844e+19 0 0)
(6.0775629514241e+19 0 0)
(5.23373452715989e+19 0 0)
(4.28413787036216e+19 0 0)
(3.03029700715959e+19 0 0)
(2.05908226357229e+19 0 0)
(1.12121023258062e+19 0 0)
(7.47076083982857e+18 0 0)
(1.89616175847528e+18 0 0)
(4.38668546899972e+17 0 0)
(-9.05341584372387e+17 0 0)
(-7.7671421634069e+17 0 0)
(-1.03361494987789e+18 0 0)
(-1.22406543112335e+18 0 0)
(-1.34933379942211e+18 0 0)
(-1.4067603601818e+18 0 0)
(-1.42538210928948e+18 0 0)
(-1.42459814474738e+18 0 0)
(-1.41751365476343e+18 0 0)
(-1.40092343193374e+18 0 0)
(-1.3803514446721e+18 0 0)
(-1.35915041091112e+18 0 0)
(-1.33786068246416e+18 0 0)
(-1.31590114065703e+18 0 0)
(-1.29338351343866e+18 0 0)
(-1.27045503221012e+18 0 0)
(-1.24668339429751e+18 0 0)
(-1.22304197378003e+18 0 0)
(-1.1997664168213e+18 0 0)
(-1.17610248252451e+18 0 0)
(-1.15230687463012e+18 0 0)
(-1.12854676267469e+18 0 0)
(-1.10489856069699e+18 0 0)
(-1.08142002760702e+18 0 0)
(-1.05815432097199e+18 0 0)
(-1.03514174559389e+18 0 0)
(-1.01242924129793e+18 0 0)
(-9.90049126095662e+17 0 0)
(-9.68032174800731e+17 0 0)
(-9.46407235374965e+17 0 0)
(-9.25192915087277e+17 0 0)
(-9.04412477248802e+17 0 0)
(-8.84077585380182e+17 0 0)
(-8.64201187319584e+17 0 0)
(-8.44792312154765e+17 0 0)
(-8.25852847595358e+17 0 0)
(-8.07388660254228e+17 0 0)
(-7.89394879587107e+17 0 0)
(-7.71867082549581e+17 0 0)
(-7.54775678990026e+17 0 0)
(-7.38252792031935e+17 0 0)
(-7.22114062939757e+17 0 0)
(-7.06431242659591e+17 0 0)
(-6.91184858574823e+17 0 0)
(-6.76369573318971e+17 0 0)
(-6.61974608057571e+17 0 0)
(-6.47989143170356e+17 0 0)
(-6.34401973967257e+17 0 0)
(-6.2120141841868e+17 0 0)
(-6.08375824873758e+17 0 0)
(-5.95913290856093e+17 0 0)
(-5.83801625359803e+17 0 0)
(-5.7203259547327e+17 0 0)
(-5.6058682660311e+17 0 0)
(-5.49440247950809e+17 0 0)
(-5.386262495448e+17 0 0)
(-5.28105807399739e+17 0 0)
(-5.17847775644529e+17 0 0)
(-5.07871506800579e+17 0 0)
(-4.98156949993228e+17 0 0)
(-4.88695451886589e+17 0 0)
(-4.79477421076861e+17 0 0)
(-4.70494137353364e+17 0 0)
(-4.61736841085581e+17 0 0)
(-4.53197537795475e+17 0 0)
(-4.44868090041353e+17 0 0)
(-4.36739593793146e+17 0 0)
(-4.28804988018076e+17 0 0)
(-4.21045845781469e+17 0 0)
(-4.1345431813655e+17 0 0)
(-4.06111449633744e+17 0 0)
(-3.98892330516463e+17 0 0)
(-3.91839908718766e+17 0 0)
(-3.84943843939345e+17 0 0)
(-3.78201829025121e+17 0 0)
(-3.7160907011643e+17 0 0)
(-3.65160869871525e+17 0 0)
(-3.58853028986335e+17 0 0)
(-3.52680782642038e+17 0 0)
(-3.46640612345425e+17 0 0)
(-3.40724071514918e+17 0 0)
(-3.34934939062414e+17 0 0)
(-3.29189739553884e+17 0 0)
(-3.23695028479696e+17 0 0)
(-3.18327132275311e+17 0 0)
(-3.13033872499672e+17 0 0)
(-3.07851279101575e+17 0 0)
(-3.02780409818852e+17 0 0)
(-2.97745810449486e+17 0 0)
(-2.92905500711774e+17 0 0)
(-2.88296579196238e+17 0 0)
(-2.8370344973332e+17 0 0)
(-2.79088811771319e+17 0 0)
(-2.74838988401244e+17 0 0)
(-2.70692373777757e+17 0 0)
(-2.6648149419441e+17 0 0)
(-2.62796951361055e+17 0 0)
(-2.59297789573313e+17 0 0)
(-2.5601802531067e+17 0 0)
(-2.53155110393833e+17 0 0)
(-2.48779549182001e+17 0 0)
)
;

boundaryField
{
    electrode
    {
        type            calculated;
        value           uniform (-1.26544240534145e+19 0 0);
    }
    ground
    {
        type            calculated;
        value           uniform (-2.47656765273813e+17 0 0);
    }
    otherfaces
    {
        type            empty;
    }
}


// ************************************************************************* //
