/*--------------------------------*- C++ -*----------------------------------*\
| =========                 |                                                 |
| \\      /  F ield         | foam-extend: Open Source CFD                    |
|  \\    /   O peration     | Version:     4.0                                |
|   \\  /    A nd           | Web:         http://www.foam-extend.org         |
|    \\/     M anipulation  |                                                 |
\*---------------------------------------------------------------------------*/
FoamFile
{
    version     2.0;
    format      ascii;
    class       volScalarField;
    location    "7e-07";
    object      N_electronMean;
}
// * * * * * * * * * * * * * * * * * * * * * * * * * * * * * * * * * * * * * //

dimensions      [0 0 0 1 0 0 0];

internalField   nonuniform List<scalar> 
300
(
6.09336524443328e+16
6.09352430439404e+16
6.09351295832715e+16
6.09319089191898e+16
6.09255706941005e+16
6.0915859599261e+16
6.09026096455278e+16
6.08857002267322e+16
6.0865022804127e+16
6.08404885232234e+16
6.08120247424005e+16
6.07795733444529e+16
6.07430892774828e+16
6.07025391882768e+16
6.06579004376897e+16
6.06091601242109e+16
6.05563142634773e+16
6.04993670873379e+16
6.0438330369703e+16
6.03732227978201e+16
6.03040694277195e+16
6.02309011807551e+16
6.01537543701294e+16
6.00726702270612e+16
5.99876945836047e+16
5.98988776522876e+16
5.98062735658952e+16
5.97099399343242e+16
5.96099375175761e+16
5.95063297556093e+16
5.93991825280137e+16
5.92885642163521e+16
5.91745453312769e+16
5.90571978152171e+16
5.89365946099148e+16
5.88128093658903e+16
5.86859161729908e+16
5.85559893457792e+16
5.84231031776336e+16
5.82873316980164e+16
5.81487485312721e+16
5.80074267529045e+16
5.78634386682175e+16
5.77168556387065e+16
5.75677479773056e+16
5.74161848594723e+16
5.72622342658322e+16
5.71059629700612e+16
5.69474366069071e+16
5.6786719818545e+16
5.66238765805425e+16
5.64589705361742e+16
5.62920650487607e+16
5.61232230157328e+16
5.59525064603622e+16
5.57799761010977e+16
5.56056910260347e+16
5.54297085030477e+16
5.52520839049485e+16
5.50728706445867e+16
5.4892120147797e+16
5.47098818492261e+16
5.45262031521731e+16
5.43411296544974e+16
5.41547056930646e+16
5.39669743051922e+16
5.37779766440446e+16
5.35877517373807e+16
5.33963365074471e+16
5.32037657796615e+16
5.30100722823031e+16
5.28152867839665e+16
5.2619438496356e+16
5.2422555183492e+16
5.22246629331326e+16
5.20257864078703e+16
5.18259492718275e+16
5.16251741788964e+16
5.14234823460719e+16
5.12208933669061e+16
5.10174253646069e+16
5.08130945244884e+16
5.06079146445242e+16
5.04018971019e+16
5.01950509333338e+16
4.99873831113153e+16
4.97788984112747e+16
4.95695989403131e+16
4.93594840013842e+16
4.91485501998234e+16
4.8936791320593e+16
4.87241985799985e+16
4.85107609714938e+16
4.82964645868392e+16
4.80812919707061e+16
4.78652220018185e+16
4.76482297542209e+16
4.74302863495856e+16
4.72113587973e+16
4.69914099273878e+16
4.67703982974361e+16
4.65482778732411e+16
4.63249980075133e+16
4.61005035968206e+16
4.5874734637689e+16
4.56476258901804e+16
4.54191067408875e+16
4.51891009213908e+16
4.49575263724206e+16
4.4724294821781e+16
4.44893112434148e+16
4.4252473523636e+16
4.4013672213493e+16
4.37727904261574e+16
4.35297035408005e+16
4.32842788804658e+16
4.30363758373213e+16
4.2785845683159e+16
4.25325307314842e+16
4.2276263561727e+16
4.20168667797862e+16
4.17541529366888e+16
4.14879243394327e+16
4.12179729349105e+16
4.09440795820696e+16
4.06660128903339e+16
4.03835286681803e+16
4.00963696128618e+16
3.98042646207911e+16
3.95069281873788e+16
3.92040600679914e+16
3.88953449269301e+16
3.85804518865851e+16
3.82590340615343e+16
3.79307287246002e+16
3.75951577000835e+16
3.72519267553138e+16
3.69006248153018e+16
3.65408240951815e+16
3.61720803036014e+16
3.5793932231911e+16
3.54059014664288e+16
3.5007492575528e+16
3.45981935721439e+16
3.41774769094412e+16
3.37448003624748e+16
3.32996071852498e+16
3.28413262459656e+16
3.23693722771822e+16
3.1883146945292e+16
3.13820407240996e+16
3.08654339203299e+16
3.0332697977095e+16
2.97831973771856e+16
2.92162908161916e+16
2.8631332855508e+16
2.80276763506908e+16
2.74046747381619e+16
2.67616835676561e+16
2.60980618515961e+16
2.54131736597135e+16
2.47063871101356e+16
2.39770705130976e+16
2.32245851345527e+16
2.24482652091044e+16
2.16473731570291e+16
2.0821045696005e+16
1.99682747593222e+16
1.90879316701353e+16
1.81788084243378e+16
1.72396859655762e+16
1.62695290827248e+16
1.52678478036197e+16
1.42350904752403e+16
1.31729941402948e+16
1.20850071177284e+16
1.09768845875914e+16
9.85712831336018e+15
8.73711072877808e+15
7.63102210399389e+15
6.55539289236363e+15
5.52820958551627e+15
4.56761599890748e+15
3.69028795591107e+15
2.90983032307244e+15
2.23529702803375e+15
1.67022745180882e+15
1.21239545482827e+15
854291204540874
584321140372175
388389912108893
251589185209678
159708644421366
100269361744511
63111862674411.9
40573716485327.3
27196303712708.2
19354503106967.6
14598349305923.4
11590439317694.9
9715143339922.54
8596973712802.23
7908341588829.04
7433164364648.12
7064901324862.13
6754540352614.44
6479277795732.9
6227891528841.23
5994236886752.03
5774635178856.44
5566689640802.7
5368930655710.6
5180200423976.97
4999594313328.09
4826382659668.46
4659963196113.44
4499830458244.79
4345559241627.42
4196790004804.24
4053212397846.42
3914560095678.62
3780576396621.29
3651040177665.44
3525757435919.07
3404551136971.57
3287260322867.29
3173739103818.55
3063850842363.08
2957470494796.97
2854480523456.05
2754768381785.34
2658231383280.05
2564768726818.27
2474284107622.94
2386687750837.56
2301892392285.16
2219812180078.16
2140367877528.61
2063479752630.26
1989070763702.42
1917069309308.9
1847403744980.64
1780007786755.58
1714815888752.15
1651763756916.24
1590790471867.59
1531834766243.67
1474837531851.26
1419739361194.68
1366482811238.88
1315012200444.97
1265271585837.41
1217206878536.04
1170763945498.2
1125891472657.24
1082541784201.67
1040668307205.55
1000226497523.64
961174222579.77
923469458658.342
887072429150.073
851942552948.409
818040462574.61
785325817896.695
753759451211.046
723305276058.332
693928735643.869
665597647926.342
638280073787.52
611946494670.087
586567045439.466
562112204516.646
538552394425.235
515860782336.441
494011382103.917
472979393741.904
452740477097.924
433269695562.495
414543516301.632
396539875879.476
379236946759.101
362610228878.688
346637252071.043
331299791269.763
316579071982.205
302457354685.357
288919323704.065
275947555374.509
263524300848.407
251635513420.228
240269076298.273
229412560386.151
219054982288.506
209191674708.176
199826404630.345
190969699591.644
182647713300.656
174907732174.222
167907970687.43
161775139056.081
)
;

boundaryField
{
    electrode
    {
        type            calculated;
        value           uniform 6.09336524460167e+16;
    }
    ground
    {
        type            calculated;
        value           uniform 159320435327.53;
    }
    otherfaces
    {
        type            empty;
    }
}


// ************************************************************************* //
