/*--------------------------------*- C++ -*----------------------------------*\
| =========                 |                                                 |
| \\      /  F ield         | foam-extend: Open Source CFD                    |
|  \\    /   O peration     | Version:     4.0                                |
|   \\  /    A nd           | Web:         http://www.foam-extend.org         |
|    \\/     M anipulation  |                                                 |
\*---------------------------------------------------------------------------*/
FoamFile
{
    version     2.0;
    format      ascii;
    class       volScalarField;
    location    "7e-07";
    object      Phi;
}
// * * * * * * * * * * * * * * * * * * * * * * * * * * * * * * * * * * * * * //

dimensions      [0 0 0 1 0 0 0];

internalField   nonuniform List<scalar> 
300
(
699.999966193934
699.999759316319
699.999324569536
699.99866544977
699.997786710157
699.996687741216
699.995368511165
699.99382842659
699.992067091812
699.990084091915
699.987878919012
699.985451070399
699.982800043601
699.979925339017
699.976826475292
699.973503001635
699.969954508945
699.966180641103
699.962181105933
699.95795568556
699.953504246174
699.948826746846
699.943923247521
699.938793916321
699.93343903503
699.927859004651
699.922054348807
699.916025716538
699.909773883917
699.903299754724
699.896604359349
699.889688853702
699.882554516429
699.875202745213
699.867635052718
699.859853061349
699.851858497377
699.843653184635
699.835239037565
699.826618053831
699.817792306565
699.808763936499
699.799535143611
699.790108178915
699.780485336043
699.770668942852
699.76066135311
699.750464938283
699.740082079324
699.729515159119
699.718766554116
699.707838627783
699.696733722331
699.685454152686
699.674002199025
699.662380100763
699.650590050113
699.63863418613
699.626514588972
699.614233274321
699.601792188051
699.589193200716
699.576438103089
699.563528600435
699.550466307943
699.537252746141
699.523889335337
699.51037739129
699.496718120111
699.482912612909
699.468961841063
699.454866650566
699.440627756238
699.426245736523
699.411721026768
699.397053912874
699.38224452511
699.367292829475
699.352198622342
699.336961519372
699.321580949647
699.306056144781
699.290386129194
699.27456971063
699.258605467799
699.242491739162
699.226226610071
699.209807899391
699.193233144815
699.176499587522
699.159604157198
699.14254345209
699.125313723717
699.107910855327
699.090330341842
699.072567268444
699.054616286753
699.036471590798
699.018126891039
698.999575386971
698.980809737986
698.961822034201
698.942603762171
698.923145773434
698.903438247832
698.883470655587
698.863231719907
698.842709373736
698.821890717883
698.800761975452
698.779308443814
698.757514445762
698.735363277152
698.712837152069
698.68991714722
698.666583141558
698.642813754555
698.618586282138
698.593876628147
698.568659235281
698.542907009322
698.516591245061
698.489681543461
698.462145728838
698.433949760542
698.405057641077
698.375431317737
698.345030582284
698.313812961958
698.281733605889
698.248745164442
698.214797660446
698.179838350884
698.143811581779
698.106658626908
698.068317517929
698.028722857866
697.987805618381
697.945492916001
697.901707768433
697.856368823719
697.809390058638
697.76068044304
697.710143566132
697.65767720989
697.603172874232
697.546515235756
697.487581526973
697.426240837534
697.362353305546
697.295769183388
697.226327775456
697.15385618924
697.078167894933
696.99906104532
696.916316503171
696.829695535798
696.738937088836
696.643754573655
696.543832038431
696.438819554565
696.328327975074
696.211922314355
696.089113461715
695.959348704627
695.822000974781
695.676357342131
695.521596380024
695.35674887943
695.180712104473
694.992258370229
694.78973565465
694.570942200292
694.333298131711
694.073886875928
693.789215198782
693.474488002314
693.124629698255
692.733921117675
692.295463463322
691.80236386135
691.246202660969
690.619099771773
689.913026945079
689.11926172629
688.230736969085
687.24083334494
686.144643876009
684.937849387534
683.616661894747
682.180243490468
680.628537127761
678.961495376878
677.180556185191
675.2874327282
673.283491314573
671.170195581954
668.948755619059
666.621279849785
664.189460450908
661.654435635184
659.016992776505
656.277615655117
653.436842716075
650.495779713761
647.455361917043
644.316450941832
641.079863028812
637.746282316111
634.316374914256
630.790428665476
627.168717360932
623.451771220405
619.640212824387
615.734434452509
611.734839619097
607.641928303655
603.456066102124
599.177704507427
594.807129519193
590.344610644033
585.790245147163
581.144128606906
576.406473070217
571.577731344246
566.658429070221
561.649092266049
556.550378790814
551.362886409699
546.087267105195
540.724137264282
535.274028110594
529.737512367497
524.11502879178
518.40709127335
512.614176835126
506.736781625046
500.775492371305
494.730834472392
488.60352879558
482.394487956324
476.104621481278
469.734867829446
463.286145360737
456.759406434088
450.155568191289
443.475575600508
436.720322371533
429.890726814242
422.987652591229
416.012003832598
408.96463759656
401.846476658478
394.658401305007
387.401370733811
380.076302400096
372.68418869165
365.225971499095
357.702672719455
350.115219435131
342.464646747671
334.751856711394
326.977851384098
319.143513409661
311.249829016313
303.297712441761
295.288210152379
287.22223145152
279.100807959466
270.924813550126
262.695265675687
254.413022110551
246.079103259756
237.694350583108
229.259779141258
220.776207787427
212.244646146933
203.665891443216
195.040947924017
186.370590207033
177.655815615317
168.897372411721
160.096249528882
151.253165224216
142.369097409158
133.444733199797
124.481038720754
115.478668980082
106.438578626423
97.3613905994823
88.2480475735561
79.0991380774576
69.9155894789534
60.6979532061595
51.4471406644098
42.1636639200852
32.8484166700188
23.501870994195
14.1249037757763
4.71794567826196
)
;

boundaryField
{
    electrode
    {
        type            fixedValue;
        value           uniform 700;
    }
    ground
    {
        type            fixedValue;
        value           uniform 0;
    }
    otherfaces
    {
        type            empty;
    }
}


// ************************************************************************* //
