/*--------------------------------*- C++ -*----------------------------------*\
| =========                 |                                                 |
| \\      /  F ield         | foam-extend: Open Source CFD                    |
|  \\    /   O peration     | Version:     4.0                                |
|   \\  /    A nd           | Web:         http://www.foam-extend.org         |
|    \\/     M anipulation  |                                                 |
\*---------------------------------------------------------------------------*/
FoamFile
{
    version     2.0;
    format      ascii;
    class       volScalarField;
    location    "7e-07";
    object      PhiMean;
}
// * * * * * * * * * * * * * * * * * * * * * * * * * * * * * * * * * * * * * //

dimensions      [0 0 0 1 0 0 0];

internalField   nonuniform List<scalar> 
300
(
699.895241869897
699.886224493857
699.876880296623
699.867265806965
699.85739376716
699.847231249237
699.836769819109
699.82600025686
699.814914288353
699.803505519299
699.791768640482
699.779699527677
699.767294974835
699.754552624172
699.741470876294
699.728048802772
699.714286076424
699.700182924588
699.685740070643
699.670958679267
699.655840319669
699.640386926841
699.624600767383
699.608484404372
699.592040659711
699.575272666474
699.558183785609
699.540777580261
699.523057814255
699.505028394135
699.486693330378
699.46805684294
699.449123309791
699.429897157149
699.410382846573
699.390584856904
699.370507662
699.350155730215
699.329533503263
699.308645370575
699.287495668679
699.266088682802
699.244428612712
699.222519565262
699.200365548095
699.177970463793
699.155338104828
699.132472157532
699.109376206921
699.086053769439
699.062508317283
699.038743386968
699.014762531572
698.990569358526
698.966167424097
698.941560209203
698.916751055263
698.891743155033
698.866539549696
698.841143117834
698.815556577445
698.78978248349
698.763823219984
698.737680990993
698.711357985593
698.684856366131
698.658178102952
698.631324978346
698.604298590953
698.577100353003
698.549731488227
698.52219302082
698.494485871286
698.466610888765
698.438568731931
698.410359941629
698.381985051562
698.35344453565
698.324738791627
698.295867982497
698.266832282664
698.237631636399
698.208265731701
698.178734022249
698.149035687611
698.119169761956
698.089135084035
698.058930185605
698.028553274971
697.998002299835
697.967274897178
697.936368366218
697.90527995547
697.874006532548
697.842544539102
697.810889991712
697.779038448154
697.746985001976
697.714724229784
697.682250201776
697.649556473686
697.616636015805
697.583481144312
697.550083713674
697.516434883738
697.482525101145
697.448344130827
697.413880898712
697.379123584808
697.344059478013
697.308674867881
697.272955005666
697.236884016308
697.200444901491
697.163619480004
697.126388225947
697.088730367687
697.05062386332
697.012045135308
696.972968918162
696.933368144279
696.893214010772
696.852475739408
696.811120682294
696.769114047948
696.726418575968
696.682994356274
696.638798801307
696.593786284883
696.54790795862
696.501111535553
696.453341084916
696.404536746277
696.354634395033
696.303565394817
696.251256624339
696.19762988577
696.142601358705
696.086081293257
696.02797371677
695.968175731235
695.906576907326
695.843058703712
695.777493812384
695.709745577246
695.63966740451
695.567101571782
695.491878192485
695.413813867859
695.33271029629
695.248353286379
695.160510798097
695.068930875232
694.973339900095
694.873439480927
694.768903587771
694.65937516248
694.544462094172
694.423732182782
694.296706840115
694.162854370007
694.021580751364
693.87221732056
693.714006950931
693.546083641743
693.367439962966
693.176877313947
692.972959386463
692.753966642287
692.517832963945
692.262061215589
691.983633801381
691.678985162829
691.34394895241
690.973660756768
690.562456195516
690.103891007009
689.590860810442
689.01547458925
688.369301596967
687.643498202656
686.828991262771
685.916945841455
684.898795326978
683.766860310613
682.514469669729
681.136130966109
679.627925543319
677.987111684737
676.212358898834
674.303633795927
672.261626392065
670.087795357044
667.784252517509
665.353258785325
662.797185412753
660.118433216136
657.31953331078
654.402864602782
651.370599154659
648.224707810673
644.967035042253
641.599470359053
638.123960285414
634.542425437947
630.856705024737
627.068568225122
623.179720979546
619.191831646615
615.106536392415
610.925461935775
606.650241088327
602.282497626372
597.823809664875
593.275711894163
588.639710085256
583.917275254476
579.109854673957
574.218874916769
569.245743316887
564.191861458987
559.058620541135
553.847423071348
548.559670037355
543.196744531137
537.759998261109
532.250757402381
526.670319991326
521.01995713235
515.300917367128
509.514423237836
503.661678773376
497.743876209296
491.762212096858
485.717882492356
479.612076837985
473.445984909513
467.220790722768
460.937678691541
454.597831876819
448.202414236245
441.75256506732
435.249401961248
428.694018471304
422.087488537362
415.430862277935
408.72517268442
401.971428979996
395.170626107704
388.32373524677
381.431716028642
374.495503687454
367.516024307137
360.494177985879
353.430857926882
346.326929205822
339.183252210758
332.00065712434
324.77997187442
317.521991918387
310.227514206531
302.897299921041
295.532116618869
288.132692874917
280.699768147282
273.234045069886
265.736247372505
258.207054277218
250.647165236217
243.05722881609
235.437918621693
227.78985163805
220.113675473242
212.409975019377
204.679372284073
196.92242014134
189.13971580235
181.331780399253
173.499187260413
165.642426047141
157.762047094901
149.858508868041
141.932339763602
133.983967414265
126.013899498316
118.022533176384
110.010356505238
101.977736581188
93.925143073158
85.852913302328
77.7614997471264
69.6512103014593
61.5224814459463
53.3755920101366
45.2109638171437
37.0288469942131
28.8296500647098
20.6135948911831
12.3810781237075
4.13229468977323
)
;

boundaryField
{
    electrode
    {
        type            calculated;
        value           uniform 699.999999999961;
    }
    ground
    {
        type            calculated;
        value           uniform 0;
    }
    otherfaces
    {
        type            empty;
    }
}


// ************************************************************************* //
