/*--------------------------------*- C++ -*----------------------------------*\
| =========                 |                                                 |
| \\      /  F ield         | foam-extend: Open Source CFD                    |
|  \\    /   O peration     | Version:     4.0                                |
|   \\  /    A nd           | Web:         http://www.foam-extend.org         |
|    \\/     M anipulation  |                                                 |
\*---------------------------------------------------------------------------*/
FoamFile
{
    version     2.0;
    format      ascii;
    class       volScalarField;
    location    "7e-07";
    object      Sy_electron;
}
// * * * * * * * * * * * * * * * * * * * * * * * * * * * * * * * * * * * * * //

dimensions      [1 -3 -1 0 0 0 0];

internalField   nonuniform List<scalar> 
300
(
4.43432361209981e-15
4.43791684866846e-15
4.4413016190381e-15
4.44317787212931e-15
4.44398766407005e-15
4.44381860538458e-15
4.44275217230608e-15
4.44084553797865e-15
4.43814575250305e-15
4.4346942859991e-15
4.43052066700751e-15
4.42565161382091e-15
4.42011037451401e-15
4.41391763653537e-15
4.40709212529261e-15
4.39965105087659e-15
4.39160492112931e-15
4.38297129826109e-15
4.37376740796436e-15
4.36400718913193e-15
4.35370420394902e-15
4.34287162611873e-15
4.33152232698102e-15
4.31966891453491e-15
4.30729470282127e-15
4.29443494720977e-15
4.28109935459378e-15
4.26729470203476e-15
4.25304885432824e-15
4.23837398366134e-15
4.2232487070731e-15
4.20769717822197e-15
4.19175558753691e-15
4.1754372006048e-15
4.15875484822811e-15
4.14172091386172e-15
4.12433954770135e-15
4.10662629092408e-15
4.08859765650982e-15
4.07026387802243e-15
4.05163516510183e-15
4.03272488034132e-15
4.01354390934349e-15
3.99410281083034e-15
3.97441180555911e-15
3.95448070238398e-15
3.93431525046153e-15
3.91392213924876e-15
3.89329202942476e-15
3.8724268254449e-15
3.85130899703691e-15
3.82996468963647e-15
3.80838886631205e-15
3.78661639936359e-15
3.76466533557441e-15
3.7425677528795e-15
3.72033313798936e-15
3.6979703114211e-15
3.67548746186477e-15
3.65288906679698e-15
3.6301861771829e-15
3.60738604917934e-15
3.58448678753724e-15
3.56146200442834e-15
3.53832222688135e-15
3.51511387931307e-15
3.49184381091772e-15
3.46851847312334e-15
3.44514383979051e-15
3.42172546282359e-15
3.39826524203441e-15
3.37475472266604e-15
3.35119470933435e-15
3.32760068581536e-15
3.30395379956639e-15
3.28025911326241e-15
3.25653015154275e-15
3.23276332190976e-15
3.20899397931642e-15
3.1851758794891e-15
3.16136753963862e-15
3.1375749377831e-15
3.1137957990295e-15
3.09003639076072e-15
3.06627587659937e-15
3.0425291527356e-15
3.01881708935967e-15
2.99514253269012e-15
2.97148920590785e-15
2.94787161644936e-15
2.92428283716464e-15
2.90065551800511e-15
2.87707765606465e-15
2.85355360725302e-15
2.83008536248964e-15
2.80667485966795e-15
2.78332360944105e-15
2.76003278130285e-15
2.73678762987461e-15
2.7135899194338e-15
2.69045080787726e-15
2.66737392106867e-15
2.64431346816353e-15
2.6213148780501e-15
2.59836594133547e-15
2.57545443531473e-15
2.552604132456e-15
2.52978762648994e-15
2.50702174273465e-15
2.48431574525776e-15
2.46166815372271e-15
2.43907691078166e-15
2.41653209998419e-15
2.39403183950839e-15
2.3715742611108e-15
2.34913556999789e-15
2.32669045808673e-15
2.30427566138807e-15
2.28189362765981e-15
2.25953434618687e-15
2.23716232230316e-15
2.21479743586688e-15
2.19240098822799e-15
2.16998928316105e-15
2.14757972789183e-15
2.12517090990984e-15
2.10272610024363e-15
2.0802710980989e-15
2.05779301147072e-15
2.03529114256028e-15
2.01274660685957e-15
1.99015664269819e-15
1.96751715342354e-15
1.94479641567787e-15
1.92194967758952e-15
1.89900556717675e-15
1.87597283749074e-15
1.85282277397951e-15
1.82953539448001e-15
1.80612724955507e-15
1.78258271993381e-15
1.75888604551797e-15
1.7350025827643e-15
1.71089888183566e-15
1.68655186146949e-15
1.66199450965741e-15
1.6372167184713e-15
1.61220742434906e-15
1.58693922566064e-15
1.56136378028465e-15
1.53550835562033e-15
1.50935593487146e-15
1.48284644867859e-15
1.45599422222313e-15
1.42879425565019e-15
1.40120657185413e-15
1.37320112160435e-15
1.34479862875919e-15
1.31599969375832e-15
1.28677784193658e-15
1.2571196582195e-15
1.22703664173283e-15
1.19651691078419e-15
1.16560531031813e-15
1.134319969254e-15
1.10263790539597e-15
1.07061930189369e-15
1.03834622400839e-15
1.00587635967678e-15
9.73297291091427e-16
9.4074247944469e-16
9.08271326137601e-16
8.75956098320708e-16
8.43955262103933e-16
8.12490423405694e-16
7.81718775587348e-16
7.51733300950172e-16
7.22698634180276e-16
6.94819051272389e-16
6.68211379391804e-16
6.43013879991232e-16
6.19338673987176e-16
5.97274407044879e-16
5.76916500930831e-16
5.58224427836765e-16
5.41072442864635e-16
5.2540600682278e-16
5.11093620176667e-16
4.97982715994535e-16
4.85969073368333e-16
4.75090652839017e-16
4.66388999421951e-16
4.73498909186282e-16
6.90897116116588e-16
7.50672685309703e-15
2.33410335787092e-13
6.06299227111183e-11
6.58766081490623e-10
1.68822675859258e-09
1.99766250777912e-09
1.65762269282441e-09
1.27300537541675e-09
9.93264194947121e-10
8.16217614530179e-10
7.1635650844331e-10
6.59349268000272e-10
6.31023497434249e-10
6.17874454117935e-10
6.15687388863141e-10
6.18357445992059e-10
6.22585424096045e-10
6.28545792521022e-10
6.35082851631221e-10
6.41419402270116e-10
6.4703298009128e-10
6.51581225447589e-10
6.54788705357968e-10
6.56603449532947e-10
6.5628528983989e-10
6.54504038585451e-10
6.51322787604279e-10
6.46800930745391e-10
6.41017967916085e-10
6.3406803376327e-10
6.2605542915243e-10
6.1708992999083e-10
6.07283244626663e-10
5.9674657689928e-10
5.85588367245829e-10
5.73912766233833e-10
5.61818333277854e-10
5.49397209589107e-10
5.3673476226948e-10
5.2390930469149e-10
5.10992292462553e-10
4.98048385483124e-10
4.85135630146649e-10
4.72305535832731e-10
4.59602413990613e-10
4.47059704307631e-10
4.34708617872166e-10
4.22581575480415e-10
4.10705510190366e-10
3.99102672264122e-10
3.87790663588726e-10
3.76782884424601e-10
3.66088932964019e-10
3.55715022635678e-10
3.45664396614624e-10
3.35937739773042e-10
3.26533589283845e-10
3.17448687223549e-10
3.08678661471932e-10
3.00218126441157e-10
2.9205903666247e-10
2.84192397540751e-10
2.76610373512076e-10
2.69305092132446e-10
2.62267446899554e-10
2.55488109604074e-10
2.48957569864008e-10
2.42666250956894e-10
2.36604609334706e-10
2.30763232087595e-10
2.25132935498258e-10
2.19704861293762e-10
2.14470401112644e-10
2.09421017298612e-10
2.04546867172809e-10
1.99834027587741e-10
1.95271015793016e-10
1.9085159836688e-10
1.86570135230451e-10
1.82421637786515e-10
1.78401485459224e-10
1.7450543333795e-10
1.70729603006269e-10
1.67070495303296e-10
1.63524981508829e-10
1.6009033191958e-10
1.56763795927341e-10
1.53334813249269e-10
1.49936879253384e-10
1.46615030873086e-10
1.43366780266889e-10
1.40196961304717e-10
1.37111243310879e-10
1.34115221160136e-10
1.30909417514164e-10
1.27547012414688e-10
1.24253640431646e-10
1.21049164940661e-10
1.17557005262926e-10
1.13655183435599e-10
1.09872884324113e-10
1.05194409271896e-10
1.00381251172597e-10
9.40253036169891e-11
8.6140315219232e-11
7.53975525462584e-11
)
;

boundaryField
{
    electrode
    {
        type            zeroGradient;
    }
    ground
    {
        type            zeroGradient;
    }
    otherfaces
    {
        type            empty;
    }
}


// ************************************************************************* //
