/*--------------------------------*- C++ -*----------------------------------*\
| =========                 |                                                 |
| \\      /  F ield         | foam-extend: Open Source CFD                    |
|  \\    /   O peration     | Version:     4.0                                |
|   \\  /    A nd           | Web:         http://www.foam-extend.org         |
|    \\/     M anipulation  |                                                 |
\*---------------------------------------------------------------------------*/
FoamFile
{
    version     2.0;
    format      ascii;
    class       volScalarField;
    location    "7e-07";
    object      Te;
}
// * * * * * * * * * * * * * * * * * * * * * * * * * * * * * * * * * * * * * //

dimensions      [0 0 0 1 0 0 0];

internalField   nonuniform List<scalar> 
300
(
27043.8186837417
27043.8868187298
27043.8606782318
27043.7449785374
27043.5939408253
27043.4051179423
27043.1786201815
27042.9141689122
27042.6115531175
27042.2708724678
27041.8919809854
27041.474762317
27041.0191308156
27040.5249790726
27039.9921935895
27039.4206586252
27038.8102543262
27038.1608567762
27037.4723384498
27036.7445684963
27035.9774130603
27035.1707351892
27034.3243952422
27033.4382510079
27032.51215739
27031.5459670203
27030.5395300589
27029.4926938059
27028.4053032723
27027.2772009759
27026.1082263484
27024.8982162886
27023.64700495
27022.3544231515
27021.0202987829
27019.6444565694
27018.226717725
27016.7669000442
27015.2648178217
27013.7202816035
27012.1330981634
27010.5030705295
27008.829997777
27007.1136750502
27005.3538935772
27003.5504405637
27001.7030993316
26999.8116491272
26997.8758654134
26995.8955197678
26993.8703798246
26991.8002097231
26989.6847697331
26987.5238166848
26985.3171039246
26983.0643813791
26980.7653958324
26978.4198908054
26976.0276068048
26973.588281562
26971.1016498257
26968.5674435396
26965.9853925133
26963.3552235993
26960.6766612465
26957.9494280765
26955.1732439622
26952.347826828
26949.4728926825
26946.5481551245
26943.5733262072
26940.5481159185
26937.4722320192
26934.3453810044
26931.1672670424
26927.9375926538
26924.6560583989
26921.3223627809
26917.9362030727
26914.4972733902
26911.0052666733
26907.459873726
26903.8607822225
26900.207678478
26896.5002457966
26892.7381645551
26888.9211126218
26885.0487649752
26881.1207923817
26877.1368625752
26873.0966399321
26868.9997830516
26864.845947072
26860.6347819852
26856.3659314409
26852.0390338088
26847.6537204013
26843.2096151881
26838.7063345802
26834.1434855083
26829.5206655938
26824.8374624678
26820.0934507785
26815.2881935417
26810.4212396889
26805.4921217886
26800.5003568082
26795.4454423459
26790.3268557857
26785.1440527673
26779.8964636997
26774.5834930008
26769.2045157123
26763.7588742605
26758.2458770878
26752.6647940161
26747.0148530112
26741.2952368932
26735.505079178
26729.6434594782
26723.7093981352
26717.7018529979
26711.6197124467
26705.4617890583
26699.2268153248
26692.9134356336
26686.5201983591
26680.0455498059
26673.4878251277
26666.8452388768
26660.1158772517
26653.2976863241
26646.3884616649
26639.3858387524
26632.2872782285
26625.0900532795
26617.7912376482
26610.3876895382
26602.8760345377
26595.2526503403
26587.5136495934
26579.6548575332
26571.6717933311
26563.5596497287
26555.3132646623
26546.9271007097
26538.3952179296
26529.7112384855
26520.8683257309
26511.8591465702
26502.6758303952
26493.3099433024
26483.7524409541
26473.9936259683
26464.023107305
26453.8297479337
26443.4016189424
26432.7259445954
26421.7890899637
26410.5763958811
26399.072079423
26387.2596309239
26375.121601466
26362.6385570383
26349.7881076767
26336.5481045174
26322.9084938655
26308.8493026812
26294.2950007373
26279.2983124729
26264.1420952962
26248.8727488009
26233.1202735382
26216.5770797604
26199.5139948871
26181.8799616948
26162.5033636419
26140.7782414159
26116.1272059577
26087.4591954799
26054.0271393394
26014.3265548071
25968.3303616186
25917.2722048702
25862.8519872448
25810.2172035446
25768.7260933726
25755.5091342569
25796.0471328441
25929.5415154961
26219.1357285073
26761.5120669144
27725.4309416754
29394.066208522
32235.8367445611
37138.3647858844
45886.4982116254
61425.1487871432
85853.3222495578
122397.371597573
171255.997785125
234724.657411628
306822.278430792
380302.645204079
449001.806261192
509979.170156572
562657.176998879
607542.952341604
645703.76561541
678407.081427547
706641.118039279
731196.093227631
752740.718641196
771830.338881573
788910.197087981
804349.647881296
818435.43704221
831372.195445247
843343.376483857
854515.368996224
865018.105799584
874955.173105017
884410.812755135
893453.959951596
902141.161121624
910518.368789904
918622.576751567
926483.377335484
934123.903584838
941561.813495119
948809.953198985
955876.918592256
962767.658416161
969483.76472265
976023.989009979
982384.494066917
988559.18185683
994540.175793655
1000318.62864761
1005879.27751955
1011207.15229768
1016290.99782909
1021115.67825025
1025665.3810959
1029923.32683065
1033872.09571173
1037493.7332822
1040769.87757869
1043681.8692411
1046210.84434093
1048337.84687806
1050043.71704221
1051309.54696179
1052112.89155385
1052434.72697602
1052269.67860678
1051590.47005705
1050379.86733232
1048619.60204551
1046292.25094091
1043380.5824811
1039867.58346297
1035736.41100128
1030970.34870323
1025552.75858128
1019467.15418976
1012697.12624924
1005227.08594827
997042.928095478
988124.964453251
978455.088706234
968019.301725358
956799.008710972
944775.033606985
931927.00789673
918233.480550607
903671.735513294
888217.641322415
871845.403086306
854527.712519738
836234.749874928
816941.573712016
796614.966407669
775212.445615959
752695.774384644
729017.080854865
704117.832513573
677940.258377589
650421.823979237
621480.365403027
591022.193046432
558946.386567806
525120.098939826
489375.893551665
451522.826630101
411301.530464535
368339.716992938
322152.445525003
272028.455504654
216992.541703891
)
;

boundaryField
{
    electrode
    {
        type            electronTemperature;
        seec            0.05;
        Tse             1000;
        Edepend         1;
        TFN             1000;
        field_emission  0;
        field_enhancement_factor 55;
        work_function   5;
        value           uniform 27043.8186837417;
    }
    ground
    {
        type            electronTemperature;
        seec            0.05;
        Tse             1000;
        Edepend         1;
        TFN             1000;
        field_emission  0;
        field_enhancement_factor 55;
        work_function   5;
        value           uniform 185949.669285074;
    }
    otherfaces
    {
        type            empty;
    }
}


// ************************************************************************* //
