/*--------------------------------*- C++ -*----------------------------------*\
| =========                 |                                                 |
| \\      /  F ield         | foam-extend: Open Source CFD                    |
|  \\    /   O peration     | Version:     4.0                                |
|   \\  /    A nd           | Web:         http://www.foam-extend.org         |
|    \\/     M anipulation  |                                                 |
\*---------------------------------------------------------------------------*/
FoamFile
{
    version     2.0;
    format      ascii;
    class       volScalarField;
    location    "7e-07";
    object      TeMean;
}
// * * * * * * * * * * * * * * * * * * * * * * * * * * * * * * * * * * * * * //

dimensions      [0 0 0 1 0 0 0];

internalField   nonuniform List<scalar> 
300
(
37440.075462348
37440.8087590381
37440.7301145677
37439.934599857
37438.9149422767
37437.6088974293
37436.0349538423
37434.2080491854
37432.1320200194
37429.812402939
37427.2543471704
37424.4628305402
37421.4426369166
37418.1982469248
37414.7339712146
37411.0539344145
37407.162065516
37403.0621404876
37398.7577777383
37394.2524362248
37389.549440496
37384.6519611842
37379.563036568
37374.2855655259
37368.8223036262
37363.1759631806
37357.3491462065
37351.3443199419
37345.1638949483
37338.8101185021
37332.2850624769
37325.590846904
37318.7296171486
37311.7033643782
37304.5139761317
37297.1631991519
37289.6527122054
37281.9842064478
37274.1593053483
37266.1795232054
37258.046283384
37249.7610217489
37241.3251111583
37232.7398347153
37224.0064169863
37215.1260208076
37206.0997421911
37196.9286008218
37187.6135095352
37178.1552729898
37168.5545894047
37158.8121841332
37148.9288846411
37138.9054515929
37128.7426216444
37118.4411609672
37108.0017197368
37097.4248490653
37086.7111176761
37075.8610524148
37064.8751226342
37053.7538218542
37042.4974450447
37031.1061812664
37019.5804351386
37007.9206893579
36996.1273330016
36984.200678073
36972.1409920784
36959.948540501
36947.6235101728
36935.1659270946
36922.5758917769
36909.853542822
36896.9988591494
36884.011680187
36870.8919581119
36857.6398240926
36844.2552346454
36830.7380242811
36817.0882158861
36803.3058317536
36789.390690619
36775.3424725383
36761.1608044843
36746.8454639424
36732.3963345004
36717.8131486737
36703.0955041526
36688.2430375144
36673.2552183806
36658.1314503596
36642.8715066712
36627.4749663801
36611.941246062
36596.2699074532
36580.4603863051
36564.5120826069
36548.4243046643
36532.1963422374
36515.8275965554
36499.3171587667
36482.6640406588
36465.8675147323
36448.9267507278
36431.8407968851
36414.6085981083
36397.2290582413
36379.7011370294
36362.0237070253
36344.1955775479
36326.2154669603
36308.0819412162
36289.7936779758
36271.3491761894
36252.7467182755
36233.9844502447
36215.0606155813
36195.9735503027
36176.7211122114
36157.3009742601
36137.7107919653
36117.948024727
36098.0101368224
36077.8946441431
36057.5987263538
36037.1191398726
36016.4526064087
35995.5957604042
35974.5447718543
35953.2954962038
35931.8436650937
35910.1848006144
35888.3136801146
35866.2245735306
35843.9119552015
35821.3699079178
35798.5916891672
35775.5701689374
35752.2979245056
35728.7669238332
35704.9683201826
35680.8924116712
35656.5285811771
35631.8655466081
35606.8914766639
35581.593674427
35555.9585090006
35529.9706305878
35503.6132077259
35476.8687070378
35449.7178004873
35422.139348971
35394.110950161
35365.6077815153
35336.6026040477
35307.0660330628
35276.9664591247
35246.2697238292
35214.9384894619
35182.9337116248
35150.214804414
35116.7397342694
35082.4714045708
35047.3865378536
35011.4676992142
34974.6776411327
34936.9526466749
34898.2157393518
34858.3684625447
34817.2213131549
34774.4388927913
34729.5940173518
34682.1966041432
34631.575665066
34576.7145300034
34516.404673154
34449.3725968624
34374.1194160984
34289.1836377682
34193.3562170082
34086.0199251465
33967.7955634087
33840.9848450505
33710.7307268098
33586.1099743729
33481.5674495115
33419.4874701899
33433.4390140597
33574.093763578
33919.4217544281
34593.2751457987
35800.6542700502
37916.8249983082
41528.1518178465
47553.3391625986
57932.3465664531
75229.2730448149
102917.582648748
142849.375603533
197485.074862344
265478.774943305
343125.067489575
423171.888799944
498801.261692579
565838.546416922
623113.976035179
671185.782859359
711333.410653312
744997.277732292
773415.008030988
797571.506487377
818249.934575353
836101.122916554
851642.124857484
865285.850695081
877362.325476923
888138.447365904
897826.636116487
906586.892708295
914546.836066595
921823.078626699
928513.734270582
934694.598021581
940427.7507222
945763.818416699
950744.108087646
955402.209107388
959765.256403677
963854.802871877
967687.711611126
971276.915108807
974632.019079268
977759.114076656
980661.573871748
983340.95289447
985796.724343515
988026.659130553
990026.917595993
991792.468114428
993317.305178767
994594.353969711
995615.663500812
996372.506158821
996855.575120662
997055.048312099
996960.682024161
996561.887045645
995847.847317767
994807.548467426
993429.788646623
991703.329687931
989616.883314633
987159.143554423
984319.386616527
981085.891639794
977447.195693116
973391.988837255
968908.992900222
963986.967310012
958614.661941982
952780.769471713
946473.964262365
939682.763343736
932395.65711492
924600.899876809
916286.505535644
907440.218463445
898049.229873228
888100.253389044
877579.757861371
866473.36316215
854765.85047624
842441.094370707
829482.07703636
815870.607720681
801587.389931174
786611.752590189
770921.79749226
754493.986019869
737302.699654458
719320.066559972
700514.248713407
680850.303770054
660289.691000737
638788.961553494
616300.256624302
592770.20445669
568136.337785031
542326.327592019
515257.523337991
486831.589641043
456929.085164293
425406.590913442
392082.406304129
356722.280494207
318992.48538657
278455.844706007
234490.028224934
186224.790886716
)
;

boundaryField
{
    electrode
    {
        type            calculated;
        value           uniform 37440.0754623657;
    }
    ground
    {
        type            calculated;
        value           uniform 158997.17424277;
    }
    otherfaces
    {
        type            empty;
    }
}


// ************************************************************************* //
