/*--------------------------------*- C++ -*----------------------------------*\
| =========                 |                                                 |
| \\      /  F ield         | foam-extend: Open Source CFD                    |
|  \\    /   O peration     | Version:     4.0                                |
|   \\  /    A nd           | Web:         http://www.foam-extend.org         |
|    \\/     M anipulation  |                                                 |
\*---------------------------------------------------------------------------*/
FoamFile
{
    version     2.0;
    format      ascii;
    class       volScalarField;
    location    "8.7e-06";
    object      Ar;
}
// * * * * * * * * * * * * * * * * * * * * * * * * * * * * * * * * * * * * * //

dimensions      [0 0 0 1 0 0 0];

internalField   nonuniform List<scalar> 
300
(
3.218801849145e+22
3.21880184488205e+22
3.21880184786946e+22
3.21880184911994e+22
3.2188018512191e+22
3.21880185412086e+22
3.2188018576506e+22
3.21880186187613e+22
3.21880186678501e+22
3.21880187237378e+22
3.218801878643e+22
3.21880188559148e+22
3.21880189321868e+22
3.21880190152426e+22
3.21880191050799e+22
3.21880192016979e+22
3.21880193050998e+22
3.21880194152853e+22
3.21880195322547e+22
3.21880196560108e+22
3.21880197865568e+22
3.21880199238965e+22
3.21880200680344e+22
3.21880202189756e+22
3.21880203767415e+22
3.21880205413256e+22
3.21880207127358e+22
3.21880208909817e+22
3.2188021076062e+22
3.21880212679844e+22
3.21880214667753e+22
3.21880216724364e+22
3.21880218849633e+22
3.21880221043641e+22
3.21880223306479e+22
3.21880225638241e+22
3.21880228039073e+22
3.21880230509057e+22
3.21880233048274e+22
3.21880235656845e+22
3.2188023833489e+22
3.21880241082517e+22
3.21880243899849e+22
3.21880246787013e+22
3.21880249744141e+22
3.21880252771371e+22
3.21880255868864e+22
3.21880259036778e+22
3.21880262275369e+22
3.21880265584826e+22
3.21880268965455e+22
3.21880272417315e+22
3.2188027594064e+22
3.21880279535438e+22
3.21880283201816e+22
3.21880286939797e+22
3.21880290749538e+22
3.21880294631201e+22
3.2188029858495e+22
3.21880302610976e+22
3.21880306709429e+22
3.21880310880484e+22
3.2188031512437e+22
3.21880319441463e+22
3.21880323831921e+22
3.21880328295687e+22
3.21880332832938e+22
3.21880337443854e+22
3.2188034212862e+22
3.21880346887422e+22
3.21880351720467e+22
3.21880356628026e+22
3.21880361610315e+22
3.21880366667459e+22
3.21880371799792e+22
3.21880377007502e+22
3.21880382290725e+22
3.21880387649699e+22
3.21880393084424e+22
3.21880398595397e+22
3.21880404182472e+22
3.21880409845821e+22
3.21880415585668e+22
3.21880421402183e+22
3.21880427295706e+22
3.21880433266348e+22
3.21880439314182e+22
3.21880445439391e+22
3.21880451642279e+22
3.21880457922954e+22
3.21880464281657e+22
3.21880470719017e+22
3.21880477234662e+22
3.21880483828752e+22
3.21880490501459e+22
3.21880497252957e+22
3.21880504083416e+22
3.2188051099301e+22
3.21880517982012e+22
3.21880525050586e+22
3.21880532198831e+22
3.21880539426892e+22
3.2188054673524e+22
3.21880554123741e+22
3.21880561592636e+22
3.2188056914215e+22
3.21880576772275e+22
3.2188058448343e+22
3.21880592275736e+22
3.21880600148933e+22
3.21880608102959e+22
3.21880616138594e+22
3.21880624256048e+22
3.2188063245554e+22
3.21880640737308e+22
3.21880649101741e+22
3.21880657549236e+22
3.21880666079752e+22
3.21880674693482e+22
3.21880683390705e+22
3.21880692171877e+22
3.21880701037061e+22
3.21880709986734e+22
3.21880719020976e+22
3.21880728139855e+22
3.21880737343571e+22
3.21880746632581e+22
3.21880756006884e+22
3.2188076546676e+22
3.21880775012398e+22
3.21880784644121e+22
3.21880794362134e+22
3.21880804166651e+22
3.21880814058095e+22
3.21880824036991e+22
3.21880834103311e+22
3.21880844257176e+22
3.21880854498994e+22
3.2188086482911e+22
3.21880875247591e+22
3.2188088575475e+22
3.21880896350909e+22
3.21880907036541e+22
3.21880917812116e+22
3.21880928678026e+22
3.21880939634216e+22
3.2188095068097e+22
3.2188096181858e+22
3.21880973047471e+22
3.21880984368231e+22
3.2188099578083e+22
3.21881007285564e+22
3.21881018883119e+22
3.21881030573433e+22
3.21881042356778e+22
3.2188105423325e+22
3.21881066203615e+22
3.21881078266589e+22
3.21881090423754e+22
3.21881102671678e+22
3.21881115015685e+22
3.21881127445177e+22
3.21881139975261e+22
3.21881152578801e+22
3.21881165296013e+22
3.21881178072978e+22
3.21881190819406e+22
3.21881203652406e+22
3.21881216624125e+22
3.21881229674082e+22
3.21881242804054e+22
3.21881255915871e+22
3.21881269087122e+22
3.21881282197015e+22
3.21881295324796e+22
3.2188130867103e+22
3.21881321968011e+22
3.21881334907473e+22
3.21881347949665e+22
3.21881361063825e+22
3.21881373568905e+22
3.21881385950032e+22
3.21881398281389e+22
3.21881409683578e+22
3.21881420949284e+22
3.21881431641447e+22
3.21881441381571e+22
3.21881450635883e+22
3.21881459260007e+22
3.21881466655347e+22
3.21881473469609e+22
3.21881479616525e+22
3.21881484836534e+22
3.2188148897184e+22
3.21881492558652e+22
3.21881495050876e+22
3.21881496875433e+22
3.21881498118441e+22
3.21881499032705e+22
3.21881499734296e+22
3.21881499972295e+22
3.2188149968601e+22
3.2188149929257e+22
3.21881499124186e+22
3.21881499551141e+22
3.21881500359068e+22
3.21881501334758e+22
3.21881502331465e+22
3.21881503208732e+22
3.2188150396017e+22
3.21881504594416e+22
3.21881505127258e+22
3.21881505577064e+22
3.21881506090319e+22
3.21881506653547e+22
3.21881507171383e+22
3.21881507634362e+22
3.21881508059914e+22
3.21881508444345e+22
3.2188150880297e+22
3.21881509128637e+22
3.21881509441285e+22
3.21881509730424e+22
3.21881510008152e+22
3.21881510262295e+22
3.21881510646018e+22
3.21881511027132e+22
3.21881511404554e+22
3.21881511755574e+22
3.21881512105571e+22
3.21881512430109e+22
3.21881512755908e+22
3.21881513056457e+22
3.21881513360017e+22
3.21881513638413e+22
3.21881513921198e+22
3.21881514178614e+22
3.21881514441752e+22
3.21881514679085e+22
3.2188151492331e+22
3.21881515141217e+22
3.21881515399314e+22
3.21881515705985e+22
3.21881516019761e+22
3.21881516307663e+22
3.21881516603278e+22
3.21881516873181e+22
3.2188151715167e+22
3.21881517404415e+22
3.21881517666663e+22
3.21881517903142e+22
3.21881518149903e+22
3.21881518370973e+22
3.2188151860318e+22
3.21881518809561e+22
3.21881519027739e+22
3.21881519219831e+22
3.21881519424535e+22
3.21881519603058e+22
3.21881519794891e+22
3.21881519960458e+22
3.21881520140184e+22
3.21881520293762e+22
3.21881520462094e+22
3.21881520604132e+22
3.21881520828826e+22
3.2188152102444e+22
3.21881521244753e+22
3.21881521429065e+22
3.21881521639469e+22
3.2188152181301e+22
3.21881522014036e+22
3.21881522177384e+22
3.21881522369663e+22
3.21881522523396e+22
3.21881522707547e+22
3.21881522852219e+22
3.21881523028671e+22
3.2188152316463e+22
3.21881523333763e+22
3.21881523461458e+22
3.21881523624103e+22
3.21881523746084e+22
3.2188152390628e+22
3.21881524023421e+22
3.21881524178147e+22
3.21881524288378e+22
3.21881524437437e+22
3.21881524540871e+22
3.21881524688585e+22
3.21881524793092e+22
3.21881524939284e+22
3.21881525037184e+22
3.21881525184915e+22
3.2188152528647e+22
3.21881525434419e+22
3.21881525541756e+22
3.2188152570173e+22
3.21881525843853e+22
3.21881526115993e+22
)
;

boundaryField
{
    electrode
    {
        type            zeroGradient;
    }
    ground
    {
        type            zeroGradient;
    }
    otherfaces
    {
        type            empty;
    }
}


// ************************************************************************* //
