/*--------------------------------*- C++ -*----------------------------------*\
| =========                 |                                                 |
| \\      /  F ield         | foam-extend: Open Source CFD                    |
|  \\    /   O peration     | Version:     4.0                                |
|   \\  /    A nd           | Web:         http://www.foam-extend.org         |
|    \\/     M anipulation  |                                                 |
\*---------------------------------------------------------------------------*/
FoamFile
{
    version     2.0;
    format      ascii;
    class       volScalarField;
    location    "8.7e-06";
    object      Arm;
}
// * * * * * * * * * * * * * * * * * * * * * * * * * * * * * * * * * * * * * //

dimensions      [0 0 0 1 0 0 0];

internalField   nonuniform List<scalar> 
300
(
3.57410715636116e+15
3.57598060706586e+15
3.57792788113782e+15
3.57923416212858e+15
3.58005048593235e+15
3.58042910048126e+15
3.58041420269031e+15
3.58003724420526e+15
3.57932388733914e+15
3.57829611109866e+15
3.57696969798274e+15
3.57535873338511e+15
3.57347527146176e+15
3.57132991531004e+15
3.56893212237157e+15
3.56629043218059e+15
3.56340968166107e+15
3.56029845016215e+15
3.55696507609593e+15
3.55341604176404e+15
3.5496575486186e+15
3.54569551830471e+15
3.5415356407989e+15
3.53718333439664e+15
3.53262800510925e+15
3.52788731278865e+15
3.52296498332945e+15
3.51786305625722e+15
3.5125950870148e+15
3.50716593868037e+15
3.50156193231325e+15
3.49579440871081e+15
3.48988143882567e+15
3.48382842837782e+15
3.47764046363604e+15
3.47132233815308e+15
3.46487424583222e+15
3.45830269226556e+15
3.45161473892746e+15
3.44481392762015e+15
3.43790376523904e+15
3.43088952217633e+15
3.42377508152132e+15
3.41656413478761e+15
3.40926018206068e+15
3.40186648321858e+15
3.39438398799773e+15
3.38681412700284e+15
3.37914916514305e+15
3.3713876605462e+15
3.36351707589536e+15
3.35554983831484e+15
3.34748062877945e+15
3.33932710700824e+15
3.33109743855635e+15
3.32280795559832e+15
3.31446198204917e+15
3.30606243408827e+15
3.29761188048439e+15
3.28911075015922e+15
3.28056334744273e+15
3.27197177754019e+15
3.26333267899016e+15
3.25462815482666e+15
3.2458621826748e+15
3.23706026702867e+15
3.22822454301012e+15
3.21935685039203e+15
3.21045877502968e+15
3.20153167287807e+15
3.19257469105144e+15
3.18358069976424e+15
3.17454816810202e+15
3.16548448844531e+15
3.15637618175354e+15
3.14722429020787e+15
3.13803512921286e+15
3.12880463010391e+15
3.1195526400909e+15
3.11024880410012e+15
3.10092753578591e+15
3.09159100957524e+15
3.08223616009894e+15
3.07286520822708e+15
3.06346340462242e+15
3.05403845821514e+15
3.04460204730213e+15
3.03515449074045e+15
3.02568393440589e+15
3.01619807345325e+15
3.00669084858972e+15
2.9971174511129e+15
2.98753288188353e+15
2.97793887091482e+15
2.96833545005268e+15
2.95872264501735e+15
2.94910023751989e+15
2.93946777684227e+15
2.92981436457798e+15
2.92013993166017e+15
2.91045072122403e+15
2.90074796380821e+15
2.89100005963756e+15
2.88123606090687e+15
2.87144681559343e+15
2.8616230216354e+15
2.85177959863656e+15
2.84189704693555e+15
2.83198572944931e+15
2.82205109366021e+15
2.81209128159022e+15
2.80210399791589e+15
2.79208152139904e+15
2.78202163008549e+15
2.77192207630732e+15
2.76176523293888e+15
2.75153229220433e+15
2.74124793526237e+15
2.73091306163603e+15
2.72051957531076e+15
2.71004118891651e+15
2.69949072231294e+15
2.68883932953581e+15
2.67809733763976e+15
2.66727615167843e+15
2.6563735494657e+15
2.64536154488361e+15
2.63425744360029e+15
2.62305048277015e+15
2.61173858217884e+15
2.60030614308806e+15
2.58874927291661e+15
2.57706293874673e+15
2.56522107255608e+15
2.55318732583358e+15
2.54098043035768e+15
2.52860428474167e+15
2.51603390766209e+15
2.50325047914149e+15
2.49026302704651e+15
2.47705560736108e+15
2.46361153905002e+15
2.44989870442643e+15
2.43588501811742e+15
2.42154593216827e+15
2.40690110766339e+15
2.39193573548782e+15
2.37663342957441e+15
2.36096364546793e+15
2.34487763324973e+15
2.32838764937075e+15
2.31146894512316e+15
2.29405942623787e+15
2.27615776758713e+15
2.25774568745e+15
2.23877352348302e+15
2.21919808900113e+15
2.1990187246025e+15
2.17821627199636e+15
2.15674583302069e+15
2.1345718210631e+15
2.11167906827638e+15
2.08802945207896e+15
2.06363538171863e+15
2.03848383436361e+15
2.01252044643699e+15
1.98576594836831e+15
1.95826483962147e+15
1.93004613808607e+15
1.90115183679217e+15
1.8716504287421e+15
1.84157540654194e+15
1.81101918812895e+15
1.78015318463073e+15
1.74917126142596e+15
1.71824332488113e+15
1.68754857879325e+15
1.65728605735469e+15
1.62769434623771e+15
1.59892915971183e+15
1.57114476529615e+15
1.54448810641339e+15
1.51904071786716e+15
1.49491713823962e+15
1.472117290545e+15
1.4505513531903e+15
1.43025879444296e+15
1.41118923490218e+15
1.39325694045035e+15
1.37638141041587e+15
1.36046919984823e+15
1.34557230028358e+15
1.33218567270228e+15
1.32539577126208e+15
1.35137692113269e+15
1.41734143050891e+15
1.49734932073978e+15
1.56371622842992e+15
1.62470439406336e+15
1.69164808167342e+15
1.76407029984712e+15
1.83713854472031e+15
1.8865854135539e+15
1.88672733164543e+15
1.84624395800052e+15
1.7851280823575e+15
1.72386210491832e+15
1.67318571873442e+15
1.63665130505795e+15
1.61204001968175e+15
1.59587300842528e+15
1.58608494699574e+15
1.57967328059711e+15
1.57649739618722e+15
1.57432991746707e+15
1.57245856215855e+15
1.57119300790353e+15
1.57004060431421e+15
1.56865241835249e+15
1.56682904803218e+15
1.56442520695523e+15
1.56085234271123e+15
1.556181876162e+15
1.55065532535861e+15
1.54434724546252e+15
1.53741535451525e+15
1.52990831058865e+15
1.52186033057587e+15
1.51332539862331e+15
1.50436607197017e+15
1.49502385788439e+15
1.48535641137407e+15
1.4754257728355e+15
1.46527616310423e+15
1.45495360065909e+15
1.44451854625088e+15
1.43399629942654e+15
1.42344374577985e+15
1.41288459880921e+15
1.40236018515024e+15
1.39189786075215e+15
1.38151438970585e+15
1.37124694910318e+15
1.36110188946885e+15
1.35110333893738e+15
1.34128212871846e+15
1.33163751383789e+15
1.32218781121935e+15
1.31294413069275e+15
1.30390534739763e+15
1.29508378861714e+15
1.28647946242457e+15
1.27808718699294e+15
1.26990647245128e+15
1.26194303907236e+15
1.25420293927023e+15
1.24668868109934e+15
1.23938653831544e+15
1.23230446953604e+15
1.22543237025357e+15
1.21877047439494e+15
1.21229678209146e+15
1.20600639113707e+15
1.19990167836878e+15
1.19397916088731e+15
1.18823327142535e+15
1.182654551391e+15
1.17723797861429e+15
1.17197107575943e+15
1.16685768265942e+15
1.16188783992495e+15
1.15706379379458e+15
1.15236914816639e+15
1.14780740729896e+15
1.14336532650516e+15
1.13904028618238e+15
1.13482949519387e+15
1.13073192915618e+15
1.12674856496095e+15
1.12287212618181e+15
1.11910050166245e+15
1.11539248275334e+15
1.11160459800304e+15
1.10768826272914e+15
1.1038255220149e+15
1.10003687985406e+15
1.09633126707066e+15
1.09271232298115e+15
1.08917114056521e+15
1.08530773942856e+15
1.08116073134767e+15
1.07710796157963e+15
1.07315919563688e+15
1.06862566756288e+15
1.06387548978763e+15
1.05904254031821e+15
1.053313043152e+15
1.04706141127796e+15
1.0398274615029e+15
1.03098532909952e+15
)
;

boundaryField
{
    electrode
    {
        type            zeroGradient;
    }
    ground
    {
        type            zeroGradient;
    }
    otherfaces
    {
        type            empty;
    }
}


// ************************************************************************* //
