/*--------------------------------*- C++ -*----------------------------------*\
| =========                 |                                                 |
| \\      /  F ield         | foam-extend: Open Source CFD                    |
|  \\    /   O peration     | Version:     4.0                                |
|   \\  /    A nd           | Web:         http://www.foam-extend.org         |
|    \\/     M anipulation  |                                                 |
\*---------------------------------------------------------------------------*/
FoamFile
{
    version     2.0;
    format      ascii;
    class       volScalarField;
    location    "8.7e-06";
    object      Arp1;
}
// * * * * * * * * * * * * * * * * * * * * * * * * * * * * * * * * * * * * * //

dimensions      [0 0 0 1 0 0 0];

internalField   nonuniform List<scalar> 
300
(
6.74512200049475e+16
6.74938298713502e+16
6.74667461620992e+16
6.7460947693076e+16
6.74503650952612e+16
6.74354315281204e+16
6.74178547123567e+16
6.73969258359286e+16
6.7372746626895e+16
6.73453325870268e+16
6.7314665144367e+16
6.72807452453518e+16
6.72435694493056e+16
6.72031340356829e+16
6.71594354847262e+16
6.71124699658622e+16
6.70622334814239e+16
6.70087218584108e+16
6.69519307415186e+16
6.68918555981871e+16
6.68284917188251e+16
6.67618342186563e+16
6.66918780392711e+16
6.66186179498878e+16
6.65420485493974e+16
6.64621642683141e+16
6.63789593700938e+16
6.62924279536608e+16
6.62025639554549e+16
6.61093611513057e+16
6.60128131587896e+16
6.59129134400067e+16
6.58096553034754e+16
6.57030319068442e+16
6.55930362598979e+16
6.54796612266849e+16
6.53628995286818e+16
6.52427437478828e+16
6.51191863292353e+16
6.49922195841199e+16
6.48618356936863e+16
6.47280267115302e+16
6.45907845674896e+16
6.44501010711154e+16
6.43059679147299e+16
6.41583766774054e+16
6.4007318828755e+16
6.38527857321225e+16
6.36947686488966e+16
6.35332587425314e+16
6.33682470818968e+16
6.31997246459518e+16
6.30276823277996e+16
6.28521109385483e+16
6.267300121182e+16
6.24903438083002e+16
6.23041293197964e+16
6.21143482737607e+16
6.19209911382529e+16
6.17240483258931e+16
6.15235101988993e+16
6.13193670739875e+16
6.1111609226585e+16
6.0900226896015e+16
6.06852102904955e+16
6.04665495915322e+16
6.02442349592526e+16
6.00182565374881e+16
5.9788604458322e+16
5.95552688474597e+16
5.93182398294755e+16
5.90775075324274e+16
5.88330620933016e+16
5.85848936633118e+16
5.83329924125349e+16
5.80773485355164e+16
5.78179522564446e+16
5.7554793834038e+16
5.72878635668306e+16
5.70171517986392e+16
5.67426489233783e+16
5.64643453902073e+16
5.61822317090748e+16
5.58962984554312e+16
5.56065362753842e+16
5.53129358911072e+16
5.50154881054991e+16
5.47141838073144e+16
5.44090139763773e+16
5.40999696881398e+16
5.37870421187396e+16
5.34702225500302e+16
5.31495023741793e+16
5.28248730982018e+16
5.24963263490926e+16
5.21638538781358e+16
5.18274475663652e+16
5.14870994278695e+16
5.11428016115704e+16
5.07945464049242e+16
5.04423262625674e+16
5.00861338187258e+16
4.9725961772591e+16
4.93618027608907e+16
4.89936499237252e+16
4.86214980182702e+16
4.82453409738288e+16
4.78651642172239e+16
4.74809526029716e+16
4.70927346370824e+16
4.67005274747251e+16
4.63042666361324e+16
4.59039510150866e+16
4.54995729573382e+16
4.50911229099639e+16
4.46785914917002e+16
4.42619695372387e+16
4.38412481516659e+16
4.34164187275282e+16
4.29874729492875e+16
4.25544027968976e+16
4.21172005493407e+16
4.16758587884779e+16
4.1230370403998e+16
4.07807285995418e+16
4.03269268995989e+16
3.98689591581363e+16
3.94068195691848e+16
3.89405026788778e+16
3.84700034004454e+16
3.79953170319931e+16
3.75164392774371e+16
3.703336627172e+16
3.65460946109075e+16
3.60546213876641e+16
3.55589442337735e+16
3.50590613707236e+16
3.45549716695814e+16
3.40466747226217e+16
3.35341709284085e+16
3.30174615932464e+16
3.24965490516675e+16
3.19714368117711e+16
3.14421297253135e+16
3.09086341974761e+16
3.03709584283578e+16
2.98291127123233e+16
2.92831098069941e+16
2.87329652796588e+16
2.81786983136147e+16
2.76203314539262e+16
2.70578937551486e+16
2.64914156291082e+16
2.59209442147099e+16
2.53465135711526e+16
2.47682100464852e+16
2.41860503534818e+16
2.36002177712657e+16
2.30106315090885e+16
2.24177430139325e+16
2.18211231334047e+16
2.122192015061e+16
2.06187399720492e+16
2.00143711665917e+16
1.94049067730384e+16
1.87959354858657e+16
1.8196782069796e+16
1.75962347081319e+16
1.69896308855641e+16
1.63834424353676e+16
1.577780430924e+16
1.51828933029405e+16
1.45913011557613e+16
1.40153792115753e+16
1.34473423578818e+16
1.28668721015039e+16
1.22998029510328e+16
1.17755425437225e+16
1.12461239298854e+16
1.07117716673058e+16
1.02367217965432e+16
9.7678028708602e+15
9.29193931869701e+15
8.89049111028153e+15
8.47722291746674e+15
8.08849576619691e+15
7.7547338506868e+15
7.42264912950744e+15
7.10106790375204e+15
6.84578201784831e+15
6.58991295105689e+15
6.34182457111335e+15
6.12872018559988e+15
5.96485444965434e+15
5.77532857615605e+15
5.61368398822563e+15
5.46949597894426e+15
5.36807730778273e+15
5.28191645308183e+15
5.19363744888582e+15
5.13436316867489e+15
5.11694177846069e+15
5.12590658954156e+15
5.15627110105944e+15
5.16342638635538e+15
5.14966307494805e+15
5.11679122199844e+15
5.06967826516641e+15
5.01950275595973e+15
4.96952855851804e+15
4.92258609668381e+15
4.87927232398012e+15
4.84081042632116e+15
4.79272346412163e+15
4.73860382492884e+15
4.68871043980649e+15
4.6436868830182e+15
4.60228686844539e+15
4.56523165321783e+15
4.53119069043903e+15
4.50102563840975e+15
4.47333208259714e+15
4.44908814141887e+15
4.42684280439391e+15
4.40773908165672e+15
4.37630284509109e+15
4.34570460961892e+15
4.31601816271201e+15
4.28946054427735e+15
4.26343131852321e+15
4.24033226781677e+15
4.21743381617788e+15
4.1973247246815e+15
4.17713462975948e+15
4.15963492708254e+15
4.14180958117092e+15
4.12660897306908e+15
4.11086712389802e+15
4.0977127954819e+15
4.08383488835878e+15
4.07252704723449e+15
4.05712141823452e+15
4.03674248630731e+15
4.0155306098824e+15
3.99675948711199e+15
3.97703967191465e+15
3.95971420561003e+15
3.94133484956816e+15
3.92532365852277e+15
3.9081568442016e+15
3.89334929554774e+15
3.87729596924002e+15
3.86359915680682e+15
3.84857667520387e+15
3.83591900175345e+15
3.82185789281721e+15
3.81017900435044e+15
3.79702626140467e+15
3.78627115511613e+15
3.77397452395003e+15
3.76409381821286e+15
3.75260862170927e+15
3.74355436960199e+15
3.7328386233975e+15
3.72456968805097e+15
3.70785803442954e+15
3.69388685229433e+15
3.67728323800093e+15
3.66412964307751e+15
3.6482128789108e+15
3.6358385671482e+15
3.6205695634123e+15
3.60893862422183e+15
3.59428148727334e+15
3.58335890486164e+15
3.56927720264598e+15
3.55902885978063e+15
3.54548905493809e+15
3.53588403341252e+15
3.52285446294163e+15
3.5138635859869e+15
3.50131388053342e+15
3.4929102552343e+15
3.48081328330542e+15
3.47296795494915e+15
3.46128988427282e+15
3.45397818564741e+15
3.44269671175009e+15
3.43589982670546e+15
3.42499686107014e+15
3.41869799304099e+15
3.40813630093946e+15
3.40229951208776e+15
3.39206415633606e+15
3.38666272961261e+15
3.37670433582846e+15
3.37170309582483e+15
3.36195965717467e+15
3.35498226355148e+15
3.33660920696725e+15
)
;

boundaryField
{
    electrode
    {
        type            driftDiffusionPositiveIonDensity;
        seec            0;
        fieldName       Arp1;
        value           uniform 6.72677147709105e+16;
    }
    ground
    {
        type            driftDiffusionPositiveIonDensity;
        seec            0;
        fieldName       Arp1;
        value           uniform 3.33660920696725e+15;
    }
    otherfaces
    {
        type            empty;
    }
}


// ************************************************************************* //
