/*--------------------------------*- C++ -*----------------------------------*\
| =========                 |                                                 |
| \\      /  F ield         | foam-extend: Open Source CFD                    |
|  \\    /   O peration     | Version:     4.0                                |
|   \\  /    A nd           | Web:         http://www.foam-extend.org         |
|    \\/     M anipulation  |                                                 |
\*---------------------------------------------------------------------------*/
FoamFile
{
    version     2.0;
    format      ascii;
    class       volVectorField;
    location    "8.7e-06";
    object      E;
}
// * * * * * * * * * * * * * * * * * * * * * * * * * * * * * * * * * * * * * //

dimensions      [0 0 0 1 0 0 0];

internalField   nonuniform List<vector> 
300
(
(5.44798365587074 -0 -0)
(11.1367038715948 -0 -0)
(19.5945242489892 -0 -0)
(27.4407673417357 -0 -0)
(35.2429795721913 -0 -0)
(43.1132416392481 -0 -0)
(50.976901175282 -0 -0)
(58.8553953032022 -0 -0)
(66.7496450071366 -0 -0)
(74.6599489814822 -0 -0)
(82.5885150185208 -0 -0)
(90.5369176254509 -0 -0)
(98.5068132772225 -0 -0)
(106.499895098642 -0 -0)
(114.517851255992 -0 -0)
(122.562384836934 -0 -0)
(130.635211248451 -0 -0)
(138.738058649836 -0 -0)
(146.87266918917 -0 -0)
(155.040799694469 -0 -0)
(163.244222493865 -0 -0)
(171.484726360639 -0 -0)
(179.764117283484 -0 -0)
(188.084219474029 -0 -0)
(196.446876191139 -0 -0)
(204.853950790114 -0 -0)
(213.30732761782 -0 -0)
(221.808913028479 -0 -0)
(230.360636420396 -0 -0)
(238.964451285131 -0 -0)
(247.622336314893 -0 -0)
(256.33629647243 -0 -0)
(265.108364211367 -0 -0)
(273.94060061195 -0 -0)
(282.835096630739 -0 -0)
(291.793974349671 -0 -0)
(300.819388340842 -0 -0)
(309.913526982889 -0 -0)
(319.07861385575 -0 -0)
(328.316909217785 -0 -0)
(337.630711517921 -0 -0)
(347.022358923624 -0 -0)
(356.494230985306 -0 -0)
(366.048750273446 -0 -0)
(375.688384139685 -0 -0)
(385.415646551908 -0 -0)
(395.233099939527 -0 -0)
(405.143357171162 -0 -0)
(415.149083614383 -0 -0)
(425.25299920179 -0 -0)
(435.457880704249 -0 -0)
(445.766563969594 -0 -0)
(456.181946342691 -0 -0)
(466.706989209245 -0 -0)
(477.344720542552 -0 -0)
(488.098237652517 -0 -0)
(498.970710000095 -0 -0)
(509.96538222275 -0 -0)
(521.085577154142 -0 -0)
(532.334699134048 -0 -0)
(543.716237362599 -0 -0)
(555.233769469642 -0 -0)
(566.890965186869 -0 -0)
(578.691590255643 -0 -0)
(590.639510508631 -0 -0)
(602.738696099728 -0 -0)
(614.993226003073 -0 -0)
(627.407292689992 -0 -0)
(639.985207050224 -0 -0)
(652.731403536005 -0 -0)
(665.650445596945 -0 -0)
(678.747031363022 -0 -0)
(692.025999654634 -0 -0)
(705.492336216942 -0 -0)
(719.151180397854 -0 -0)
(733.007832057277 -0 -0)
(747.067758929826 -0 -0)
(761.336604331102 -0 -0)
(775.820195253538 -0 -0)
(790.524551019637 -0 -0)
(805.455892241658 -0 -0)
(820.620650424181 -0 -0)
(836.025477987502 -0 -0)
(851.677258921573 -0 -0)
(867.583120028965 -0 -0)
(883.750442834214 -0 -0)
(900.186876119746 -0 -0)
(916.900349258543 -0 -0)
(933.899086288748 -0 -0)
(951.191620864137 -0 -0)
(968.78681208483 -0 -0)
(986.693861311314 -0 -0)
(1004.92232995446 -0 -0)
(1023.4821584577 -0 -0)
(1042.38368640437 -0 -0)
(1061.63767392985 -0 -0)
(1081.25532461712 -0 -0)
(1101.24830968011 -0 -0)
(1121.62879344357 -0 -0)
(1142.40946076383 -0 -0)
(1163.60354899791 -0 -0)
(1185.22488201807 -0 -0)
(1207.2878916623 -0 -0)
(1229.80763080624 -0 -0)
(1252.79986300393 -0 -0)
(1276.28126389013 -0 -0)
(1300.26928401421 -0 -0)
(1324.78118485281 -0 -0)
(1349.83442919025 -0 -0)
(1375.45198818478 -0 -0)
(1401.66440196223 -0 -0)
(1428.50046904331 -0 -0)
(1455.98423939822 -0 -0)
(1484.14023472974 -0 -0)
(1512.99442449641 -0 -0)
(1542.57418242235 -0 -0)
(1572.90838558466 -0 -0)
(1604.02752120301 -0 -0)
(1635.96379990744 -0 -0)
(1668.75127913124 -0 -0)
(1702.4259974451 -0 -0)
(1737.02612065278 -0 -0)
(1772.59210111399 -0 -0)
(1809.16685170473 -0 -0)
(1846.79593579447 -0 -0)
(1885.5277752932 -0 -0)
(1925.41387860917 -0 -0)
(1966.50909080849 -0 -0)
(2008.87186866137 -0 -0)
(2052.56458331188 -0 -0)
(2097.65385400753 -0 -0)
(2144.21091664242 -0 -0)
(2192.31203136298 -0 -0)
(2242.03893413276 -0 -0)
(2293.47933797 -0 -0)
(2346.72749020327 -0 -0)
(2401.88479314431 -0 -0)
(2459.06049689159 -0 -0)
(2518.37247391723 -0 -0)
(2579.94808698318 -0 -0)
(2643.92516371193 -0 -0)
(2710.45309308578 -0 -0)
(2779.69406212663 -0 -0)
(2851.82445353309 -0 -0)
(2927.03642937208 -0 -0)
(3005.53972944007 -0 -0)
(3087.5637190456 -0 -0)
(3173.35972678969 -0 -0)
(3263.20371756501 -0 -0)
(3357.39937011057 -0 -0)
(3456.28158742488 -0 -0)
(3560.22063830655 -0 -0)
(3669.62671038868 -0 -0)
(3784.95578136112 -0 -0)
(3906.71516872839 -0 -0)
(4035.47259782324 -0 -0)
(4171.86192839432 -0 -0)
(4316.599005042 -0 -0)
(4470.48324286649 -0 -0)
(4634.4315878707 -0 -0)
(4809.46066388946 -0 -0)
(4996.76646048881 -0 -0)
(5197.6544909618 -0 -0)
(5413.73616836119 -0 -0)
(5646.69971034527 -0 -0)
(5899.18890482649 -0 -0)
(6176.68009923481 -0 -0)
(6484.60188951505 -0 -0)
(6825.86868418003 -0 -0)
(7203.69015815153 -0 -0)
(7623.22031636677 -0 -0)
(8092.29292729571 -0 -0)
(8620.17583956285 -0 -0)
(9217.73871168745 -0 -0)
(9896.30590359456 -0 -0)
(10661.9321586529 -0 -0)
(11522.3334284582 -0 -0)
(12496.0010838933 -0 -0)
(13597.117210701 -0 -0)
(14829.4692804958 -0 -0)
(16208.2478293458 -0 -0)
(17748.8249268826 -0 -0)
(19450.3825467499 -0 -0)
(21323.0554913021 -0 -0)
(23372.0127735992 -0 -0)
(25587.2496970412 -0 -0)
(27969.694339759 -0 -0)
(30510.8079090862 -0 -0)
(33186.8955753276 -0 -0)
(35987.8497486436 -0 -0)
(38898.8503144909 -0 -0)
(41888.1921849895 -0 -0)
(44934.3881038959 -0 -0)
(48028.8783811951 -0 -0)
(51149.4411326637 -0 -0)
(54270.4103922648 -0 -0)
(57380.8778876838 -0 -0)
(60480.4379507224 -0 -0)
(63569.2552623119 -0 -0)
(66644.5349453335 -0 -0)
(69701.3712775977 -0 -0)
(72747.4612304827 -0 -0)
(75808.0354819265 -0 -0)
(78892.7268692358 -0 -0)
(81993.5052188733 -0 -0)
(85096.4976269917 -0 -0)
(88188.2996960182 -0 -0)
(91257.7956863899 -0 -0)
(94298.953865919 -0 -0)
(97310.3685339476 -0 -0)
(100292.763960793 -0 -0)
(103248.047105587 -0 -0)
(106178.729257419 -0 -0)
(109083.345583901 -0 -0)
(111957.159046647 -0 -0)
(114799.617262643 -0 -0)
(117613.45875889 -0 -0)
(120401.243130567 -0 -0)
(123165.366979864 -0 -0)
(125908.0461242 -0 -0)
(128631.361685559 -0 -0)
(131337.226651095 -0 -0)
(134027.426343115 -0 -0)
(136703.605927101 -0 -0)
(139367.316727829 -0 -0)
(142015.787554232 -0 -0)
(144645.552951066 -0 -0)
(147257.141594211 -0 -0)
(149851.773099532 -0 -0)
(152430.551418037 -0 -0)
(154994.520529471 -0 -0)
(157544.625490607 -0 -0)
(160081.768809947 -0 -0)
(162606.767994641 -0 -0)
(165120.410619325 -0 -0)
(167623.41040046 -0 -0)
(170116.461188755 -0 -0)
(172600.191668335 -0 -0)
(175075.219309989 -0 -0)
(177542.106592292 -0 -0)
(180001.410436276 -0 -0)
(182452.670212958 -0 -0)
(184893.150385186 -0 -0)
(187321.099867758 -0 -0)
(189737.00349973 -0 -0)
(192141.311186756 -0 -0)
(194534.45880124 -0 -0)
(196916.850453889 -0 -0)
(199288.882330421 -0 -0)
(201650.919908734 -0 -0)
(204003.325958932 -0 -0)
(206346.436046172 -0 -0)
(208680.584886795 -0 -0)
(211006.083102117 -0 -0)
(213323.243745385 -0 -0)
(215632.356654059 -0 -0)
(217933.716474463 -0 -0)
(220227.596878242 -0 -0)
(222514.276406769 -0 -0)
(224794.012762104 -0 -0)
(227067.069425723 -0 -0)
(229333.69082171 -0 -0)
(231594.125921971 -0 -0)
(233848.606511236 -0 -0)
(236097.369462604 -0 -0)
(238338.60561395 -0 -0)
(240570.595006416 -0 -0)
(242793.370604888 -0 -0)
(245007.17841887 -0 -0)
(247212.225374842 -0 -0)
(249408.74622789 -0 -0)
(251596.936127373 -0 -0)
(253777.019113807 -0 -0)
(255949.179458126 -0 -0)
(258113.630604966 -0 -0)
(260270.545964141 -0 -0)
(262420.128686941 -0 -0)
(264562.542040481 -0 -0)
(266697.979876693 -0 -0)
(268826.595920645 -0 -0)
(270948.575232099 -0 -0)
(273064.062400179 -0 -0)
(275173.234355297 -0 -0)
(277276.227465543 -0 -0)
(279373.21002453 -0 -0)
(281464.308222782 -0 -0)
(283549.682835489 -0 -0)
(285629.453446923 -0 -0)
(287703.775127082 -0 -0)
(289772.761842495 -0 -0)
(291836.563785654 -0 -0)
(293895.283653031 -0 -0)
(295949.060633251 -0 -0)
(297997.993089134 -0 -0)
(300042.212017387 -0 -0)
(302081.800614199 -0 -0)
(304116.878791227 -0 -0)
(306147.510667302 -0 -0)
(308173.108629063 -0 -0)
(310191.05991003 -0 -0)
)
;

boundaryField
{
    electrode
    {
        type            calculated;
        value           uniform (4.23142668296351 -0 -0);
    }
    ground
    {
        type            calculated;
        value           uniform (311197.260079729 -0 -0);
    }
    otherfaces
    {
        type            empty;
    }
}


// ************************************************************************* //
