/*--------------------------------*- C++ -*----------------------------------*\
| =========                 |                                                 |
| \\      /  F ield         | foam-extend: Open Source CFD                    |
|  \\    /   O peration     | Version:     4.0                                |
|   \\  /    A nd           | Web:         http://www.foam-extend.org         |
|    \\/     M anipulation  |                                                 |
\*---------------------------------------------------------------------------*/
FoamFile
{
    version     2.0;
    format      ascii;
    class       volScalarField;
    location    "8.7e-06";
    object      electron;
}
// * * * * * * * * * * * * * * * * * * * * * * * * * * * * * * * * * * * * * //

dimensions      [0 0 0 1 0 0 0];

internalField   nonuniform List<scalar> 
300
(
6.74627974614298e+16
6.74609435733837e+16
6.74562059366889e+16
6.74481932693233e+16
6.74369678773299e+16
6.7422505212851e+16
6.7404799428147e+16
6.73838499316517e+16
6.73596535395044e+16
6.73322075533463e+16
6.73015090982223e+16
6.72675550651058e+16
6.72303421776597e+16
6.71898669717939e+16
6.71461257981042e+16
6.70991148237837e+16
6.70488300330459e+16
6.69952672282764e+16
6.69384220311764e+16
6.68782898839784e+16
6.68148660507744e+16
6.67481456189224e+16
6.66781235005484e+16
6.66047944341386e+16
6.65281529862204e+16
6.64481935531336e+16
6.63649103628866e+16
6.6278297477112e+16
6.61883487931077e+16
6.60950580459651e+16
6.59984188107857e+16
6.58984245049896e+16
6.57950683907099e+16
6.56883435772736e+16
6.55782430237739e+16
6.54647595417306e+16
6.53478857978303e+16
6.52276143167506e+16
6.51039374840771e+16
6.49768475493015e+16
6.48463366288984e+16
6.47123967094881e+16
6.45750196510794e+16
6.44341971903905e+16
6.42899209442544e+16
6.41421824130941e+16
6.39909729844762e+16
6.38362839367427e+16
6.36781064427082e+16
6.35164315734334e+16
6.33512503020659e+16
6.31825535077473e+16
6.30103319795919e+16
6.28345764207178e+16
6.26552774523411e+16
6.24724256179331e+16
6.22860113874325e+16
6.2096025161506e+16
6.19024572758615e+16
6.1705298005611e+16
6.15045375696709e+16
6.13001661352052e+16
6.10921738221083e+16
6.08805507075224e+16
6.06652868303799e+16
6.04463721959757e+16
6.02237967805608e+16
5.99975505359513e+16
5.97676233941521e+16
5.95340052719906e+16
5.92966860757548e+16
5.90556557058295e+16
5.88109040613245e+16
5.8562421044694e+16
5.83101965663395e+16
5.80542205491871e+16
5.77944829332387e+16
5.75309736800858e+16
5.72636827773872e+16
5.69926002432928e+16
5.67177161308127e+16
5.64390205321258e+16
5.61565035828162e+16
5.58701554660363e+16
5.557996641658e+16
5.52859267248579e+16
5.49880267407697e+16
5.46862568774651e+16
5.43806076149783e+16
5.40710695037305e+16
5.37576331678833e+16
5.34402893085331e+16
5.31190287067399e+16
5.2793842226371e+16
5.2464720816745e+16
5.21316555150665e+16
5.17946374486185e+16
5.14536578367088e+16
5.11087079924014e+16
5.07597793240087e+16
5.04068633360186e+16
5.00499516292112e+16
4.96890359015162e+16
4.93241079519012e+16
4.89551596803342e+16
4.85821830664898e+16
4.82051701535334e+16
4.78241131469704e+16
4.74390045484005e+16
4.70498366354134e+16
4.66566001414703e+16
4.62592838553605e+16
4.58578757087384e+16
4.54523636018056e+16
4.50427355356998e+16
4.46289796329338e+16
4.42110841345941e+16
4.37890373897985e+16
4.33628278426232e+16
4.29324440175362e+16
4.24978745034779e+16
4.2059107936551e+16
4.1616132981229e+16
4.11689383099512e+16
4.07175125809747e+16
4.0261844414337e+16
3.98019223657507e+16
3.93377348982555e+16
3.8869270351417e+16
3.83965169078465e+16
3.79194625568007e+16
3.74380950545817e+16
3.69524018814365e+16
3.6462370194629e+16
3.59679867773198e+16
3.54692379828495e+16
3.49661096739947e+16
3.44585871567112e+16
3.39466551078338e+16
3.34302974961687e+16
3.29094974963442e+16
3.23842373947448e+16
3.18544984867944e+16
3.13202609648085e+16
3.07815037955763e+16
3.02382045867961e+16
2.96903394414754e+16
2.91378827992855e+16
2.85808072642883e+16
2.80190834173091e+16
2.74526796146131e+16
2.68815617664719e+16
2.63056931094027e+16
2.57250339427609e+16
2.51395413887266e+16
2.45491690735811e+16
2.39538669175096e+16
2.33535807125718e+16
2.27482520883311e+16
2.2137817820973e+16
2.15222102440977e+16
2.0901355940496e+16
2.02751765912969e+16
1.96435846057885e+16
1.90064786161759e+16
1.83637159440561e+16
1.77149803155102e+16
1.70597279766611e+16
1.63973778228456e+16
1.57274640901269e+16
1.50496056683212e+16
1.43634093300385e+16
1.36684318027663e+16
1.29642297335067e+16
1.22504697024213e+16
1.1527243650942e+16
1.07953086368309e+16
1.00558844502196e+16
9.31067468605829e+15
8.56237502491903e+15
7.8147001042589e+15
7.0721616512178e+15
6.34033542269936e+15
5.62568659208239e+15
4.93518218464201e+15
4.27625698762021e+15
3.65629702189798e+15
3.08201785837398e+15
2.55911672512116e+15
2.09174191898983e+15
1.68209481953918e+15
1.33038647302899e+15
1.03487465500754e+15
791998063815290
596860240230418
443316746544797
325040169271262
235790357469339
169536140892997
120712014109159
83763843869787.8
56745225814708.5
37677497454400.7
24009344649392.3
14641796456952.5
8728208599673.94
5297049661682.99
3415645562615.7
2398871206564.81
1840557751073.07
1525388682533.58
1342995052836.94
1235944520214.02
1173300218411.91
1137676835817.25
1118746633656.73
1110008147743.71
1107212971482.32
1107515569553.96
1109377038426.98
1111555948805.51
1113150447229.86
1113668845786.67
1112796335599.95
1110289992416.99
1106036615670.33
1100002225433.09
1092209682277.25
1082721321183.34
1071627713594.55
1059039171895.51
1045079232887.23
1029879535545.51
1013575773046.41
996304492118.396
978200532259.158
959395080902.783
940013477545.823
920174518495.389
899976573607.492
879513743349.59
858887406186.73
838191199361.91
817511962835.03
796928127454.206
776509503041.875
756317533022.074
736405690618.347
716819942527.909
697599248332.903
678776079211.574
660376954929.639
642423001040.568
624930716517.936
607912172568.229
591377251121.425
575329385825.737
559765258447.183
544683919144.94
530083522780.204
515957988690.764
502299626329.008
489099295079.548
476347029470.056
464032138876.77
452143523782.628
440669978908.109
429600095092.206
418922155157.524
408624257835.073
398693822856.739
389117753854.576
379870608639.016
370928701375.963
362282083159.813
353921789286.484
345840115441.156
338029905078.607
330484629004.662
323198423577.023
316166146313.285
309383484025.145
302846230869.16
296550156174.023
290473442244.087
284584490937.735
278877556334.157
273367031945.594
268069731183.11
263003552013.117
258134885898.095
253444124633.581
248986165830.316
244788990196.854
240873405078.595
237330826677.774
234295739982.427
232044077850.741
231080162626.058
232240173952.341
)
;

boundaryField
{
    electrode
    {
        type            driftDiffusionElectronDensity;
        seec            0.05;
        Edepend         1;
        field_emission  0;
        field_enhancement_factor 55;
        work_function   5;
        value           uniform 6.74627974614298e+16;
    }
    ground
    {
        type            driftDiffusionElectronDensity;
        seec            0.05;
        Edepend         1;
        field_emission  0;
        field_enhancement_factor 55;
        work_function   5;
        value           uniform 234487148681.604;
    }
    otherfaces
    {
        type            empty;
    }
}


// ************************************************************************* //
