/*--------------------------------*- C++ -*----------------------------------*\
| =========                 |                                                 |
| \\      /  F ield         | foam-extend: Open Source CFD                    |
|  \\    /   O peration     | Version:     4.0                                |
|   \\  /    A nd           | Web:         http://www.foam-extend.org         |
|    \\/     M anipulation  |                                                 |
\*---------------------------------------------------------------------------*/
FoamFile
{
    version     2.0;
    format      ascii;
    class       volVectorField;
    location    "8.7e-06";
    object      J_Arp1;
}
// * * * * * * * * * * * * * * * * * * * * * * * * * * * * * * * * * * * * * //

dimensions      [1 -1 -1 0 0 0 0];

internalField   nonuniform List<vector> 
300
(
(2.10507517057933e+16 -0 -0)
(7.49593426924239e+16 -0 -0)
(1.33448444577952e+17 -0 -0)
(1.85639526939537e+17 -0 -0)
(2.38517172986639e+17 -0 -0)
(2.9171634375498e+17 -0 -0)
(3.44776848352313e+17 -0 -0)
(3.97894712120328e+17 -0 -0)
(4.51040657257245e+17 -0 -0)
(5.04213581834515e+17 -0 -0)
(5.57420827697112e+17 -0 -0)
(6.10664384833801e+17 -0 -0)
(6.63947449906776e+17 -0 -0)
(7.17273197544183e+17 -0 -0)
(7.70644678845542e+17 -0 -0)
(8.24064956263875e+17 -0 -0)
(8.77537061303495e+17 -0 -0)
(9.31063996355147e+17 -0 -0)
(9.84648735411983e+17 -0 -0)
(1.03829422140822e+18 -0 -0)
(1.09200336463804e+18 -0 -0)
(1.14577904171883e+18 -0 -0)
(1.19962409332516e+18 -0 -0)
(1.25354132330294e+18 -0 -0)
(1.30753349642015e+18 -0 -0)
(1.36160333749631e+18 -0 -0)
(1.41575352927813e+18 -0 -0)
(1.46998671094974e+18 -0 -0)
(1.52430547663451e+18 -0 -0)
(1.57871237373707e+18 -0 -0)
(1.6332099014446e+18 -0 -0)
(1.68780050882654e+18 -0 -0)
(1.74248659365015e+18 -0 -0)
(1.79727050037454e+18 -0 -0)
(1.85215451870883e+18 -0 -0)
(1.90714088184717e+18 -0 -0)
(1.96223176517076e+18 -0 -0)
(2.0174292844077e+18 -0 -0)
(2.0727354939313e+18 -0 -0)
(2.12815238527873e+18 -0 -0)
(2.18368188561933e+18 -0 -0)
(2.23932585590205e+18 -0 -0)
(2.29508608952933e+18 -0 -0)
(2.35096431051825e+18 -0 -0)
(2.40696217198331e+18 -0 -0)
(2.46308125468534e+18 -0 -0)
(2.51932306525239e+18 -0 -0)
(2.57568903469644e+18 -0 -0)
(2.63218051698539e+18 -0 -0)
(2.68879878720091e+18 -0 -0)
(2.74554504036401e+18 -0 -0)
(2.80242038953022e+18 -0 -0)
(2.85942586445672e+18 -0 -0)
(2.91656241035224e+18 -0 -0)
(2.97383088601016e+18 -0 -0)
(3.03123206255147e+18 -0 -0)
(3.0887666218085e+18 -0 -0)
(3.14643515522684e+18 -0 -0)
(3.20423816201518e+18 -0 -0)
(3.26217604814987e+18 -0 -0)
(3.32024912478483e+18 -0 -0)
(3.3784576070985e+18 -0 -0)
(3.43680161270531e+18 -0 -0)
(3.49528116048849e+18 -0 -0)
(3.55389616944057e+18 -0 -0)
(3.61264645717164e+18 -0 -0)
(3.67153173885453e+18 -0 -0)
(3.73055162599935e+18 -0 -0)
(3.78970562525899e+18 -0 -0)
(3.84899313716949e+18 -0 -0)
(3.9084134551543e+18 -0 -0)
(3.96796576432699e+18 -0 -0)
(4.02764914056575e+18 -0 -0)
(4.08746254918603e+18 -0 -0)
(4.14740484422227e+18 -0 -0)
(4.20747476713615e+18 -0 -0)
(4.26767094605907e+18 -0 -0)
(4.32799189473997e+18 -0 -0)
(4.38843601139014e+18 -0 -0)
(4.44900157825301e+18 -0 -0)
(4.50968676023728e+18 -0 -0)
(4.57048960435097e+18 -0 -0)
(4.63140803862121e+18 -0 -0)
(4.69243987131807e+18 -0 -0)
(4.75358279010481e+18 -0 -0)
(4.81483436138776e+18 -0 -0)
(4.87619202927989e+18 -0 -0)
(4.93765311491508e+18 -0 -0)
(4.99921481559171e+18 -0 -0)
(5.06087420403777e+18 -0 -0)
(5.12262822759938e+18 -0 -0)
(5.18447370756944e+18 -0 -0)
(5.24640733818664e+18 -0 -0)
(5.30842568601931e+18 -0 -0)
(5.37052518910303e+18 -0 -0)
(5.43270215610954e+18 -0 -0)
(5.49495276621561e+18 -0 -0)
(5.55727306788205e+18 -0 -0)
(5.61965897586528e+18 -0 -0)
(5.68210626856338e+18 -0 -0)
(5.74461060178839e+18 -0 -0)
(5.80716752631546e+18 -0 -0)
(5.86977242055213e+18 -0 -0)
(5.93242034203817e+18 -0 -0)
(5.99510628855205e+18 -0 -0)
(6.05782618261475e+18 -0 -0)
(6.12057604748947e+18 -0 -0)
(6.18334606017975e+18 -0 -0)
(6.24612125795421e+18 -0 -0)
(6.30891315688929e+18 -0 -0)
(6.37176491467877e+18 -0 -0)
(6.43469189325086e+18 -0 -0)
(6.4976884030513e+18 -0 -0)
(6.56074685339799e+18 -0 -0)
(6.62385955994687e+18 -0 -0)
(6.68701861414116e+18 -0 -0)
(6.75021597170354e+18 -0 -0)
(6.8134434661462e+18 -0 -0)
(6.87669280750527e+18 -0 -0)
(6.93995557901519e+18 -0 -0)
(7.00322323342193e+18 -0 -0)
(7.06648708823032e+18 -0 -0)
(7.12973832075796e+18 -0 -0)
(7.19296796308425e+18 -0 -0)
(7.25616689613311e+18 -0 -0)
(7.31932584378776e+18 -0 -0)
(7.38243536646659e+18 -0 -0)
(7.44548585428882e+18 -0 -0)
(7.508467520034e+18 -0 -0)
(7.57137039142576e+18 -0 -0)
(7.63418430312681e+18 -0 -0)
(7.69689888829193e+18 -0 -0)
(7.75950356958895e+18 -0 -0)
(7.82198754964206e+18 -0 -0)
(7.88433980107688e+18 -0 -0)
(7.94654905590591e+18 -0 -0)
(8.00860379417068e+18 -0 -0)
(8.07049223223756e+18 -0 -0)
(8.1322023101471e+18 -0 -0)
(8.19372167825313e+18 -0 -0)
(8.2550376833223e+18 -0 -0)
(8.31613735334357e+18 -0 -0)
(8.3770073823429e+18 -0 -0)
(8.43763411280531e+18 -0 -0)
(8.4980035194993e+18 -0 -0)
(8.55810118918493e+18 -0 -0)
(8.61791230157772e+18 -0 -0)
(8.67742161686212e+18 -0 -0)
(8.73661341471355e+18 -0 -0)
(8.79547160670383e+18 -0 -0)
(8.85397931219855e+18 -0 -0)
(8.91211992819017e+18 -0 -0)
(8.96987433041621e+18 -0 -0)
(9.02722736628343e+18 -0 -0)
(9.08415361820742e+18 -0 -0)
(9.14064644670057e+18 -0 -0)
(9.19666108040641e+18 -0 -0)
(9.25222338794107e+18 -0 -0)
(9.30722415518055e+18 -0 -0)
(9.36180247851453e+18 -0 -0)
(9.41564909842448e+18 -0 -0)
(9.46923157238299e+18 -0 -0)
(9.52170329032997e+18 -0 -0)
(9.57440457520454e+18 -0 -0)
(9.62508716700935e+18 -0 -0)
(9.67662809759887e+18 -0 -0)
(9.72732903780691e+18 -0 -0)
(9.77688658139105e+18 -0 -0)
(9.82581391397805e+18 -0 -0)
(9.87463332057743e+18 -0 -0)
(9.92163328972969e+18 -0 -0)
(9.97007353660261e+18 -0 -0)
(1.00145211134121e+19 -0 -0)
(1.00627581449459e+19 -0 -0)
(1.01055676038154e+19 -0 -0)
(1.01494774349915e+19 -0 -0)
(1.01914242289249e+19 -0 -0)
(1.02374720486924e+19 -0 -0)
(1.02724466802829e+19 -0 -0)
(1.03135086121408e+19 -0 -0)
(1.03547990041822e+19 -0 -0)
(1.03869326434894e+19 -0 -0)
(1.04208107596916e+19 -0 -0)
(1.04609173519274e+19 -0 -0)
(1.04814143646559e+19 -0 -0)
(1.05198538947312e+19 -0 -0)
(1.05424708536705e+19 -0 -0)
(1.05712549765386e+19 -0 -0)
(1.05906401066089e+19 -0 -0)
(1.0623882737068e+19 -0 -0)
(1.06357190916537e+19 -0 -0)
(1.0667611179046e+19 -0 -0)
(1.06841039964209e+19 -0 -0)
(1.07196239847899e+19 -0 -0)
(1.07348247048325e+19 -0 -0)
(1.07811299968558e+19 -0 -0)
(1.08084960687196e+19 -0 -0)
(1.08742714744032e+19 -0 -0)
(1.09306300444952e+19 -0 -0)
(1.10452920347967e+19 -0 -0)
(1.11927968480519e+19 -0 -0)
(1.14068577957804e+19 -0 -0)
(1.16609773834243e+19 -0 -0)
(1.19478094306681e+19 -0 -0)
(1.21635641566632e+19 -0 -0)
(1.23787278847061e+19 -0 -0)
(1.25510485089576e+19 -0 -0)
(1.26690789027362e+19 -0 -0)
(1.27595904051799e+19 -0 -0)
(1.28314351202868e+19 -0 -0)
(1.28929407782906e+19 -0 -0)
(1.29469143259366e+19 -0 -0)
(1.29979790844719e+19 -0 -0)
(1.30446119726036e+19 -0 -0)
(1.30920919959369e+19 -0 -0)
(1.31375214226367e+19 -0 -0)
(1.31840334880834e+19 -0 -0)
(1.32292040188555e+19 -0 -0)
(1.32760620479216e+19 -0 -0)
(1.3321611583566e+19 -0 -0)
(1.3369126973775e+19 -0 -0)
(1.34151191224447e+19 -0 -0)
(1.34630907936332e+19 -0 -0)
(1.35091802520341e+19 -0 -0)
(1.35574318432755e+19 -0 -0)
(1.36026778552948e+19 -0 -0)
(1.36513274324549e+19 -0 -0)
(1.36960401829485e+19 -0 -0)
(1.37442685262873e+19 -0 -0)
(1.37881031804378e+19 -0 -0)
(1.38356266080607e+19 -0 -0)
(1.38782840888953e+19 -0 -0)
(1.39248466837139e+19 -0 -0)
(1.39660871418306e+19 -0 -0)
(1.40114741902492e+19 -0 -0)
(1.40510988268703e+19 -0 -0)
(1.40951334367515e+19 -0 -0)
(1.41329778239894e+19 -0 -0)
(1.41755200104923e+19 -0 -0)
(1.42114897583531e+19 -0 -0)
(1.42524791590825e+19 -0 -0)
(1.42864801799347e+19 -0 -0)
(1.43256948100576e+19 -0 -0)
(1.43581248517942e+19 -0 -0)
(1.43956448418554e+19 -0 -0)
(1.44262366162919e+19 -0 -0)
(1.44621212977512e+19 -0 -0)
(1.44908754118743e+19 -0 -0)
(1.45251603063713e+19 -0 -0)
(1.45520908121527e+19 -0 -0)
(1.45848216763095e+19 -0 -0)
(1.46099887478599e+19 -0 -0)
(1.46412221439048e+19 -0 -0)
(1.46646969702929e+19 -0 -0)
(1.4694523266802e+19 -0 -0)
(1.4716384272689e+19 -0 -0)
(1.47448973063007e+19 -0 -0)
(1.47652495071202e+19 -0 -0)
(1.47925295699324e+19 -0 -0)
(1.4811448909084e+19 -0 -0)
(1.48375673017372e+19 -0 -0)
(1.48551305109254e+19 -0 -0)
(1.48801365235435e+19 -0 -0)
(1.48964050343384e+19 -0 -0)
(1.49203941321464e+19 -0 -0)
(1.49344986417343e+19 -0 -0)
(1.49593005783439e+19 -0 -0)
(1.4971363684655e+19 -0 -0)
(1.4995456020861e+19 -0 -0)
(1.50062736323175e+19 -0 -0)
(1.50297490005609e+19 -0 -0)
(1.50393912398074e+19 -0 -0)
(1.50623274866654e+19 -0 -0)
(1.5070858206722e+19 -0 -0)
(1.50933180537473e+19 -0 -0)
(1.51007808935055e+19 -0 -0)
(1.51228132613921e+19 -0 -0)
(1.51292474017083e+19 -0 -0)
(1.51508986910018e+19 -0 -0)
(1.51563361778492e+19 -0 -0)
(1.51776455980167e+19 -0 -0)
(1.51821101488621e+19 -0 -0)
(1.52031133154843e+19 -0 -0)
(1.52066300208592e+19 -0 -0)
(1.52273412428831e+19 -0 -0)
(1.52298939460697e+19 -0 -0)
(1.52503343731784e+19 -0 -0)
(1.52519464544527e+19 -0 -0)
(1.52721529295039e+19 -0 -0)
(1.52728572543777e+19 -0 -0)
(1.52928667953697e+19 -0 -0)
(1.52926020265832e+19 -0 -0)
(1.53123563284736e+19 -0 -0)
(1.53111514113362e+19 -0 -0)
(1.53306246561468e+19 -0 -0)
(1.53283450003928e+19 -0 -0)
(1.53474637126237e+19 -0 -0)
(1.53439202683914e+19 -0 -0)
(1.53623531517502e+19 -0 -0)
(1.53368082821368e+19 -0 -0)
)
;

boundaryField
{
    electrode
    {
        type            calculated;
        value           uniform (-13795021098.7047 -0 -0);
    }
    ground
    {
        type            calculated;
        value           uniform (1.53657329501192e+19 -0 -0);
    }
    otherfaces
    {
        type            empty;
    }
}


// ************************************************************************* //
