/*--------------------------------*- C++ -*----------------------------------*\
| =========                 |                                                 |
| \\      /  F ield         | foam-extend: Open Source CFD                    |
|  \\    /   O peration     | Version:     4.0                                |
|   \\  /    A nd           | Web:         http://www.foam-extend.org         |
|    \\/     M anipulation  |                                                 |
\*---------------------------------------------------------------------------*/
FoamFile
{
    version     2.0;
    format      ascii;
    class       volVectorField;
    location    "8.7e-06";
    object      J_electron;
}
// * * * * * * * * * * * * * * * * * * * * * * * * * * * * * * * * * * * * * //

dimensions      [1 -1 -1 0 0 0 0];

internalField   nonuniform List<vector> 
300
(
(-1.33951219694246e+19 0 0)
(-1.37495296042072e+19 0 0)
(-1.62551109763389e+19 0 0)
(-1.57501221131002e+19 0 0)
(-1.57447832120409e+19 0 0)
(-1.57301514469851e+19 0 0)
(-1.56623268629987e+19 0 0)
(-1.56111784211325e+19 0 0)
(-1.5557599337849e+19 0 0)
(-1.55033136116787e+19 0 0)
(-1.54493988647559e+19 0 0)
(-1.539534814648e+19 0 0)
(-1.53412564251241e+19 0 0)
(-1.52871282846092e+19 0 0)
(-1.52329499932857e+19 0 0)
(-1.51787216913966e+19 0 0)
(-1.51244400163264e+19 0 0)
(-1.50701017251704e+19 0 0)
(-1.50157038676948e+19 0 0)
(-1.49612434496792e+19 0 0)
(-1.49067174128501e+19 0 0)
(-1.48521229023205e+19 0 0)
(-1.47974569025975e+19 0 0)
(-1.47427166094443e+19 0 0)
(-1.4687899064947e+19 0 0)
(-1.46330015220214e+19 0 0)
(-1.45780211787875e+19 0 0)
(-1.45229552706886e+19 0 0)
(-1.4467801084424e+19 0 0)
(-1.44125559328637e+19 0 0)
(-1.43572172275569e+19 0 0)
(-1.43017823076453e+19 0 0)
(-1.4246248682136e+19 0 0)
(-1.41906138262893e+19 0 0)
(-1.41348752891482e+19 0 0)
(-1.40790306090454e+19 0 0)
(-1.40230774561496e+19 0 0)
(-1.39670135180207e+19 0 0)
(-1.39108365025676e+19 0 0)
(-1.38545441797783e+19 0 0)
(-1.37981344121233e+19 0 0)
(-1.37416050341448e+19 0 0)
(-1.36849540217593e+19 0 0)
(-1.36281793564458e+19 0 0)
(-1.35712790496645e+19 0 0)
(-1.35142512295157e+19 0 0)
(-1.34570940381198e+19 0 0)
(-1.33998056646952e+19 0 0)
(-1.33423844182545e+19 0 0)
(-1.32848285703539e+19 0 0)
(-1.32271365548676e+19 0 0)
(-1.31693067824034e+19 0 0)
(-1.31113377182264e+19 0 0)
(-1.30532279764422e+19 0 0)
(-1.29949761435662e+19 0 0)
(-1.29365809209845e+19 0 0)
(-1.28780409967519e+19 0 0)
(-1.28193552319746e+19 0 0)
(-1.27605224208393e+19 0 0)
(-1.27015415102416e+19 0 0)
(-1.26424114462348e+19 0 0)
(-1.25831312962864e+19 0 0)
(-1.25237001325951e+19 0 0)
(-1.24641170843702e+19 0 0)
(-1.24043813912639e+19 0 0)
(-1.23444922937356e+19 0 0)
(-1.22844491037163e+19 0 0)
(-1.22242511853094e+19 0 0)
(-1.21638979781033e+19 0 0)
(-1.21033889416466e+19 0 0)
(-1.20427236043378e+19 0 0)
(-1.19819015123834e+19 0 0)
(-1.19209223274808e+19 0 0)
(-1.18597856558234e+19 0 0)
(-1.17984912402518e+19 0 0)
(-1.17370387921324e+19 0 0)
(-1.16754280940883e+19 0 0)
(-1.16136589746168e+19 0 0)
(-1.15517312119011e+19 0 0)
(-1.14896447365715e+19 0 0)
(-1.14273993782219e+19 0 0)
(-1.13649950734732e+19 0 0)
(-1.1302431719585e+19 0 0)
(-1.12397092380402e+19 0 0)
(-1.11768275316119e+19 0 0)
(-1.11137865424595e+19 0 0)
(-1.10505861592373e+19 0 0)
(-1.09872262863205e+19 0 0)
(-1.09237067733569e+19 0 0)
(-1.08600274490454e+19 0 0)
(-1.0796188084669e+19 0 0)
(-1.07321884466505e+19 0 0)
(-1.06680281740141e+19 0 0)
(-1.06037068726487e+19 0 0)
(-1.05392240540941e+19 0 0)
(-1.04745790656453e+19 0 0)
(-1.04097712509792e+19 0 0)
(-1.03447999440974e+19 0 0)
(-1.02796642043345e+19 0 0)
(-1.02143616242197e+19 0 0)
(-1.01488898550153e+19 0 0)
(-1.00832533892904e+19 0 0)
(-1.00174602635203e+19 0 0)
(-9.95148255281965e+18 0 0)
(-9.8852471989228e+18 0 0)
(-9.81884655987851e+18 0 0)
(-9.75271795168956e+18 0 0)
(-9.68658985079433e+18 0 0)
(-9.61770569738905e+18 0 0)
(-9.54506632941797e+18 0 0)
(-9.47385434944622e+18 0 0)
(-9.40565483292616e+18 0 0)
(-9.33770318590824e+18 0 0)
(-9.26955896893971e+18 0 0)
(-9.20113894471238e+18 0 0)
(-9.13241042986205e+18 0 0)
(-9.06335987388593e+18 0 0)
(-8.99397689952541e+18 0 0)
(-8.92425090659569e+18 0 0)
(-8.85417015639382e+18 0 0)
(-8.78372165574459e+18 0 0)
(-8.71289086279261e+18 0 0)
(-8.64166151599476e+18 0 0)
(-8.57001557623623e+18 0 0)
(-8.49793289357885e+18 0 0)
(-8.42539109696196e+18 0 0)
(-8.35236532963351e+18 0 0)
(-8.2788279468939e+18 0 0)
(-8.2047483182585e+18 0 0)
(-8.13009241661086e+18 0 0)
(-8.05482247842326e+18 0 0)
(-7.97889662151662e+18 0 0)
(-7.90226837867069e+18 0 0)
(-7.82488613373031e+18 0 0)
(-7.74669259410086e+18 0 0)
(-7.66762414749201e+18 0 0)
(-7.58761004142166e+18 0 0)
(-7.50657164309011e+18 0 0)
(-7.42442144181728e+18 0 0)
(-7.34106195725595e+18 0 0)
(-7.25638459415645e+18 0 0)
(-7.17026815385587e+18 0 0)
(-7.08257741012992e+18 0 0)
(-6.99316114232233e+18 0 0)
(-6.90185027475472e+18 0 0)
(-6.80845550479213e+18 0 0)
(-6.71276422030426e+18 0 0)
(-6.61453980373405e+18 0 0)
(-6.51351046733431e+18 0 0)
(-6.40938789529505e+18 0 0)
(-6.30180287904062e+18 0 0)
(-6.19044999157357e+18 0 0)
(-6.07473597156216e+18 0 0)
(-5.95451254539184e+18 0 0)
(-5.82860545932761e+18 0 0)
(-5.69755171887881e+18 0 0)
(-5.5585833301689e+18 0 0)
(-5.4146888215665e+18 0 0)
(-5.25824393581114e+18 0 0)
(-5.09968167696178e+18 0 0)
(-4.91867856123933e+18 0 0)
(-4.74200002336286e+18 0 0)
(-4.51653144189547e+18 0 0)
(-4.28865211882222e+18 0 0)
(-3.90214249760581e+18 0 0)
(-3.01664327326342e+18 0 0)
(-2.28782292630451e+18 0 0)
(-2.17415782523889e+18 0 0)
(-2.07655398514622e+18 0 0)
(-1.74435603298281e+18 0 0)
(-1.09332251402568e+18 0 0)
(-4.28356112534733e+17 0 0)
(1.85285995142316e+17 0 0)
(5.71213645866861e+17 0 0)
(-1.44527459384033e+16 0 0)
(-5.59487354972144e+17 0 0)
(-4.32195042510111e+16 0 0)
(-3.46103296705954e+17 0 0)
(-1.8878875264562e+18 0 0)
(-2.26947771682049e+18 0 0)
(-2.6414982420381e+18 0 0)
(-4.14676776626474e+18 0 0)
(-4.02021565414139e+18 0 0)
(-3.93560453757167e+18 0 0)
(-4.09466947255455e+18 0 0)
(-2.54266842191128e+18 0 0)
(-6.50507208720646e+17 0 0)
(1.51464588242479e+18 0 0)
(4.66196000491386e+18 0 0)
(7.71945848801224e+18 0 0)
(1.02425100314298e+19 0 0)
(1.23727651146102e+19 0 0)
(1.38343512465961e+19 0 0)
(1.37232405377403e+19 0 0)
(1.46073618091706e+19 0 0)
(1.1229092957528e+19 0 0)
(1.03151816422532e+19 0 0)
(7.76588406731099e+18 0 0)
(6.38324741969504e+18 0 0)
(6.96489130745109e+18 0 0)
(-4.36049748564328e+18 0 0)
(2.43703450075205e+18 0 0)
(-1.12384161407055e+18 0 0)
(-2.12655426219677e+18 0 0)
(-2.03214842650452e+18 0 0)
(-2.0222841667096e+18 0 0)
(-2.19894598658798e+18 0 0)
(-2.49964869149708e+18 0 0)
(-2.75524502257841e+18 0 0)
(-2.90318011692963e+18 0 0)
(-2.96958635899058e+18 0 0)
(-2.98517526928575e+18 0 0)
(-2.97455810143838e+18 0 0)
(-2.94908482733001e+18 0 0)
(-2.91468002498716e+18 0 0)
(-2.87992941036847e+18 0 0)
(-2.83916741023342e+18 0 0)
(-2.79448127940853e+18 0 0)
(-2.74838079482111e+18 0 0)
(-2.70215180581254e+18 0 0)
(-2.65629072729864e+18 0 0)
(-2.60921180004195e+18 0 0)
(-2.56234607390661e+18 0 0)
(-2.5152202004004e+18 0 0)
(-2.46773925180529e+18 0 0)
(-2.42024992823964e+18 0 0)
(-2.37283128131151e+18 0 0)
(-2.32560759966003e+18 0 0)
(-2.27867159575334e+18 0 0)
(-2.23210913285925e+18 0 0)
(-2.1859980242429e+18 0 0)
(-2.14040884067396e+18 0 0)
(-2.09540545914076e+18 0 0)
(-2.0510446531407e+18 0 0)
(-2.00737624953231e+18 0 0)
(-1.96444485391742e+18 0 0)
(-1.9222788677226e+18 0 0)
(-1.88093060017933e+18 0 0)
(-1.84025212656729e+18 0 0)
(-1.80076546682646e+18 0 0)
(-1.76195022280627e+18 0 0)
(-1.72404117710159e+18 0 0)
(-1.68700323932549e+18 0 0)
(-1.6508503568872e+18 0 0)
(-1.61558564283044e+18 0 0)
(-1.58120571620288e+18 0 0)
(-1.54770385029566e+18 0 0)
(-1.51507040579584e+18 0 0)
(-1.48329355999483e+18 0 0)
(-1.45235941071094e+18 0 0)
(-1.42225265528356e+18 0 0)
(-1.39295652490364e+18 0 0)
(-1.36445560346544e+18 0 0)
(-1.33672820317283e+18 0 0)
(-1.30978314871185e+18 0 0)
(-1.2834942095349e+18 0 0)
(-1.25798790674791e+18 0 0)
(-1.23321135701376e+18 0 0)
(-1.20902953232795e+18 0 0)
(-1.18553019786055e+18 0 0)
(-1.16265642360643e+18 0 0)
(-1.14039399205577e+18 0 0)
(-1.11872195478271e+18 0 0)
(-1.09762257482764e+18 0 0)
(-1.07708017995902e+18 0 0)
(-1.0570736227019e+18 0 0)
(-1.03758345097879e+18 0 0)
(-1.01859405255063e+18 0 0)
(-1.00008972772481e+18 0 0)
(-9.82046093589785e+17 0 0)
(-9.64462849223847e+17 0 0)
(-9.47173877419156e+17 0 0)
(-9.30604181017108e+17 0 0)
(-9.14286445812673e+17 0 0)
(-8.98377432881182e+17 0 0)
(-8.82843674021312e+17 0 0)
(-8.6768339902591e+17 0 0)
(-8.52883838810924e+17 0 0)
(-8.3843451691743e+17 0 0)
(-8.24323890740748e+17 0 0)
(-8.10542302780383e+17 0 0)
(-7.97069853079578e+17 0 0)
(-7.83911515571503e+17 0 0)
(-7.70875353927609e+17 0 0)
(-7.58407728020696e+17 0 0)
(-7.4632246441239e+17 0 0)
(-7.34393464635252e+17 0 0)
(-7.22727321844928e+17 0 0)
(-7.11355413700178e+17 0 0)
(-6.99817695586594e+17 0 0)
(-6.89526309812439e+17 0 0)
(-6.79063271397073e+17 0 0)
(-6.68582935803555e+17 0 0)
(-6.58856358935821e+17 0 0)
(-6.49506215378882e+17 0 0)
(-6.40244849783538e+17 0 0)
(-6.32044579129367e+17 0 0)
(-6.24777048152255e+17 0 0)
(-6.1837473340723e+17 0 0)
(-6.07395458553619e+17 0 0)
)
;

boundaryField
{
    electrode
    {
        type            calculated;
        value           uniform (-1.6017779356804e+19 0 0);
    }
    ground
    {
        type            calculated;
        value           uniform (-6.04738488561243e+17 0 0);
    }
    otherfaces
    {
        type            empty;
    }
}


// ************************************************************************* //
