/*--------------------------------*- C++ -*----------------------------------*\
| =========                 |                                                 |
| \\      /  F ield         | foam-extend: Open Source CFD                    |
|  \\    /   O peration     | Version:     4.0                                |
|   \\  /    A nd           | Web:         http://www.foam-extend.org         |
|    \\/     M anipulation  |                                                 |
\*---------------------------------------------------------------------------*/
FoamFile
{
    version     2.0;
    format      ascii;
    class       volScalarField;
    location    "8.7e-06";
    object      Sy_electron;
}
// * * * * * * * * * * * * * * * * * * * * * * * * * * * * * * * * * * * * * //

dimensions      [1 -3 -1 0 0 0 0];

internalField   nonuniform List<scalar> 
300
(
3.13591537163326e-09
3.13659226144897e-09
3.1368306995205e-09
3.1367305475958e-09
3.13664045329042e-09
3.1364915614201e-09
3.13629204435458e-09
3.13604673949469e-09
3.13575336005056e-09
3.13541203172363e-09
3.13502247932197e-09
3.1345843313915e-09
3.13409725882882e-09
3.13356090322304e-09
3.13297489184871e-09
3.13233883824396e-09
3.13165234066447e-09
3.13091498248578e-09
3.13012633204013e-09
3.12928594249728e-09
3.12839335178734e-09
3.12744808248764e-09
3.12644964172788e-09
3.12539752108515e-09
3.12429119644575e-09
3.12313012797737e-09
3.12191375994276e-09
3.12064152060975e-09
3.11931282215639e-09
3.11792706052001e-09
3.1164836152628e-09
3.11498184951574e-09
3.11342110982607e-09
3.11180072599659e-09
3.1101200109698e-09
3.10837826069618e-09
3.10657475399073e-09
3.1047087524019e-09
3.10277950006149e-09
3.10078622352604e-09
3.0987281316284e-09
3.0966044153244e-09
3.09441424751909e-09
3.09215678291113e-09
3.0898311578153e-09
3.087436489981e-09
3.08497187841093e-09
3.08243640318024e-09
3.07982912521832e-09
3.07714908613582e-09
3.07439530799443e-09
3.07156679314052e-09
3.068662523924e-09
3.0656814625332e-09
3.06262255069934e-09
3.05948470948013e-09
3.05626683897791e-09
3.05296781809047e-09
3.0495865042366e-09
3.04612173307505e-09
3.04257231821381e-09
3.03893705089128e-09
3.03521469965945e-09
3.03140401003463e-09
3.02750370420951e-09
3.0235124807026e-09
3.01942901390635e-09
3.01525195373278e-09
3.01097992521456e-09
3.00661152808242e-09
3.0021453363224e-09
2.99757989771054e-09
2.9929137333527e-09
2.98814533718939e-09
2.98327317542947e-09
2.97829568605899e-09
2.97321127825812e-09
2.9680183317792e-09
2.96271519637846e-09
2.95730019106188e-09
2.95177160356541e-09
2.94612768950221e-09
2.940366671654e-09
2.93448673920994e-09
2.92848604691844e-09
2.92236271428223e-09
2.91611482463317e-09
2.90974042417051e-09
2.90323752097168e-09
2.89660408400263e-09
2.8898380419803e-09
2.88293728219485e-09
2.87589964951465e-09
2.86872294490309e-09
2.86140492417019e-09
2.85394329659681e-09
2.84633572346091e-09
2.83857981645936e-09
2.83067313608902e-09
2.82261319020221e-09
2.81439743237558e-09
2.806023258763e-09
2.79748800425296e-09
2.78878894605422e-09
2.77992331506093e-09
2.77088827212395e-09
2.76168081728891e-09
2.75229785353425e-09
2.74273674269192e-09
2.73299540923782e-09
2.72497887389528e-09
2.71705524276397e-09
2.7089602575252e-09
2.7006900208691e-09
2.6922406359875e-09
2.68360812043746e-09
2.67478838699319e-09
2.66577723338288e-09
2.6565703354107e-09
2.64716324063345e-09
2.63755136177786e-09
2.62772996989273e-09
2.61769418688223e-09
2.60743897776809e-09
2.59695914228239e-09
2.586249305954e-09
2.57530391058261e-09
2.56411720417281e-09
2.55268322999977e-09
2.54099581503346e-09
2.52904855747801e-09
2.51683481348656e-09
2.50434768285346e-09
2.49157999364708e-09
2.47852428574459e-09
2.46517279318664e-09
2.45151742503001e-09
2.43754974479288e-09
2.42326094835259e-09
2.40864184009747e-09
2.39368280708283e-09
2.37837379120431e-09
2.36270425906742e-09
2.34666316943485e-09
2.33023893795179e-09
2.3134193989741e-09
2.29619176416896e-09
2.27854257726388e-09
2.26045766643798e-09
2.24192208846735e-09
2.22292007898828e-09
2.20343497225401e-09
2.18344917186667e-09
2.16294400238251e-09
2.14189976585054e-09
2.12029541437598e-09
2.09810889030895e-09
2.07531623125891e-09
2.05189289906555e-09
2.02781128276886e-09
2.00304450450176e-09
1.9775610290076e-09
1.95133510040295e-09
1.92434044664909e-09
1.89707412466654e-09
1.87067617384047e-09
1.8438097689549e-09
1.81608443190768e-09
1.7871261150565e-09
1.75689824295291e-09
1.72551396958738e-09
1.69299894972216e-09
1.65920383839782e-09
1.62384890088933e-09
1.58619121969143e-09
1.54556961147866e-09
1.50238431558744e-09
1.45670730904196e-09
1.40735283308249e-09
1.35364500834985e-09
1.29387389766034e-09
1.23084941024725e-09
1.16528313551537e-09
1.09898341929852e-09
1.03276328379895e-09
9.69017509839728e-10
9.0653302544035e-10
8.48890288148113e-10
8.04835068018636e-10
7.72029858236581e-10
7.54062004393907e-10
7.53252947104611e-10
7.77661800748451e-10
8.30233304417499e-10
9.24535751285264e-10
1.08151211622523e-09
1.32653551926269e-09
1.72888827638602e-09
2.41683646432241e-09
3.61210232106585e-09
4.96536737128301e-09
6.13970897908648e-09
7.28704399807412e-09
7.28623071933487e-09
6.36647285679224e-09
5.05986264790087e-09
3.82765338017491e-09
2.88229108260094e-09
2.25211824947511e-09
1.85391103921847e-09
1.6097369418353e-09
1.46308947810255e-09
1.37226423386934e-09
1.32198672729092e-09
1.29747514359791e-09
1.2836219438513e-09
1.28028945646761e-09
1.28292668304876e-09
1.28846094010035e-09
1.29524747580536e-09
1.30193380026298e-09
1.30621396421478e-09
1.30842447655751e-09
1.30885867109138e-09
1.30724714934258e-09
1.30346931518257e-09
1.29749489400802e-09
1.28935866817241e-09
1.27914051173226e-09
1.26695255308258e-09
1.25292942524144e-09
1.23722077524169e-09
1.21998536210182e-09
1.20138638495946e-09
1.18158778349952e-09
1.16075127187943e-09
1.13903409744312e-09
1.11658644875042e-09
1.09355087959502e-09
1.07004509022276e-09
1.04618173680104e-09
1.02208267732921e-09
9.97860301395023e-10
9.73618977842339e-10
9.49453073525074e-10
9.25446714975506e-10
9.01674092676585e-10
8.78199929314754e-10
8.55080026209093e-10
8.3236185245762e-10
8.10085156047184e-10
7.88282597504339e-10
7.66895831059683e-10
7.46014327807404e-10
7.25698355307661e-10
7.0595971016206e-10
6.868024911393e-10
6.68222737086197e-10
6.50219313985369e-10
6.32790019210186e-10
6.15927593813291e-10
5.99622857190983e-10
5.83761214974366e-10
5.68390595966759e-10
5.53522006058538e-10
5.39142898528572e-10
5.25240565642934e-10
5.11802014849614e-10
4.98813839059306e-10
4.86262377349425e-10
4.74133105405439e-10
4.62411027364731e-10
4.51066149534022e-10
4.40070581904005e-10
4.29413034373055e-10
4.19083112530557e-10
4.09071875616402e-10
3.99370956378714e-10
3.8997266229591e-10
3.8087001198304e-10
3.7205679022563e-10
3.63527674822536e-10
3.55277354625271e-10
3.46894185277921e-10
3.38495257282192e-10
3.3029755543555e-10
3.22293621023649e-10
3.14498710494991e-10
3.06929688158126e-10
2.9951868002162e-10
2.91095479023999e-10
2.82839491645558e-10
2.74805938069679e-10
2.66249283281484e-10
2.56495095683897e-10
2.4706257878055e-10
2.34740902509853e-10
2.21232313122126e-10
2.04037912854389e-10
1.79246264401435e-10
)
;

boundaryField
{
    electrode
    {
        type            zeroGradient;
    }
    ground
    {
        type            zeroGradient;
    }
    otherfaces
    {
        type            empty;
    }
}


// ************************************************************************* //
