/*--------------------------------*- C++ -*----------------------------------*\
| =========                 |                                                 |
| \\      /  F ield         | foam-extend: Open Source CFD                    |
|  \\    /   O peration     | Version:     4.0                                |
|   \\  /    A nd           | Web:         http://www.foam-extend.org         |
|    \\/     M anipulation  |                                                 |
\*---------------------------------------------------------------------------*/
FoamFile
{
    version     2.0;
    format      ascii;
    class       volScalarField;
    location    "8.7e-06";
    object      Te;
}
// * * * * * * * * * * * * * * * * * * * * * * * * * * * * * * * * * * * * * //

dimensions      [0 0 0 1 0 0 0];

internalField   nonuniform List<scalar> 
300
(
40076.3874733864
40076.670577106
40076.8407399488
40076.941807314
40077.1020519279
40077.2963821133
40077.5279636488
40077.798642088
40078.1076721826
40078.4552027177
40078.8412442399
40079.2657830945
40079.7288317591
40080.2304026573
40080.7705137379
40081.3491887206
40081.9664565833
40082.6223517589
40083.3169141397
40084.0501890941
40084.8222275048
40085.6330857975
40086.4828259788
40087.3715156756
40088.2992281788
40089.26604249
40090.272043368
40091.317321386
40092.4019729879
40093.5261005493
40094.6898124401
40095.893223095
40097.1364530857
40098.4196291948
40099.7428844985
40101.1063584525
40102.51019698
40103.9545525629
40105.4395843425
40106.9654582229
40108.5323469769
40110.1404303599
40111.789895228
40113.4809356592
40115.2137530859
40116.9885564268
40118.8055622274
40120.6649948084
40122.567086416
40124.5120773828
40126.5002162938
40128.5317601576
40130.6069745919
40132.7261340069
40134.8895218014
40137.0974305676
40139.3501623054
40141.6480286413
40143.9913510597
40146.3804611448
40148.8157008293
40151.297422654
40153.8259900399
40156.4017775733
40159.0251712973
40161.6965690204
40164.4163806373
40167.1850284615
40170.0029475729
40172.8705861804
40175.7884060011
40178.7568826546
40181.7765060733
40184.8477809329
40187.9712271013
40191.147380105
40194.3767916202
40197.6600299806
40200.9976807148
40204.3903471022
40207.8386507556
40211.3432322331
40214.9047516749
40218.5238894733
40222.2013469732
40225.9378472037
40229.7341356463
40233.5909810411
40237.5091762315
40241.4895390514
40245.5329132558
40249.6401694966
40253.8122063504
40258.0499513996
40262.3543623656
40266.7264283092
40271.1671708852
40275.6776456521
40280.2589434703
40284.9121920718
40289.6385576909
40294.439246207
40299.3155041116
40304.2686225468
40309.2999449979
40314.4108609786
40319.6027713498
40324.8771154376
40330.2356066267
40335.6802977955
40341.2130045285
40346.8351195277
40352.548182109
40358.3540382637
40364.2546465867
40370.2520518482
40376.3483838795
40382.5458602232
40388.8467905417
40395.2535816804
40401.7687431654
40408.3948931253
40415.1347646699
40421.9912127525
40428.9672215688
40436.0659125472
40443.2905529782
40450.6445653582
40458.1315375129
40465.7552335816
40473.5196059608
40481.4288083026
40489.4872096849
40497.6994100912
40506.0702573449
40514.604865664
40523.3086360403
40532.1872786562
40541.2468375919
40550.4937181228
40559.934716932
40569.5770556323
40579.4284180393
40589.4969917218
40599.7915144316
40610.3213261087
40621.0964273563
40632.1275450857
40643.4262073353
40655.0048261958
40666.8767968012
40679.0565985485
40691.5599368238
40704.403852507
40717.606948036
40731.1894679048
40745.1737184214
40759.5839553734
40774.4473580191
40789.7932545209
40805.6554207512
40822.0700478457
40839.0815964746
40856.7408030264
40875.1242874559
40894.4133107181
40914.7521955922
40936.0737017468
40958.3282930214
40981.650746151
41006.2765249533
41032.4278018274
41060.2696238694
41089.9323206316
41121.3072499774
41154.3297821999
41189.579719419
41227.4940061591
41267.7254352205
41310.579341441
41357.0279211499
41407.1888984238
41461.9633154837
41523.287339674
41592.4471795349
41672.4574471282
41768.32634159
41885.761546629
42033.8604158386
42225.8743181674
42478.6929363408
42816.2461340162
43273.3796880579
43896.5415053627
44760.4657733777
45957.7953539779
47615.7831822784
49968.8910959918
53331.4457261788
58252.8501070764
64610.7517911441
73071.7126522361
86551.8322242823
104951.174096557
130471.925534256
165866.668167672
212955.722021621
271154.567441661
336708.514619171
404387.876187293
469672.778794922
529692.537353504
583189.380264508
630047.400079994
670791.657743992
706093.552377796
736707.49541404
763449.707031907
786992.608603565
807865.263210405
826476.529630469
843182.048391216
858290.50475531
872046.078578399
884658.405260541
896300.272279378
907111.885060477
917209.212364759
926687.984967533
935627.506646051
944093.43999555
952140.043786891
959811.957845375
967145.645606433
974170.574234497
980910.159497219
987382.682465016
993601.656487057
999578.829170447
1005316.42587277
1010814.04239578
1016074.80653495
1021096.11001038
1025873.5121162
1030400.18604361
1034667.30493256
1038664.29536746
1042379.02190731
1045797.94763225
1048906.27723022
1051688.08461621
1054126.4278777
1056203.40453041
1057900.17527674
1059196.55943906
1060072.81682012
1060497.64438687
1060472.34301959
1059963.04588146
1058949.22487962
1057408.02523511
1055317.15885229
1052653.91865728
1049395.08870387
1045516.91569844
1040995.26329458
1035805.76649059
1029923.67809994
1023323.72874209
1015980.40076326
1007867.36993459
998962.624620408
989235.813904119
978655.746419714
967198.764703808
954833.972235925
941529.46305787
927251.284164211
911963.597319303
895628.37924804
878205.091863564
859650.690062799
839918.538138867
818965.669504296
796741.022976884
773180.792082243
748222.575923213
721792.826886359
693800.512744142
664163.038515374
632770.906687678
599488.008162229
564177.798823691
526651.206689911
486673.112859485
443954.753219997
398098.94885747
348537.251615355
294447.854183998
234753.342970299
)
;

boundaryField
{
    electrode
    {
        type            electronTemperature;
        seec            0.05;
        Tse             1000;
        Edepend         1;
        TFN             1000;
        field_emission  0;
        field_enhancement_factor 55;
        work_function   5;
        value           uniform 40076.3874733864;
    }
    ground
    {
        type            electronTemperature;
        seec            0.05;
        Tse             1000;
        Edepend         1;
        TFN             1000;
        field_emission  0;
        field_enhancement_factor 55;
        work_function   5;
        value           uniform 200904.541639729;
    }
    otherfaces
    {
        type            empty;
    }
}


// ************************************************************************* //
