/*--------------------------------*- C++ -*----------------------------------*\
| =========                 |                                                 |
| \\      /  F ield         | foam-extend: Open Source CFD                    |
|  \\    /   O peration     | Version:     4.0                                |
|   \\  /    A nd           | Web:         http://www.foam-extend.org         |
|    \\/     M anipulation  |                                                 |
\*---------------------------------------------------------------------------*/
FoamFile
{
    version     2.0;
    format      ascii;
    class       volScalarField;
    location    "8.7e-06";
    object      TeMean;
}
// * * * * * * * * * * * * * * * * * * * * * * * * * * * * * * * * * * * * * //

dimensions      [0 0 0 1 0 0 0];

internalField   nonuniform List<scalar> 
300
(
36550.4755061703
36550.7674396916
36550.9074954422
36550.9324749865
36550.9869529324
36551.0490692899
36551.1218148109
36551.2077364355
36551.30666453
36551.419122004
36551.545527477
36551.6862686342
36551.8417348018
36552.0122917899
36552.198295973
36552.4000932853
36552.6180181058
36552.8523968134
36553.1035474566
36553.3717796217
36553.657396492
36553.9606933143
36554.2819591694
36554.6214764584
36554.9795206136
36555.3563682156
36555.7522916399
36556.1675571354
36556.6024311641
36557.0571718849
36557.5320282275
36558.0272579525
36558.543125892
36559.0798895478
36559.6378032547
36560.2171152685
36560.8180736994
36561.4409330697
36562.0859479474
36562.7533696794
36563.4434478902
36564.1564388723
36564.8925996457
36565.652185954
36566.4354549102
36567.2426648654
36568.0740751388
36568.9299454056
36569.8105334086
36570.7160949624
36571.6468841908
36572.6031644187
36573.5852143592
36574.5933147336
36575.6277519011
36576.6888223552
36577.7768211954
36578.8920437011
36580.0347949801
36581.205385457
36582.4041298516
36583.6313539827
36584.8873770995
36586.1725195518
36587.4871289045
36588.8315691768
36590.2062073731
36591.6114151212
36593.047571592
36594.5150673086
36596.0142984177
36597.5456604807
36599.1095677912
36600.7064508556
36602.3367409073
36604.0008720107
36605.6993018372
36607.4325175048
36609.2010076729
36611.0052672815
36612.8458231301
36614.7232192796
36616.6380013297
36618.5907223103
36620.5819502856
36622.6122854464
36624.6823572244
36626.7928044067
36628.944277392
36631.1374530825
36633.3730192005
36635.651683363
36637.9742092517
36640.3413722927
36642.7539633046
36645.2128144608
36647.7187787049
36650.2727383636
36652.8756021071
36655.5283122954
36658.2318570626
36660.9872381031
36663.7954909505
36666.6577141938
36669.5750421183
36672.5486452822
36675.5797344202
36678.6695681826
36681.8194625954
36685.0307791251
36688.3049291977
36691.6433797691
36695.0476535078
36698.5193515713
36702.0601327464
36705.6717141229
36709.3558817078
36713.1145137474
36716.9495851814
36720.8631269344
36724.8572551201
36728.9341906077
36733.0962511599
36737.3458746697
36741.6856305905
36746.1181970263
36750.6463627076
36755.273068079
36760.0014117369
36764.8346316766
36769.7761301288
36774.8295027519
36779.9985471747
36785.2872362926
36790.6997573963
36796.2405873033
36801.914477583
36807.7264518677
36813.6818403809
36819.786314872
36826.0459183852
36832.4670909331
36839.0567044101
36845.8220977203
36852.7711540718
36859.9123784822
36867.2549411626
36874.8087526595
36882.5844937829
36890.5937382371
36898.8491311869
36907.3644480358
36916.1547466679
36925.2366173234
36934.628275905
36944.349882998
36954.4237947709
36964.8751663065
36975.7325413603
36987.0296948718
36998.8141126117
37011.1456204143
37024.0827168251
37037.6848068075
37052.0318604644
37067.2205357482
37083.3217442979
37100.3995958893
37118.5729720268
37137.9891701036
37158.7678926576
37181.0162833024
37204.8591702899
37230.3424710636
37257.4784885617
37286.5051412732
37317.6925021264
37351.1866494231
37387.5205704735
37427.7139721889
37473.1151101199
37526.1083539913
37590.6114341417
37672.2214129876
37779.5967612161
37925.7960852705
38129.4731879658
38418.2272972808
38833.3098521311
39436.3030109321
40321.210099779
41635.6429467708
43616.4537664808
46712.8613660947
51384.5207087196
57962.078524358
67507.316620706
80580.356927334
98209.7749020552
120760.590468553
148307.803267807
180693.566363398
217426.202264868
257829.357164477
301807.534160089
349191.660025916
399289.63442598
450537.286529247
500831.23904724
548256.20810453
591572.726543902
630291.369530732
664466.226047284
694477.875082812
720835.429547396
744038.782546158
764588.206774642
782935.967005528
799448.365805093
814422.179079954
828092.034342498
840653.298360874
852278.940125862
863110.938104776
873266.921793012
882842.604918953
891916.897513124
900554.692723528
908809.209179154
916723.973530301
924334.338596809
931668.716447951
938749.576805966
945594.210068542
952215.435160266
958622.204824356
964820.04961882
970811.452035013
976596.499171194
982172.496108586
987533.967451474
992673.959843182
997584.166213236
1002254.8930231
1006675.12663651
1010832.62060022
1014713.85682952
1018304.33708044
1021588.79332735
1024551.01683274
1027174.45567424
1029442.11973903
1031336.28740947
1032838.78952295
1033930.72188798
1034592.99957618
1034800.21387737
1034544.78007107
1033804.1380085
1032556.38332686
1030781.03865198
1028457.60995204
1025565.47160959
1022083.75253682
1017991.29750675
1013266.92213222
1007888.86833203
1001834.87516604
995082.816196243
987610.05354275
979393.561712478
970409.398861287
960632.23449858
950036.739110586
938596.698322246
926283.774744478
913068.200646514
898918.516995572
883801.434848198
867681.561031049
850521.22510426
832280.324152689
812918.815550218
792393.392809341
770650.34430846
747633.391409131
723281.286077373
697518.961374827
670268.207649168
641443.748291826
610937.203584731
578623.740466269
544367.274211807
507983.842849178
469249.921008638
427885.281191441
383497.158819218
335540.733269318
283222.085491731
225495.430866411
)
;

boundaryField
{
    electrode
    {
        type            calculated;
        value           uniform 36550.4755061717;
    }
    ground
    {
        type            calculated;
        value           uniform 192759.563904399;
    }
    otherfaces
    {
        type            empty;
    }
}


// ************************************************************************* //
