/*--------------------------------*- C++ -*----------------------------------*\
| =========                 |                                                 |
| \\      /  F ield         | foam-extend: Open Source CFD                    |
|  \\    /   O peration     | Version:     4.0                                |
|   \\  /    A nd           | Web:         http://www.foam-extend.org         |
|    \\/     M anipulation  |                                                 |
\*---------------------------------------------------------------------------*/
FoamFile
{
    version     2.0;
    format      ascii;
    class       volScalarField;
    location    "4e-06";
    object      Ar;
}
// * * * * * * * * * * * * * * * * * * * * * * * * * * * * * * * * * * * * * //

dimensions      [0 0 0 1 0 0 0];

internalField   nonuniform List<scalar> 
300
(
3.21880349634848e+22
3.21880349222154e+22
3.21880349491293e+22
3.21880349599145e+22
3.2188034978079e+22
3.21880350034822e+22
3.21880350344395e+22
3.21880350715599e+22
3.21880351147336e+22
3.21880351639149e+22
3.21880352191004e+22
3.21880352802696e+22
3.21880353474068e+22
3.21880354204977e+22
3.21880354995285e+22
3.2188035584486e+22
3.21880356753602e+22
3.21880357721373e+22
3.21880358748032e+22
3.21880359833455e+22
3.21880360977518e+22
3.21880362180097e+22
3.21880363441068e+22
3.21880364760298e+22
3.21880366137823e+22
3.21880367573399e+22
3.21880369066922e+22
3.21880370618306e+22
3.21880372227352e+22
3.21880373893947e+22
3.2188037561817e+22
3.21880377399849e+22
3.21880379238749e+22
3.21880381134765e+22
3.218803830878e+22
3.21880385097765e+22
3.21880387164622e+22
3.21880389288274e+22
3.21880391468626e+22
3.21880393705627e+22
3.21880395999231e+22
3.21880398349383e+22
3.21880400756052e+22
3.21880403219215e+22
3.21880405738865e+22
3.21880408315002e+22
3.21880410947665e+22
3.21880413636897e+22
3.21880416382845e+22
3.21880419185606e+22
3.218804220454e+22
3.21880424962211e+22
3.21880427936216e+22
3.21880430967375e+22
3.21880434055758e+22
3.21880437201371e+22
3.21880440404364e+22
3.21880443664908e+22
3.21880446983195e+22
3.21880450359456e+22
3.21880453793901e+22
3.21880457286778e+22
3.21880460838412e+22
3.21880464449291e+22
3.21880468119702e+22
3.21880471849736e+22
3.21880475639741e+22
3.21880479490085e+22
3.2188048340116e+22
3.2188048737338e+22
3.21880491407202e+22
3.21880495503168e+22
3.21880499661783e+22
3.21880503883483e+22
3.21880508168937e+22
3.21880512518686e+22
3.21880516933241e+22
3.21880521413236e+22
3.21880525959088e+22
3.21880530571735e+22
3.21880535251488e+22
3.21880539998998e+22
3.21880544814991e+22
3.21880549700156e+22
3.21880554655372e+22
3.21880559681311e+22
3.2188056477862e+22
3.2188056994808e+22
3.21880575190607e+22
3.21880580506938e+22
3.2188058589796e+22
3.21880591364967e+22
3.21880596908258e+22
3.21880602528682e+22
3.21880608227116e+22
3.21880614004445e+22
3.21880619861564e+22
3.21880625799378e+22
3.21880631818903e+22
3.21880637921051e+22
3.21880644106673e+22
3.2188065037667e+22
3.21880656732277e+22
3.21880663174114e+22
3.21880669703184e+22
3.21880676320487e+22
3.2188068302677e+22
3.2188068982312e+22
3.21880696710313e+22
3.21880703689163e+22
3.21880710760542e+22
3.2188071792531e+22
3.21880725184364e+22
3.21880732538526e+22
3.21880739988593e+22
3.21880747535496e+22
3.21880755180149e+22
3.21880762923e+22
3.21880770764705e+22
3.21880778705979e+22
3.21880786747681e+22
3.21880794890241e+22
3.21880803134466e+22
3.21880811480728e+22
3.21880819929344e+22
3.2188082848072e+22
3.2188083713547e+22
3.21880845893703e+22
3.21880854755755e+22
3.21880863721818e+22
3.21880872792161e+22
3.21880881966876e+22
3.21880891245999e+22
3.21880900629716e+22
3.21880910118247e+22
3.21880919711189e+22
3.21880929408222e+22
3.2188093920927e+22
3.21880949113825e+22
3.21880959121341e+22
3.21880969231554e+22
3.21880979444052e+22
3.21880989758472e+22
3.21881000174365e+22
3.21881010691119e+22
3.2188102130759e+22
3.21881032022888e+22
3.2188104283604e+22
3.21881053746113e+22
3.21881064752238e+22
3.21881075852834e+22
3.21881087046525e+22
3.21881098332096e+22
3.21881109708207e+22
3.21881121170925e+22
3.21881132723596e+22
3.21881144353611e+22
3.2188115607476e+22
3.21881167865566e+22
3.21881179729815e+22
3.21881191706323e+22
3.2188120363649e+22
3.21881215562285e+22
3.21881227640314e+22
3.21881239785682e+22
3.21881252005317e+22
3.21881264243013e+22
3.21881276437365e+22
3.2188128870589e+22
3.21881300835306e+22
3.218813129975e+22
3.21881325453372e+22
3.21881337723774e+22
3.21881349615911e+22
3.21881361629219e+22
3.21881373741445e+22
3.21881385172678e+22
3.21881396456399e+22
3.21881407900996e+22
3.21881418356467e+22
3.21881428493662e+22
3.21881438472333e+22
3.21881447501231e+22
3.21881455747018e+22
3.21881463919017e+22
3.21881470945531e+22
3.21881477140544e+22
3.21881482868309e+22
3.21881488013023e+22
3.21881492220506e+22
3.21881495763948e+22
3.21881499000279e+22
3.21881501792912e+22
3.21881503940914e+22
3.21881505271543e+22
3.21881505800703e+22
3.21881505964973e+22
3.21881506225835e+22
3.2188150624568e+22
3.21881506264753e+22
3.21881506386031e+22
3.2188150642903e+22
3.21881506828882e+22
3.21881507336807e+22
3.218815079855e+22
3.2188150863049e+22
3.21881509219436e+22
3.21881509773379e+22
3.21881510250707e+22
3.21881510696638e+22
3.21881511072726e+22
3.21881511451507e+22
3.21881511970916e+22
3.21881512463725e+22
3.21881512906667e+22
3.2188151332811e+22
3.21881513705346e+22
3.2188151406774e+22
3.21881514390234e+22
3.21881514703661e+22
3.21881514980362e+22
3.2188151525239e+22
3.2188151549114e+22
3.21881515731006e+22
3.21881516012973e+22
3.21881516365125e+22
3.2188151668427e+22
3.21881517007796e+22
3.21881517298738e+22
3.21881517595637e+22
3.21881517860196e+22
3.2188151813236e+22
3.2188151837269e+22
3.21881518622137e+22
3.21881518840694e+22
3.21881519069703e+22
3.21881519268233e+22
3.21881519478806e+22
3.21881519658716e+22
3.21881519852447e+22
3.21881520015017e+22
3.21881520192877e+22
3.21881520406283e+22
3.21881520659075e+22
3.21881520881994e+22
3.21881521119501e+22
3.21881521326646e+22
3.21881521549806e+22
3.21881521742641e+22
3.21881521952564e+22
3.21881522132266e+22
3.21881522330279e+22
3.21881522497946e+22
3.21881522684774e+22
3.21881522841029e+22
3.21881523017424e+22
3.21881523162624e+22
3.21881523329178e+22
3.21881523464088e+22
3.21881523621221e+22
3.21881523746045e+22
3.21881523894229e+22
3.21881524009599e+22
3.21881524149003e+22
3.21881524255122e+22
3.21881524386117e+22
3.21881524483458e+22
3.21881524637509e+22
3.21881524784068e+22
3.21881524958917e+22
3.21881525097308e+22
3.21881525265123e+22
3.21881525395891e+22
3.21881525557334e+22
3.21881525681102e+22
3.21881525836673e+22
3.21881525953649e+22
3.21881526103363e+22
3.21881526213587e+22
3.21881526357581e+22
3.218815264612e+22
3.21881526599921e+22
3.21881526698581e+22
3.21881526833493e+22
3.21881526926356e+22
3.21881527056461e+22
3.21881527143573e+22
3.21881527268997e+22
3.21881527350519e+22
3.2188152747418e+22
3.21881527553498e+22
3.21881527673782e+22
3.21881527747999e+22
3.21881527867919e+22
3.2188152794119e+22
3.21881528059627e+22
3.21881528133083e+22
3.2188152825496e+22
3.21881528332209e+22
3.21881528486229e+22
)
;

boundaryField
{
    electrode
    {
        type            zeroGradient;
    }
    ground
    {
        type            zeroGradient;
    }
    otherfaces
    {
        type            empty;
    }
}


// ************************************************************************* //
