/*--------------------------------*- C++ -*----------------------------------*\
| =========                 |                                                 |
| \\      /  F ield         | foam-extend: Open Source CFD                    |
|  \\    /   O peration     | Version:     4.0                                |
|   \\  /    A nd           | Web:         http://www.foam-extend.org         |
|    \\/     M anipulation  |                                                 |
\*---------------------------------------------------------------------------*/
FoamFile
{
    version     2.0;
    format      ascii;
    class       volScalarField;
    location    "4e-06";
    object      Arm;
}
// * * * * * * * * * * * * * * * * * * * * * * * * * * * * * * * * * * * * * //

dimensions      [0 0 0 1 0 0 0];

internalField   nonuniform List<scalar> 
300
(
3.57414267055044e+15
3.57602031751289e+15
3.57796926706023e+15
3.5792752080006e+15
3.58009141693003e+15
3.58046992905655e+15
3.58045495301098e+15
3.58007792464078e+15
3.57936450161438e+15
3.57833666909421e+15
3.5770101993158e+15
3.57539917855146e+15
3.57351565981922e+15
3.57137024562998e+15
3.56897239293218e+15
3.56633064791629e+15
3.56344983025397e+15
3.56033852861036e+15
3.55700508527993e+15
3.55345597899613e+15
3.54969741122019e+15
3.54573530364571e+15
3.54157534629926e+15
3.53722299420136e+15
3.53266755039075e+15
3.52792677298687e+15
3.52300435938021e+15
3.51790231851508e+15
3.51263425290049e+15
3.50720504856086e+15
3.50160092527911e+15
3.49583326643682e+15
3.48992018824633e+15
3.48386706778573e+15
3.47767899131341e+15
3.47136076251054e+15
3.46491254989561e+15
3.45834087253811e+15
3.45165280147296e+15
3.44485187041068e+15
3.43794158214386e+15
3.43092721446187e+15
3.42381264768322e+15
3.41660157340776e+15
3.40929749185453e+15
3.4019036677633e+15
3.3944210443931e+15
3.38685107478575e+15
3.37918598783531e+15
3.37142438214657e+15
3.36355363642223e+15
3.35558627725226e+15
3.34751689086947e+15
3.33936321269904e+15
3.33113336724906e+15
3.32284373614408e+15
3.31449761398747e+15
3.30609791692947e+15
3.29764721793233e+15
3.28914593193048e+15
3.28059837743788e+15
3.27200666722499e+15
3.26336746093572e+15
3.2546627768804e+15
3.24589659351491e+15
3.23709451989094e+15
3.22825863748624e+15
3.21939078604415e+15
3.21049255138934e+15
3.20156529409368e+15
3.19260817074473e+15
3.18361402387382e+15
3.17458131482878e+15
3.16551750533271e+15
3.15640903394781e+15
3.14725696437027e+15
3.13806764854129e+15
3.1288369378353e+15
3.1195848521862e+15
3.11028076882344e+15
3.10095932736192e+15
3.09162263934233e+15
3.08226761493584e+15
3.07289652683682e+15
3.06349453394486e+15
3.0540693882442e+15
3.04463280370646e+15
3.03518510111424e+15
3.02571435250242e+15
3.01622833043413e+15
3.00672103387934e+15
2.99714733153605e+15
2.98756258073665e+15
2.9779683913635e+15
2.96836479149339e+15
2.95875180738387e+15
2.9491292207203e+15
2.93949660454543e+15
2.92984301093372e+15
2.92016838132175e+15
2.91047898513045e+15
2.90077611768714e+15
2.89102796158925e+15
2.8812637991714e+15
2.87147438976636e+15
2.86165037460529e+15
2.85180680982237e+15
2.84192404610022e+15
2.83201252736935e+15
2.8220777066359e+15
2.81211770994461e+15
2.80213025360524e+15
2.79210759092686e+15
2.78204751275581e+15
2.77194780707927e+15
2.76179081373347e+15
2.75155762093178e+15
2.74127306644607e+15
2.7309380152402e+15
2.72054439281269e+15
2.71006577829473e+15
2.69951517957767e+15
2.68886356247393e+15
2.67812134273513e+15
2.6672999595881e+15
2.65639721913464e+15
2.64538496986738e+15
2.63428068820618e+15
2.62307352568939e+15
2.61176145377436e+15
2.60032881499146e+15
2.5887717465742e+15
2.57708526176217e+15
2.56524326752114e+15
2.5532092631469e+15
2.54100214307129e+15
2.52862583846119e+15
2.5160552865147e+15
2.50327161674369e+15
2.49028397986826e+15
2.47707637533894e+15
2.46363215625543e+15
2.44991916879078e+15
2.43590531007412e+15
2.42156594668738e+15
2.40692092277684e+15
2.39195535254818e+15
2.37665287913272e+15
2.36098296750797e+15
2.34489668323813e+15
2.32840651071337e+15
2.31148770188186e+15
2.29407793407656e+15
2.27617606293974e+15
2.25776384002418e+15
2.23879151491595e+15
2.21921581690977e+15
2.19903622844382e+15
2.17823360793146e+15
2.15676297557998e+15
2.13458871882594e+15
2.11169577069655e+15
2.08804583748301e+15
2.06365150506826e+15
2.03849978765356e+15
2.012536050854e+15
1.9857811445607e+15
1.95827965955182e+15
1.93006054770017e+15
1.90116577061745e+15
1.87166396461022e+15
1.84158840404784e+15
1.8110314606287e+15
1.78016467707642e+15
1.74918202681792e+15
1.71825333911715e+15
1.68755779438615e+15
1.65729438019916e+15
1.62770196636758e+15
1.59893607480579e+15
1.5711509805202e+15
1.54449375052505e+15
1.51904567951117e+15
1.49492161797034e+15
1.47212136454307e+15
1.45055445575129e+15
1.43026061041491e+15
1.41118864827474e+15
1.39325119763281e+15
1.37636387178431e+15
1.36042214693725e+15
1.34544812431804e+15
1.33184760867433e+15
1.32444402940302e+15
1.34887600212548e+15
1.41066403618332e+15
1.47967408525932e+15
1.52188777782956e+15
1.53759297003791e+15
1.53095933202788e+15
1.5083222492079e+15
1.47900183087403e+15
1.45023026003246e+15
1.42592466781663e+15
1.40704738668552e+15
1.39308448209495e+15
1.38243900823622e+15
1.37456315581128e+15
1.36870123487e+15
1.36409787126202e+15
1.35995406265968e+15
1.35605273296036e+15
1.35221649324564e+15
1.34828149407578e+15
1.3443584364208e+15
1.34032876588877e+15
1.33610451812482e+15
1.33167644021406e+15
1.32700507397633e+15
1.3220788864423e+15
1.31690912434298e+15
1.31148643604561e+15
1.30575798982239e+15
1.29964138695869e+15
1.29322767466002e+15
1.28667579966303e+15
1.28002318834736e+15
1.27328473362783e+15
1.26648952848554e+15
1.25967135784671e+15
1.25284024344689e+15
1.24602098031562e+15
1.23924213531178e+15
1.2325143960136e+15
1.22585083505666e+15
1.21928010348416e+15
1.21279672867615e+15
1.20642872375208e+15
1.20017235228574e+15
1.19404433404584e+15
1.18805005738384e+15
1.18218557526443e+15
1.17646854931468e+15
1.17088682687985e+15
1.16544770285324e+15
1.16016694946513e+15
1.15503019167169e+15
1.15004393141328e+15
1.14520905067052e+15
1.14051565443274e+15
1.13596883470726e+15
1.13156257073264e+15
1.12729210487252e+15
1.12316074446816e+15
1.11916003897594e+15
1.11528757737587e+15
1.11154184677806e+15
1.1079073123153e+15
1.10439275298449e+15
1.10099039485664e+15
1.09770610201933e+15
1.09452737701118e+15
1.09145723771079e+15
1.08848764257529e+15
1.08561659369438e+15
1.08284063122804e+15
1.08015242889017e+15
1.07754918899714e+15
1.07502078127665e+15
1.07257382111593e+15
1.07020130856243e+15
1.06790927042524e+15
1.06568517263741e+15
1.06353527946117e+15
1.06144793720203e+15
1.05942210085586e+15
1.05745639294215e+15
1.05555112039352e+15
1.0537085185302e+15
1.05192241052702e+15
1.05019180992478e+15
1.04847729577127e+15
1.04669521402285e+15
1.0449348145063e+15
1.04322182463638e+15
1.04154690913539e+15
1.03991754343858e+15
1.03833468822941e+15
1.03678748316822e+15
1.03503696940673e+15
1.03328039034835e+15
1.03156971540985e+15
1.02990622580791e+15
1.0279419375714e+15
1.02598677130178e+15
1.02392443984222e+15
1.02159994407918e+15
1.01900128973603e+15
1.01602474178244e+15
1.01242253142215e+15
)
;

boundaryField
{
    electrode
    {
        type            zeroGradient;
    }
    ground
    {
        type            zeroGradient;
    }
    otherfaces
    {
        type            empty;
    }
}


// ************************************************************************* //
