/*--------------------------------*- C++ -*----------------------------------*\
| =========                 |                                                 |
| \\      /  F ield         | foam-extend: Open Source CFD                    |
|  \\    /   O peration     | Version:     4.0                                |
|   \\  /    A nd           | Web:         http://www.foam-extend.org         |
|    \\/     M anipulation  |                                                 |
\*---------------------------------------------------------------------------*/
FoamFile
{
    version     2.0;
    format      ascii;
    class       volScalarField;
    location    "4e-06";
    object      Arp1;
}
// * * * * * * * * * * * * * * * * * * * * * * * * * * * * * * * * * * * * * //

dimensions      [0 0 0 1 0 0 0];

internalField   nonuniform List<scalar> 
300
(
5.92155577334178e+16
5.92565161023383e+16
5.92317437010028e+16
5.92266331026453e+16
5.92174651514587e+16
5.92043494379311e+16
5.91889295344756e+16
5.91705628217129e+16
5.91493333920838e+16
5.91252635670288e+16
5.90983398857648e+16
5.90685672126874e+16
5.90359474052367e+16
5.90004821571072e+16
5.89621737561948e+16
5.89210245706719e+16
5.88770371420559e+16
5.88302141793186e+16
5.87805585355143e+16
5.87280731978831e+16
5.86727612720361e+16
5.86146259605116e+16
5.85536706563866e+16
5.84898997776884e+16
5.84233169259574e+16
5.83539254419381e+16
5.8281728652945e+16
5.82067298607227e+16
5.81289323178203e+16
5.80483392010852e+16
5.79649535848466e+16
5.78787784148219e+16
5.77898164806373e+16
5.76980703902145e+16
5.76035425441223e+16
5.75062351078954e+16
5.74061499872288e+16
5.73032887999038e+16
5.71976528493168e+16
5.70892430970709e+16
5.69780601360506e+16
5.68641041611816e+16
5.67473749435416e+16
5.66278718011231e+16
5.65055935709733e+16
5.63805385819265e+16
5.62527046261537e+16
5.61220889313305e+16
5.59886881332282e+16
5.58524982486512e+16
5.57135146475133e+16
5.55717320265981e+16
5.54271443836328e+16
5.52797449901923e+16
5.51295263676914e+16
5.49764802616331e+16
5.48205976181705e+16
5.46618685603082e+16
5.45002823653926e+16
5.43358274441855e+16
5.41684913184784e+16
5.39982606034329e+16
5.38251209872179e+16
5.36490572144842e+16
5.34700530699054e+16
5.32880913632705e+16
5.31031539156661e+16
5.29152215480171e+16
5.2724274070123e+16
5.25302902717221e+16
5.23332479155314e+16
5.21331237319397e+16
5.19298934147932e+16
5.17235316203362e+16
5.15140119676922e+16
5.13013070402566e+16
5.10853883915329e+16
5.08662265512907e+16
5.06437910341757e+16
5.0418050352307e+16
5.01889720281056e+16
4.99565226109003e+16
4.97206676964155e+16
4.94813719474803e+16
4.92385991184538e+16
4.89923120829905e+16
4.87424728623198e+16
4.84890426592432e+16
4.82319818925228e+16
4.79712502361794e+16
4.77068066599693e+16
4.74386094746057e+16
4.71666163786213e+16
4.68907845091375e+16
4.66110704953331e+16
4.63274305152615e+16
4.60398203555176e+16
4.57481954745184e+16
4.54525110682528e+16
4.51527221396699e+16
4.48487835713238e+16
4.45406502004596e+16
4.422827689788e+16
4.39116186495758e+16
4.3590630641602e+16
4.32652683474601e+16
4.29354876193349e+16
4.26012447814868e+16
4.22624967266773e+16
4.19192010159881e+16
4.15713159806648e+16
4.12188008269167e+16
4.08616157438839e+16
4.04997220133876e+16
4.01330821225947e+16
3.97616598792989e+16
3.9385420529627e+16
3.90043308769597e+16
3.86183594055856e+16
3.82274764036688e+16
3.78316540906955e+16
3.74308667463206e+16
3.70250908411032e+16
3.66143051701488e+16
3.61984909890175e+16
3.57776321514819e+16
3.53517152510908e+16
3.49207297641565e+16
3.44846681975422e+16
3.40435262384856e+16
3.35973029095816e+16
3.31460007273475e+16
3.26896258644797e+16
3.22281883140748e+16
3.17617020398608e+16
3.12901851094898e+16
3.08136595647481e+16
3.03321492716437e+16
2.9845712888251e+16
2.93543829897229e+16
2.88581879127372e+16
2.83571694275032e+16
2.78513777885744e+16
2.73408699484722e+16
2.68257094084478e+16
2.63059666474191e+16
2.57817197635575e+16
2.52530551841976e+16
2.47200684657924e+16
2.41828660483539e+16
2.36415636878901e+16
2.30962933340812e+16
2.25472087780058e+16
2.19944151488699e+16
2.14382950824665e+16
2.08785354821234e+16
2.03164140466215e+16
1.97505279595057e+16
1.91830208213317e+16
1.86135484034217e+16
1.80382612642779e+16
1.74731174079298e+16
1.69142783623892e+16
1.6346519531151e+16
1.57786906510422e+16
1.52103765579396e+16
1.46473600872857e+16
1.4095972254612e+16
1.35447080229593e+16
1.30151022691345e+16
1.24900703485318e+16
1.19432202487608e+16
1.14214328526111e+16
1.09425575737109e+16
1.04548728771277e+16
9.95798356591028e+15
9.52642128100392e+15
9.10281951954525e+15
8.6514165937292e+15
8.28157143230804e+15
7.92027606894741e+15
7.54537965777429e+15
7.22987926986895e+15
6.95155163749078e+15
6.63486100205312e+15
6.38355513382921e+15
6.16421536856035e+15
5.94010837334771e+15
5.72406275651663e+15
5.5541671786421e+15
5.40711977561636e+15
5.2520518307047e+15
5.10723319316439e+15
4.99313983245719e+15
4.90654990566634e+15
4.84509821121053e+15
4.80055072383265e+15
4.76323924844672e+15
4.76792089274737e+15
4.78887926147428e+15
4.81113653220805e+15
4.84420385190436e+15
4.83810055974639e+15
4.81463667443113e+15
4.77035671439842e+15
4.72078083235475e+15
4.67307803828278e+15
4.62587777917013e+15
4.5841966215741e+15
4.54432138043918e+15
4.51092560340893e+15
4.47699027050558e+15
4.42890952195838e+15
4.38357669443509e+15
4.34321209821999e+15
4.30510039771404e+15
4.27160220425514e+15
4.23979139981423e+15
4.21221429939332e+15
4.18579962500782e+15
4.1633024718978e+15
4.14152722030115e+15
4.1233872082957e+15
4.10552557694225e+15
4.08375267233771e+15
4.05510115893715e+15
4.02985267876812e+15
4.00425343022752e+15
3.98197068740347e+15
3.95911637611776e+15
3.93951005506852e+15
3.91913232898308e+15
3.90189834772883e+15
3.88370224508476e+15
3.86853140681309e+15
3.85222287468562e+15
3.83887529735774e+15
3.82420801989612e+15
3.81249562649464e+15
3.79927263607025e+15
3.78903202980523e+15
3.77713236207289e+15
3.76153042536522e+15
3.74185417105071e+15
3.72502238063227e+15
3.70657303478118e+15
3.69101551784805e+15
3.67370551310231e+15
3.65927618905637e+15
3.64299598395129e+15
3.62959095237393e+15
3.61421366851394e+15
3.60173466629517e+15
3.58720006996064e+15
3.5755914881699e+15
3.56184013357196e+15
3.55108104459565e+15
3.5380749458193e+15
3.52811273785079e+15
3.51581544322764e+15
3.506630610128e+15
3.49500379973211e+15
3.48654931884947e+15
3.47559034106445e+15
3.46786103928416e+15
3.45754862745715e+15
3.45051345479035e+15
3.43772189791039e+15
3.42560434775091e+15
3.41057605026124e+15
3.39911878947819e+15
3.38463831728563e+15
3.37379438389526e+15
3.35980834317818e+15
3.34952701209896e+15
3.33600359864318e+15
3.32627931788571e+15
3.31322045694221e+15
3.30404781239554e+15
3.29144128658789e+15
3.28281660883454e+15
3.27066536763709e+15
3.26258761501072e+15
3.25086272385028e+15
3.24329514638864e+15
3.23196515512474e+15
3.22488874753019e+15
3.21393440806433e+15
3.20733436561298e+15
3.19672359671291e+15
3.19055300979279e+15
3.18023970180754e+15
3.17448575272574e+15
3.16446195711876e+15
3.15909381187934e+15
3.14931575630624e+15
3.14429749499154e+15
3.13471047068134e+15
3.12996298752618e+15
3.11816199977322e+15
)
;

boundaryField
{
    electrode
    {
        type            driftDiffusionPositiveIonDensity;
        seec            0;
        fieldName       Arp1;
        value           uniform 5.90425162111497e+16;
    }
    ground
    {
        type            driftDiffusionPositiveIonDensity;
        seec            0;
        fieldName       Arp1;
        value           uniform 3.11816199977322e+15;
    }
    otherfaces
    {
        type            empty;
    }
}


// ************************************************************************* //
