/*--------------------------------*- C++ -*----------------------------------*\
| =========                 |                                                 |
| \\      /  F ield         | foam-extend: Open Source CFD                    |
|  \\    /   O peration     | Version:     4.0                                |
|   \\  /    A nd           | Web:         http://www.foam-extend.org         |
|    \\/     M anipulation  |                                                 |
\*---------------------------------------------------------------------------*/
FoamFile
{
    version     2.0;
    format      ascii;
    class       volVectorField;
    location    "4e-06";
    object      E;
}
// * * * * * * * * * * * * * * * * * * * * * * * * * * * * * * * * * * * * * //

dimensions      [0 0 0 1 0 0 0];

internalField   nonuniform List<vector> 
300
(
(5.61821625055803 -0 -0)
(11.223378401648 -0 -0)
(19.7858641470816 -0 -0)
(27.7065271975244 -0 -0)
(35.5724385905913 -0 -0)
(43.5054056821542 -0 -0)
(51.4241924418074 -0 -0)
(59.3497745740567 -0 -0)
(67.2822494010579 -0 -0)
(75.2206090956505 -0 -0)
(83.1659842617777 -0 -0)
(91.1188694829876 -0 -0)
(99.079843579598 -0 -0)
(107.049552310055 -0 -0)
(115.028655513217 -0 -0)
(123.017847658559 -0 -0)
(131.017854732016 -0 -0)
(139.029431554806 -0 -0)
(147.053359543516 -0 -0)
(155.090443391956 -0 -0)
(163.141509472444 -0 -0)
(171.20741273441 -0 -0)
(179.289079815789 -0 -0)
(187.387621915227 -0 -0)
(195.504357981826 -0 -0)
(203.640712734261 -0 -0)
(211.798157478962 -0 -0)
(219.978202486984 -0 -0)
(228.182405449801 -0 -0)
(236.412383515519 -0 -0)
(244.669824492364 -0 -0)
(252.956495833072 -0 -0)
(261.274251596469 -0 -0)
(269.625037729898 -0 -0)
(278.010896304026 -0 -0)
(286.433969172469 -0 -0)
(294.896501318339 -0 -0)
(303.400844069095 -0 -0)
(311.949458331494 -0 -0)
(320.544917800679 -0 -0)
(329.189912291683 -0 -0)
(337.887251032655 -0 -0)
(346.639866086218 -0 -0)
(355.450815722677 -0 -0)
(364.323287871428 -0 -0)
(373.260603588094 -0 -0)
(382.266220619243 -0 -0)
(391.343736899679 -0 -0)
(400.496894102694 -0 -0)
(409.729581279857 -0 -0)
(419.045838495657 -0 -0)
(428.449860435983 -0 -0)
(437.946000189561 -0 -0)
(447.538772936674 -0 -0)
(457.232859753287 -0 -0)
(467.033111467472 -0 -0)
(476.944552493854 -0 -0)
(486.972384816701 -0 -0)
(497.121991950468 -0 -0)
(507.398943040743 -0 -0)
(517.808996972119 -0 -0)
(528.358106570319 -0 -0)
(539.052422927959 -0 -0)
(549.898299816219 -0 -0)
(560.902298153585 -0 -0)
(572.071190643786 -0 -0)
(583.411966499703 -0 -0)
(594.93183638253 -0 -0)
(606.638237406255 -0 -0)
(618.538838356777 -0 -0)
(630.641545110042 -0 -0)
(642.954506231768 -0 -0)
(655.486118837709 -0 -0)
(668.245034611413 -0 -0)
(681.240166211585 -0 -0)
(694.480693931641 -0 -0)
(707.976072612673 -0 -0)
(721.736039020826 -0 -0)
(735.770619543568 -0 -0)
(750.090138334892 -0 -0)
(764.70522587116 -0 -0)
(779.626828074999 -0 -0)
(794.866215934729 -0 -0)
(810.434995746146 -0 -0)
(826.345119943419 -0 -0)
(842.60889871273 -0 -0)
(859.239012274233 -0 -0)
(876.248524039976 -0 -0)
(893.650894688389 -0 -0)
(911.459997123087 -0 -0)
(929.69013257847 -0 -0)
(948.356047820825 -0 -0)
(967.472953537867 -0 -0)
(987.056544232797 -0 -0)
(1007.12301936403 -0 -0)
(1027.68910625199 -0 -0)
(1048.77208459431 -0 -0)
(1070.3898128806 -0 -0)
(1092.56075684083 -0 -0)
(1115.30402006771 -0 -0)
(1138.63937704744 -0 -0)
(1162.58730877296 -0 -0)
(1187.169041235 -0 -0)
(1212.40658685465 -0 -0)
(1238.3227894598 -0 -0)
(1264.94137273071 -0 -0)
(1292.2869927071 -0 -0)
(1320.38529464263 -0 -0)
(1349.26297459411 -0 -0)
(1378.94784615455 -0 -0)
(1409.46891290391 -0 -0)
(1440.85644705489 -0 -0)
(1473.14207492141 -0 -0)
(1506.35886981985 -0 -0)
(1540.54145327114 -0 -0)
(1575.72610515851 -0 -0)
(1611.9508838815 -0 -0)
(1649.25575750084 -0 -0)
(1687.68274697827 -0 -0)
(1727.276082872 -0 -0)
(1768.08237691581 -0 -0)
(1810.15081003146 -0 -0)
(1853.53333870972 -0 -0)
(1898.28492181987 -0 -0)
(1944.46377011453 -0 -0)
(1992.13162116485 -0 -0)
(2041.35404280759 -0 -0)
(2092.2007683412 -0 -0)
(2144.74606766595 -0 -0)
(2199.06915870812 -0 -0)
(2255.25466428882 -0 -0)
(2313.39312070109 -0 -0)
(2373.5815449541 -0 -0)
(2435.92406997901 -0 -0)
(2500.53266139832 -0 -0)
(2567.52794702156 -0 -0)
(2637.04014619256 -0 -0)
(2709.21075437055 -0 -0)
(2784.19751399309 -0 -0)
(2862.17540434117 -0 -0)
(2943.33259006377 -0 -0)
(3027.87092528767 -0 -0)
(3116.00951395589 -0 -0)
(3207.98796692758 -0 -0)
(3304.06932833624 -0 -0)
(3404.54311623315 -0 -0)
(3509.72872718466 -0 -0)
(3619.97934230951 -0 -0)
(3735.68645373815 -0 -0)
(3857.2851554137 -0 -0)
(3985.26006031202 -0 -0)
(4120.152885583 -0 -0)
(4262.57053973323 -0 -0)
(4413.19203458068 -0 -0)
(4572.79434499297 -0 -0)
(4742.22398696065 -0 -0)
(4922.50218687471 -0 -0)
(5114.70506830881 -0 -0)
(5320.13021422083 -0 -0)
(5540.35068387254 -0 -0)
(5776.78201791493 -0 -0)
(6033.40000638808 -0 -0)
(6316.32887197401 -0 -0)
(6628.65155802716 -0 -0)
(6972.10498038163 -0 -0)
(7350.13302502397 -0 -0)
(7768.1509722911 -0 -0)
(8234.25186455938 -0 -0)
(8756.46188408191 -0 -0)
(9345.0675610697 -0 -0)
(10010.42463386 -0 -0)
(10754.4953202378 -0 -0)
(11583.7244766747 -0 -0)
(12517.7279476639 -0 -0)
(13568.577259744 -0 -0)
(14736.4547899858 -0 -0)
(16035.7441611958 -0 -0)
(17482.473710501 -0 -0)
(19070.327585418 -0 -0)
(20806.2632459667 -0 -0)
(22702.5188829844 -0 -0)
(24745.8671483759 -0 -0)
(26931.2046587012 -0 -0)
(29262.8387887269 -0 -0)
(31717.1307932498 -0 -0)
(34275.0062924314 -0 -0)
(36934.565278713 -0 -0)
(39674.575146581 -0 -0)
(42466.4469350777 -0 -0)
(45297.2801817842 -0 -0)
(48161.3383782493 -0 -0)
(51038.5474877118 -0 -0)
(53907.9820363941 -0 -0)
(56764.9513406507 -0 -0)
(59609.4538847409 -0 -0)
(62449.5504953943 -0 -0)
(65288.8148572566 -0 -0)
(68118.7955472687 -0 -0)
(70954.725507149 -0 -0)
(73813.9405225148 -0 -0)
(76693.8078007368 -0 -0)
(79595.1940268211 -0 -0)
(82508.5883600307 -0 -0)
(85415.5705277814 -0 -0)
(88303.7018195481 -0 -0)
(91164.4226853119 -0 -0)
(93996.2450410163 -0 -0)
(96799.666841761 -0 -0)
(99576.4016127861 -0 -0)
(102328.607956491 -0 -0)
(105058.762707378 -0 -0)
(107768.637501747 -0 -0)
(110453.793294557 -0 -0)
(113110.788417914 -0 -0)
(115741.943706839 -0 -0)
(118349.435201332 -0 -0)
(120935.33157193 -0 -0)
(123501.53186075 -0 -0)
(126049.822110464 -0 -0)
(128581.830100462 -0 -0)
(131099.088899696 -0 -0)
(133602.998231377 -0 -0)
(136094.873043599 -0 -0)
(138575.894882283 -0 -0)
(141044.969208366 -0 -0)
(143498.843037257 -0 -0)
(145936.469109027 -0 -0)
(148358.768814374 -0 -0)
(150766.637376326 -0 -0)
(153160.903356002 -0 -0)
(155542.374568227 -0 -0)
(157911.798496856 -0 -0)
(160269.891106892 -0 -0)
(162617.310777176 -0 -0)
(164954.680077603 -0 -0)
(167282.568544631 -0 -0)
(169601.526254903 -0 -0)
(171912.048320307 -0 -0)
(174214.627964292 -0 -0)
(176509.700782381 -0 -0)
(178797.7106002 -0 -0)
(181079.056405166 -0 -0)
(183352.121154927 -0 -0)
(185614.559365899 -0 -0)
(187865.999956257 -0 -0)
(190106.812757024 -0 -0)
(192337.381806844 -0 -0)
(194558.050440209 -0 -0)
(196769.158658831 -0 -0)
(198971.016768064 -0 -0)
(201163.933396296 -0 -0)
(203348.180560139 -0 -0)
(205524.037226494 -0 -0)
(207691.757221784 -0 -0)
(209851.60273501 -0 -0)
(212003.809770186 -0 -0)
(214148.634014023 -0 -0)
(216286.299978625 -0 -0)
(218417.047840813 -0 -0)
(220541.090920261 -0 -0)
(222658.663422282 -0 -0)
(224769.967272801 -0 -0)
(226875.222454065 -0 -0)
(228974.630101046 -0 -0)
(231068.408662663 -0 -0)
(233156.752877121 -0 -0)
(235239.871826944 -0 -0)
(237317.017577337 -0 -0)
(239386.657155028 -0 -0)
(241448.115830199 -0 -0)
(243501.592560741 -0 -0)
(245547.252382336 -0 -0)
(247585.280082997 -0 -0)
(249615.824606307 -0 -0)
(251639.055450764 -0 -0)
(253655.111963379 -0 -0)
(255664.161967467 -0 -0)
(257666.345401219 -0 -0)
(259661.828471542 -0 -0)
(261650.747437024 -0 -0)
(263633.267426252 -0 -0)
(265609.525540356 -0 -0)
(267579.686586433 -0 -0)
(269543.879110853 -0 -0)
(271502.256770292 -0 -0)
(273454.938557408 -0 -0)
(275402.072581788 -0 -0)
(277343.771940794 -0 -0)
(279280.180147985 -0 -0)
(281211.400782877 -0 -0)
(283137.563235259 -0 -0)
(285058.757032493 -0 -0)
(286975.10773695 -0 -0)
(288886.702512385 -0 -0)
(290793.657423852 -0 -0)
(292696.046369891 -0 -0)
(294593.974015389 -0 -0)
(296487.497445258 -0 -0)
(298376.702147659 -0 -0)
(300260.918432535 -0 -0)
)
;

boundaryField
{
    electrode
    {
        type            calculated;
        value           uniform (4.54601442015701 -0 -0);
    }
    ground
    {
        type            calculated;
        value           uniform (301201.246317576 -0 -0);
    }
    otherfaces
    {
        type            empty;
    }
}


// ************************************************************************* //
