/*--------------------------------*- C++ -*----------------------------------*\
| =========                 |                                                 |
| \\      /  F ield         | foam-extend: Open Source CFD                    |
|  \\    /   O peration     | Version:     4.0                                |
|   \\  /    A nd           | Web:         http://www.foam-extend.org         |
|    \\/     M anipulation  |                                                 |
\*---------------------------------------------------------------------------*/
FoamFile
{
    version     2.0;
    format      ascii;
    class       volScalarField;
    location    "4e-06";
    object      electron;
}
// * * * * * * * * * * * * * * * * * * * * * * * * * * * * * * * * * * * * * //

dimensions      [0 0 0 1 0 0 0];

internalField   nonuniform List<scalar> 
300
(
5.92264278626065e+16
5.92248612213756e+16
5.92207708120822e+16
5.92137903757262e+16
5.92039775914581e+16
5.91913116869796e+16
5.91757892976666e+16
5.91574126352551e+16
5.91361819393509e+16
5.91120982865154e+16
5.90851630113311e+16
5.90553776244105e+16
5.90227438673343e+16
5.89872636844315e+16
5.8948939213225e+16
5.8907772775499e+16
5.88637668668042e+16
5.88169241470775e+16
5.87672474321e+16
5.87147396859254e+16
5.86594040137928e+16
5.86012436530885e+16
5.85402619551717e+16
5.847646234227e+16
5.84098482453652e+16
5.83404230568482e+16
5.8268190106253e+16
5.81931526467831e+16
5.81153138432401e+16
5.8034676757642e+16
5.79512443316243e+16
5.78650193659534e+16
5.77760044978279e+16
5.76842021766186e+16
5.75896146385616e+16
5.74922438807409e+16
5.73920916345719e+16
5.72891593389188e+16
5.71834481129195e+16
5.70749587285718e+16
5.69636915831181e+16
5.6849646671267e+16
5.67328235572919e+16
5.66132213470459e+16
5.64908386599472e+16
5.6365673600975e+16
5.62377237327218e+16
5.61069860475578e+16
5.59734569399714e+16
5.58371321791308e+16
5.56980068817219e+16
5.55560754851353e+16
5.54113317210521e+16
5.526376858949e+16
5.51133783333827e+16
5.49601524137436e+16
5.48040814854926e+16
5.46451553740065e+16
5.44833630524614e+16
5.43186926200389e+16
5.41511312810609e+16
5.3980665325136e+16
5.38072801083778e+16
5.36309600357686e+16
5.34516885447462e+16
5.32694480900885e+16
5.30842201301685e+16
5.2895985114649e+16
5.2704722473695e+16
5.2510410608783e+16
5.23130268851742e+16
5.21125476261283e+16
5.1908948108929e+16
5.17022025628006e+16
5.14922841687862e+16
5.12791650616454e+16
5.10628163338595e+16
5.08432080418054e+16
5.06203092141594e+16
5.0394087862603e+16
5.0164510994893e+16
4.99315446303573e+16
4.96951538178702e+16
4.94553026563665e+16
4.92119543179481e+16
4.89650710736306e+16
4.87146143217761e+16
4.84605446192594e+16
4.8202821715396e+16
4.7941404588676e+16
4.76762514863301e+16
4.74073199667473e+16
4.71345669447768e+16
4.68579487399136e+16
4.6577421127382e+16
4.62929393921238e+16
4.60044583856762e+16
4.57119325859379e+16
4.5415316159798e+16
4.5114563028605e+16
4.48096269364394e+16
4.45004615211512e+16
4.4187020388101e+16
4.38692571865573e+16
4.35471256886707e+16
4.32205798709432e+16
4.28895739981107e+16
4.25540627093292e+16
4.22140011065495e+16
4.18693448449608e+16
4.15200502253643e+16
4.11660742883214e+16
4.08073749099142e+16
4.04439108989408e+16
4.00756420953466e+16
3.97025294696826e+16
3.93245352233667e+16
3.89416228894998e+16
3.8553757433976e+16
3.81609053566046e+16
3.7763034791934e+16
3.73601156094561e+16
3.69521195128425e+16
3.65390201378292e+16
3.61207931483478e+16
3.56974163304715e+16
3.52688696836982e+16
3.48351355090693e+16
3.43961984935803e+16
3.39520457902801e+16
3.3502667093418e+16
3.30480547078942e+16
3.25882036121121e+16
3.2123111512944e+16
3.16527788903651e+16
3.11772090256908e+16
3.06964079961949e+16
3.02103845904922e+16
2.97191498878315e+16
2.92227166127852e+16
2.87210989800091e+16
2.82143130159214e+16
2.77023768178513e+16
2.71853105971834e+16
2.66631365872063e+16
2.61358788826941e+16
2.56035632424172e+16
2.50662168649645e+16
2.45238681405811e+16
2.39765463761973e+16
2.34242815035955e+16
2.28671037651108e+16
2.23050433239399e+16
2.17381301424488e+16
2.11663930392823e+16
2.05898604654496e+16
2.00085586606289e+16
1.94225119820041e+16
1.88317438381121e+16
1.82362646312653e+16
1.76360779625398e+16
1.70311007147303e+16
1.64210130530511e+16
1.5805366200364e+16
1.5183812881123e+16
1.45561299842527e+16
1.39221345575344e+16
1.32815914505794e+16
1.26342250030661e+16
1.19797866523415e+16
1.13181034499469e+16
1.06494439653882e+16
9.97474974747227e+15
9.29527919953982e+15
8.61261601534915e+15
7.92921091419822e+15
7.24834389659975e+15
6.57383418538378e+15
5.91036572283195e+15
5.2634239885459e+15
4.63877786339019e+15
4.04245593019621e+15
3.48050470604983e+15
2.95836676064577e+15
2.48064609635428e+15
2.0508553229593e+15
1.67097532227464e+15
1.3413659088856e+15
1.06086624749601e+15
826890544004192
635526327780622
481927233902127
361076392456642
267767617572424
196858470053690
143602911658207
102711208919129
71721038553453.1
49348127482043.3
33115026450206.1
21366099885736.9
13318660953939.8
8207837709960
5184445457753.49
3472218106875.64
2511853690052.68
1965552716845.62
1647270016530.69
1457552764888.23
1343073296284.76
1273848766792.46
1232426831969.14
1208511915822.94
1195405766534.87
1188824926438.58
1185925968514.47
1184791422254.19
1184196261326.96
1183273501630.73
1181436758830.48
1178257382217.74
1173451816849.77
1166893432797.48
1158544919548.07
1148430203732.82
1136617482547.16
1123206623619.67
1108318385805.69
1092086648543.28
1074652852728.52
1056161674421.85
1036757662482.12
1016582625166.89
995773620573.185
974461442401.358
952769512093.007
930813104637.13
908698855402.565
886524495475.983
864378777930.304
842341577836.703
820484099125.719
798869566113.158
777553743548.867
756585161499.994
736000264039.368
715825963626.111
696089231780.655
676815275060.218
658024021540.781
639730561651.462
621945439739.924
604675167338.137
587922725004.577
571688302066.583
555970464322.252
540762488375.408
526053678013.678
511836170800.871
498101577486.558
484838635162.52
472035272821.477
459678689261.096
447755637804.327
436252591047.207
425155659420.221
414450767625.5
404119220281.245
394139572447.945
384495971057.429
375176625703.321
366170499969.926
357467170504.507
349056676766.574
340929559597.568
333076898701.878
325490361198.613
318162248930.589
311085557674.786
304253979380.626
297662026406.247
291303879157.441
285174186481.06
279241955670.779
273480329308.115
267895724181.915
262498657562.893
257301368251.477
252315933785.632
247517277271.06
242882497819.76
238441920486.602
234238523004.883
230266298805.283
226563364207.359
223216552914.82
220364605642.85
218289809504.082
217429332794.846
218602425207.324
)
;

boundaryField
{
    electrode
    {
        type            driftDiffusionElectronDensity;
        seec            0.05;
        Edepend         1;
        field_emission  0;
        field_enhancement_factor 55;
        work_function   5;
        value           uniform 5.92264278626065e+16;
    }
    ground
    {
        type            driftDiffusionElectronDensity;
        seec            0.05;
        Edepend         1;
        field_emission  0;
        field_enhancement_factor 55;
        work_function   5;
        value           uniform 220781224068.991;
    }
    otherfaces
    {
        type            empty;
    }
}


// ************************************************************************* //
