/*--------------------------------*- C++ -*----------------------------------*\
| =========                 |                                                 |
| \\      /  F ield         | foam-extend: Open Source CFD                    |
|  \\    /   O peration     | Version:     4.0                                |
|   \\  /    A nd           | Web:         http://www.foam-extend.org         |
|    \\/     M anipulation  |                                                 |
\*---------------------------------------------------------------------------*/
FoamFile
{
    version     2.0;
    format      ascii;
    class       volVectorField;
    location    "4e-06";
    object      J_Arp1;
}
// * * * * * * * * * * * * * * * * * * * * * * * * * * * * * * * * * * * * * //

dimensions      [1 -1 -1 0 0 0 0];

internalField   nonuniform List<vector> 
300
(
(1.84221473852671e+16 -0 -0)
(6.62239274678177e+16 -0 -0)
(1.18317470677459e+17 -0 -0)
(1.64548358158331e+17 -0 -0)
(2.11347410901356e+17 -0 -0)
(2.58426866986512e+17 -0 -0)
(3.05334577100729e+17 -0 -0)
(3.52245638869552e+17 -0 -0)
(3.99128379420537e+17 -0 -0)
(4.45973943783135e+17 -0 -0)
(4.92782750987468e+17 -0 -0)
(5.39550305500531e+17 -0 -0)
(5.86273290709896e+17 -0 -0)
(6.32948626857435e+17 -0 -0)
(6.79573295413914e+17 -0 -0)
(7.26144479051041e+17 -0 -0)
(7.72659522350671e+17 -0 -0)
(8.19115918267354e+17 -0 -0)
(8.65511292521616e+17 -0 -0)
(9.11843381340154e+17 -0 -0)
(9.58110019854864e+17 -0 -0)
(1.00430917507109e+18 -0 -0)
(1.0504391618907e+18 -0 -0)
(1.09649938355679e+18 -0 -0)
(1.14249043442729e+18 -0 -0)
(1.18841342524381e+18 -0 -0)
(1.23426965910338e+18 -0 -0)
(1.28006059159628e+18 -0 -0)
(1.32578787349576e+18 -0 -0)
(1.3714534127359e+18 -0 -0)
(1.41705943040411e+18 -0 -0)
(1.46260850300981e+18 -0 -0)
(1.50810359211783e+18 -0 -0)
(1.55354806348152e+18 -0 -0)
(1.59894569952161e+18 -0 -0)
(1.64430070756684e+18 -0 -0)
(1.68961772565385e+18 -0 -0)
(1.73490182674762e+18 -0 -0)
(1.78015852221952e+18 -0 -0)
(1.82539376436129e+18 -0 -0)
(1.87061394879646e+18 -0 -0)
(1.91582591559912e+18 -0 -0)
(1.96103695035865e+18 -0 -0)
(2.00625478398917e+18 -0 -0)
(2.05148759188557e+18 -0 -0)
(2.09674399227264e+18 -0 -0)
(2.14203304400486e+18 -0 -0)
(2.18736424286711e+18 -0 -0)
(2.23274751708091e+18 -0 -0)
(2.27819322221559e+18 -0 -0)
(2.32371213479278e+18 -0 -0)
(2.36931544454179e+18 -0 -0)
(2.41501474645902e+18 -0 -0)
(2.46082203089208e+18 -0 -0)
(2.50674967305535e+18 -0 -0)
(2.55281042138503e+18 -0 -0)
(2.59901738438047e+18 -0 -0)
(2.64538401677925e+18 -0 -0)
(2.69192410405089e+18 -0 -0)
(2.73865174623005e+18 -0 -0)
(2.78558133994141e+18 -0 -0)
(2.83272755950153e+18 -0 -0)
(2.880105336807e+18 -0 -0)
(2.92772983993078e+18 -0 -0)
(2.97561645021594e+18 -0 -0)
(3.02378073833477e+18 -0 -0)
(3.07223843878621e+18 -0 -0)
(3.12100542355266e+18 -0 -0)
(3.17009767394146e+18 -0 -0)
(3.21953125131819e+18 -0 -0)
(3.26932226662792e+18 -0 -0)
(3.3194868485219e+18 -0 -0)
(3.37004111026404e+18 -0 -0)
(3.42100111496e+18 -0 -0)
(3.47238284017741e+18 -0 -0)
(3.52420214089476e+18 -0 -0)
(3.57647471103792e+18 -0 -0)
(3.62921604430543e+18 -0 -0)
(3.68244139333345e+18 -0 -0)
(3.73616572803743e+18 -0 -0)
(3.7904036924398e+18 -0 -0)
(3.84516956072598e+18 -0 -0)
(3.90047719213235e+18 -0 -0)
(3.95633998483211e+18 -0 -0)
(4.01277082859228e+18 -0 -0)
(4.06978205709113e+18 -0 -0)
(4.12738539866761e+18 -0 -0)
(4.18559192675657e+18 -0 -0)
(4.24441200951271e+18 -0 -0)
(4.30385525849756e+18 -0 -0)
(4.36393047705842e+18 -0 -0)
(4.42464560809978e+18 -0 -0)
(4.48600768109438e+18 -0 -0)
(4.54802275950272e+18 -0 -0)
(4.61069588694798e+18 -0 -0)
(4.67403103407538e+18 -0 -0)
(4.73803104481431e+18 -0 -0)
(4.8026975829002e+18 -0 -0)
(4.86803107851512e+18 -0 -0)
(4.93403067510227e+18 -0 -0)
(5.00069417670645e+18 -0 -0)
(5.06801799566262e+18 -0 -0)
(5.13599710120179e+18 -0 -0)
(5.2046249682482e+18 -0 -0)
(5.27389352797892e+18 -0 -0)
(5.34379311859157e+18 -0 -0)
(5.41431243773396e+18 -0 -0)
(5.4854384962355e+18 -0 -0)
(5.55715657327151e+18 -0 -0)
(5.62945017313337e+18 -0 -0)
(5.70230098392078e+18 -0 -0)
(5.775688838132e+18 -0 -0)
(5.84959167556559e+18 -0 -0)
(5.92398550828264e+18 -0 -0)
(5.99884438842179e+18 -0 -0)
(6.07414037842559e+18 -0 -0)
(6.14984352435574e+18 -0 -0)
(6.22592183204566e+18 -0 -0)
(6.30234124684123e+18 -0 -0)
(6.37906563651252e+18 -0 -0)
(6.4560567782027e+18 -0 -0)
(6.53327434906852e+18 -0 -0)
(6.61067592112694e+18 -0 -0)
(6.68821696072199e+18 -0 -0)
(6.76585083255828e+18 -0 -0)
(6.84352880866323e+18 -0 -0)
(6.92120008318993e+18 -0 -0)
(6.99881179220756e+18 -0 -0)
(7.07630904034803e+18 -0 -0)
(7.15363493364086e+18 -0 -0)
(7.23073061954021e+18 -0 -0)
(7.30753533540716e+18 -0 -0)
(7.38398646620963e+18 -0 -0)
(7.46001961600253e+18 -0 -0)
(7.53556870184558e+18 -0 -0)
(7.61056613231796e+18 -0 -0)
(7.68494299459115e+18 -0 -0)
(7.75862913657536e+18 -0 -0)
(7.83157373072254e+18 -0 -0)
(7.90372846530807e+18 -0 -0)
(7.97503475357344e+18 -0 -0)
(8.04542690296e+18 -0 -0)
(8.1148363777716e+18 -0 -0)
(8.18319403708219e+18 -0 -0)
(8.25043104752525e+18 -0 -0)
(8.316479292233e+18 -0 -0)
(8.38127165169044e+18 -0 -0)
(8.44474225553423e+18 -0 -0)
(8.50682673054409e+18 -0 -0)
(8.56746295489398e+18 -0 -0)
(8.6265898806582e+18 -0 -0)
(8.6841505021134e+18 -0 -0)
(8.74009614657104e+18 -0 -0)
(8.7943421295388e+18 -0 -0)
(8.84695404726163e+18 -0 -0)
(8.89760988339649e+18 -0 -0)
(8.94681748729584e+18 -0 -0)
(8.99372269077414e+18 -0 -0)
(9.03912048307072e+18 -0 -0)
(9.08306362251104e+18 -0 -0)
(9.1224891698364e+18 -0 -0)
(9.16589337616889e+18 -0 -0)
(9.20411156973764e+18 -0 -0)
(9.2403958483574e+18 -0 -0)
(9.2756532220837e+18 -0 -0)
(9.30778677794189e+18 -0 -0)
(9.33923275919682e+18 -0 -0)
(9.37082674443528e+18 -0 -0)
(9.39616011464202e+18 -0 -0)
(9.42853483513072e+18 -0 -0)
(9.45325701406493e+18 -0 -0)
(9.47413842112333e+18 -0 -0)
(9.49415623110874e+18 -0 -0)
(9.52234391201708e+18 -0 -0)
(9.53694440693584e+18 -0 -0)
(9.55227112022364e+18 -0 -0)
(9.58120483567184e+18 -0 -0)
(9.59053589001905e+18 -0 -0)
(9.59589841838394e+18 -0 -0)
(9.62527539634399e+18 -0 -0)
(9.62445192938227e+18 -0 -0)
(9.63768714907384e+18 -0 -0)
(9.65197748009076e+18 -0 -0)
(9.6596977202255e+18 -0 -0)
(9.65802444473895e+18 -0 -0)
(9.67763069374724e+18 -0 -0)
(9.67799449259626e+18 -0 -0)
(9.69644649685511e+18 -0 -0)
(9.69829533633611e+18 -0 -0)
(9.7196662479059e+18 -0 -0)
(9.72848090101928e+18 -0 -0)
(9.74980009740215e+18 -0 -0)
(9.77308462832962e+18 -0 -0)
(9.8140299742454e+18 -0 -0)
(9.87337713672675e+18 -0 -0)
(9.95239483887714e+18 -0 -0)
(1.0088907751679e+19 -0 -0)
(1.02537799542154e+19 -0 -0)
(1.04919533170521e+19 -0 -0)
(1.07534364620248e+19 -0 -0)
(1.10049666135728e+19 -0 -0)
(1.12687157115663e+19 -0 -0)
(1.14265071645505e+19 -0 -0)
(1.15986266506781e+19 -0 -0)
(1.17099677147503e+19 -0 -0)
(1.17908313477961e+19 -0 -0)
(1.18595359391614e+19 -0 -0)
(1.19135377226363e+19 -0 -0)
(1.1966787664744e+19 -0 -0)
(1.201076982194e+19 -0 -0)
(1.20588549767349e+19 -0 -0)
(1.20986125947478e+19 -0 -0)
(1.21420604209821e+19 -0 -0)
(1.21814865687171e+19 -0 -0)
(1.22241971331329e+19 -0 -0)
(1.22634793745823e+19 -0 -0)
(1.23068103984104e+19 -0 -0)
(1.2346504682049e+19 -0 -0)
(1.23905605414938e+19 -0 -0)
(1.24305342828107e+19 -0 -0)
(1.24750562112366e+19 -0 -0)
(1.25150207811753e+19 -0 -0)
(1.25595750674371e+19 -0 -0)
(1.2598926603107e+19 -0 -0)
(1.2642499721563e+19 -0 -0)
(1.26803696270093e+19 -0 -0)
(1.27232195251301e+19 -0 -0)
(1.27596322343651e+19 -0 -0)
(1.28015386798455e+19 -0 -0)
(1.28367656586302e+19 -0 -0)
(1.28778987865166e+19 -0 -0)
(1.29120833760104e+19 -0 -0)
(1.29523811215801e+19 -0 -0)
(1.29854075423437e+19 -0 -0)
(1.30246240316934e+19 -0 -0)
(1.305622416883e+19 -0 -0)
(1.30942031154521e+19 -0 -0)
(1.31241403845721e+19 -0 -0)
(1.31607888692264e+19 -0 -0)
(1.31888913565579e+19 -0 -0)
(1.32241101361971e+19 -0 -0)
(1.32504369685394e+19 -0 -0)
(1.32839447629358e+19 -0 -0)
(1.3309197180002e+19 -0 -0)
(1.33415197804863e+19 -0 -0)
(1.33651201649045e+19 -0 -0)
(1.33963169660935e+19 -0 -0)
(1.34184114902907e+19 -0 -0)
(1.34483714208288e+19 -0 -0)
(1.34689520894754e+19 -0 -0)
(1.34976620604597e+19 -0 -0)
(1.35166063187209e+19 -0 -0)
(1.35440262349506e+19 -0 -0)
(1.35614159506567e+19 -0 -0)
(1.35876288519528e+19 -0 -0)
(1.36035172257416e+19 -0 -0)
(1.36287093352262e+19 -0 -0)
(1.36432050706859e+19 -0 -0)
(1.36674176434005e+19 -0 -0)
(1.36806110002699e+19 -0 -0)
(1.37039900627073e+19 -0 -0)
(1.37159434204224e+19 -0 -0)
(1.37385072193662e+19 -0 -0)
(1.37494032262928e+19 -0 -0)
(1.37713169310198e+19 -0 -0)
(1.37812506517124e+19 -0 -0)
(1.38025816854256e+19 -0 -0)
(1.38115515063416e+19 -0 -0)
(1.38330597038154e+19 -0 -0)
(1.38411097254731e+19 -0 -0)
(1.38620099715083e+19 -0 -0)
(1.38689775876766e+19 -0 -0)
(1.38892827668755e+19 -0 -0)
(1.38951237720202e+19 -0 -0)
(1.39147941207679e+19 -0 -0)
(1.39195360606648e+19 -0 -0)
(1.39387046981952e+19 -0 -0)
(1.39425053172212e+19 -0 -0)
(1.39612980298625e+19 -0 -0)
(1.39642479064561e+19 -0 -0)
(1.39827893902807e+19 -0 -0)
(1.39850354936219e+19 -0 -0)
(1.40034547794541e+19 -0 -0)
(1.40050005410324e+19 -0 -0)
(1.40232641528984e+19 -0 -0)
(1.40240907578691e+19 -0 -0)
(1.40422308624743e+19 -0 -0)
(1.4042362949776e+19 -0 -0)
(1.40604218229695e+19 -0 -0)
(1.40598198078175e+19 -0 -0)
(1.40776899549089e+19 -0 -0)
(1.40762418999838e+19 -0 -0)
(1.40939558021458e+19 -0 -0)
(1.40917106197279e+19 -0 -0)
(1.41092147137912e+19 -0 -0)
(1.41060549965097e+19 -0 -0)
(1.41232643451732e+19 -0 -0)
(1.41190146789774e+19 -0 -0)
(1.41356543745917e+19 -0 -0)
(1.41194461037609e+19 -0 -0)
)
;

boundaryField
{
    electrode
    {
        type            calculated;
        value           uniform (5781381152.29848 -0 -0);
    }
    ground
    {
        type            calculated;
        value           uniform (1.41376565550195e+19 -0 -0);
    }
    otherfaces
    {
        type            empty;
    }
}


// ************************************************************************* //
