/*--------------------------------*- C++ -*----------------------------------*\
| =========                 |                                                 |
| \\      /  F ield         | foam-extend: Open Source CFD                    |
|  \\    /   O peration     | Version:     4.0                                |
|   \\  /    A nd           | Web:         http://www.foam-extend.org         |
|    \\/     M anipulation  |                                                 |
\*---------------------------------------------------------------------------*/
FoamFile
{
    version     2.0;
    format      ascii;
    class       volVectorField;
    location    "4e-06";
    object      J_electron;
}
// * * * * * * * * * * * * * * * * * * * * * * * * * * * * * * * * * * * * * //

dimensions      [1 -1 -1 0 0 0 0];

internalField   nonuniform List<vector> 
300
(
(-1.2536645193564e+19 0 0)
(-1.28561256553718e+19 0 0)
(-1.51772675240225e+19 0 0)
(-1.47240509459736e+19 0 0)
(-1.47194645983579e+19 0 0)
(-1.47100361853539e+19 0 0)
(-1.46507320193162e+19 0 0)
(-1.46064026662879e+19 0 0)
(-1.45601594172973e+19 0 0)
(-1.45132139496167e+19 0 0)
(-1.44666618950836e+19 0 0)
(-1.44200487890698e+19 0 0)
(-1.43734507840177e+19 0 0)
(-1.43268844631177e+19 0 0)
(-1.42803421051426e+19 0 0)
(-1.42338297893171e+19 0 0)
(-1.41873518193993e+19 0 0)
(-1.41409126729672e+19 0 0)
(-1.40945169772516e+19 0 0)
(-1.40481668960577e+19 0 0)
(-1.40018560293985e+19 0 0)
(-1.39555542545773e+19 0 0)
(-1.39091846331871e+19 0 0)
(-1.3862733170081e+19 0 0)
(-1.38162703420749e+19 0 0)
(-1.37698372573871e+19 0 0)
(-1.37234429503272e+19 0 0)
(-1.36770826635165e+19 0 0)
(-1.36307469192059e+19 0 0)
(-1.3584425911993e+19 0 0)
(-1.35381110514074e+19 0 0)
(-1.34917950116578e+19 0 0)
(-1.34454715281585e+19 0 0)
(-1.3399134893373e+19 0 0)
(-1.33527795751968e+19 0 0)
(-1.33063999942704e+19 0 0)
(-1.32599903531362e+19 0 0)
(-1.32135445103964e+19 0 0)
(-1.31670559983398e+19 0 0)
(-1.31205179054318e+19 0 0)
(-1.30739230120188e+19 0 0)
(-1.30272636463732e+19 0 0)
(-1.2980531820241e+19 0 0)
(-1.29337191506127e+19 0 0)
(-1.28868169111719e+19 0 0)
(-1.28398159514247e+19 0 0)
(-1.2792706851841e+19 0 0)
(-1.27454798386338e+19 0 0)
(-1.26981247462778e+19 0 0)
(-1.26506311137299e+19 0 0)
(-1.26029882112203e+19 0 0)
(-1.25551848867281e+19 0 0)
(-1.25072097828177e+19 0 0)
(-1.24590512073487e+19 0 0)
(-1.24106971819302e+19 0 0)
(-1.23621355160517e+19 0 0)
(-1.23133537006825e+19 0 0)
(-1.22643390449978e+19 0 0)
(-1.22150786046561e+19 0 0)
(-1.21655592669788e+19 0 0)
(-1.21157677079695e+19 0 0)
(-1.20656904294564e+19 0 0)
(-1.20153137893393e+19 0 0)
(-1.1964624051723e+19 0 0)
(-1.19136073415755e+19 0 0)
(-1.18622497295775e+19 0 0)
(-1.18105371693139e+19 0 0)
(-1.17584556522893e+19 0 0)
(-1.17059911242453e+19 0 0)
(-1.16531295376122e+19 0 0)
(-1.15998569043232e+19 0 0)
(-1.15461592795838e+19 0 0)
(-1.14920228844352e+19 0 0)
(-1.14374339806429e+19 0 0)
(-1.13823790150525e+19 0 0)
(-1.13268446723818e+19 0 0)
(-1.12708177772746e+19 0 0)
(-1.12142854527627e+19 0 0)
(-1.11572350796442e+19 0 0)
(-1.10996543825584e+19 0 0)
(-1.1041531386975e+19 0 0)
(-1.09828545277888e+19 0 0)
(-1.09236126307359e+19 0 0)
(-1.08637950037142e+19 0 0)
(-1.08033913726485e+19 0 0)
(-1.07423920367393e+19 0 0)
(-1.06807878032989e+19 0 0)
(-1.06185700396433e+19 0 0)
(-1.05557307806329e+19 0 0)
(-1.04922626402959e+19 0 0)
(-1.0428158931824e+19 0 0)
(-1.03634137065356e+19 0 0)
(-1.02980216469712e+19 0 0)
(-1.02319783270322e+19 0 0)
(-1.01652799821641e+19 0 0)
(-1.00979237413543e+19 0 0)
(-1.00299075378857e+19 0 0)
(-9.96123015834868e+18 0 0)
(-9.89189128590564e+18 0 0)
(-9.82189147551905e+18 0 0)
(-9.75123220455123e+18 0 0)
(-9.67991583770463e+18 0 0)
(-9.60794574026598e+18 0 0)
(-9.53532609364125e+18 0 0)
(-9.46206211704042e+18 0 0)
(-9.38815989899749e+18 0 0)
(-9.31362644435036e+18 0 0)
(-9.23846966917097e+18 0 0)
(-9.16269838551535e+18 0 0)
(-9.08632222674295e+18 0 0)
(-9.00935167083125e+18 0 0)
(-8.93179795253441e+18 0 0)
(-8.85367305091678e+18 0 0)
(-8.77498957502192e+18 0 0)
(-8.69576075937946e+18 0 0)
(-8.61600033035675e+18 0 0)
(-8.53572242568538e+18 0 0)
(-8.45494149634641e+18 0 0)
(-8.37367215831908e+18 0 0)
(-8.29192904580373e+18 0 0)
(-8.20972668554471e+18 0 0)
(-8.12707926555492e+18 0 0)
(-8.04400042777143e+18 0 0)
(-7.96050306844538e+18 0 0)
(-7.87659903288371e+18 0 0)
(-7.79229877847143e+18 0 0)
(-7.70761112000397e+18 0 0)
(-7.62254271751756e+18 0 0)
(-7.53709770688535e+18 0 0)
(-7.45127716408105e+18 0 0)
(-7.36507832145491e+18 0 0)
(-7.27849369116292e+18 0 0)
(-7.19150909272464e+18 0 0)
(-7.10409901923369e+18 0 0)
(-7.01621308088438e+18 0 0)
(-6.9277362154997e+18 0 0)
(-6.83839453648074e+18 0 0)
(-6.74687294791116e+18 0 0)
(-6.65333763925082e+18 0 0)
(-6.55963654989021e+18 0 0)
(-6.46601602958465e+18 0 0)
(-6.37182706496622e+18 0 0)
(-6.27656500570803e+18 0 0)
(-6.17990374829588e+18 0 0)
(-6.08159754176325e+18 0 0)
(-5.98141020142358e+18 0 0)
(-5.87908300047122e+18 0 0)
(-5.77432204846144e+18 0 0)
(-5.66677418075488e+18 0 0)
(-5.55609538412256e+18 0 0)
(-5.44179775054492e+18 0 0)
(-5.32316283381324e+18 0 0)
(-5.20111195217723e+18 0 0)
(-5.0698365012877e+18 0 0)
(-4.94140523941462e+18 0 0)
(-4.79058727142844e+18 0 0)
(-4.64974523871107e+18 0 0)
(-4.48797784440255e+18 0 0)
(-4.27338092544996e+18 0 0)
(-4.11525348953738e+18 0 0)
(-3.5110893369384e+18 0 0)
(-2.60796978143481e+18 0 0)
(-2.40290635240492e+18 0 0)
(-2.49551001793698e+18 0 0)
(-2.35299163172399e+18 0 0)
(-1.99689470019109e+18 0 0)
(-1.33861829090633e+18 0 0)
(-8.9480003475787e+17 0 0)
(-3.97301846360719e+17 0 0)
(7.32720567785882e+15 0 0)
(-9.45729718988046e+17 0 0)
(-1.52020190631979e+18 0 0)
(-7.51531019242308e+17 0 0)
(-1.06381896467454e+18 0 0)
(-2.56916765337348e+18 0 0)
(-2.74020296043581e+18 0 0)
(-2.81335339112989e+18 0 0)
(-4.3680436641501e+18 0 0)
(-4.47860884608175e+18 0 0)
(-3.92295289994609e+18 0 0)
(-4.17788244744523e+18 0 0)
(-3.21968457761214e+18 0 0)
(-1.32953071205902e+18 0 0)
(1.00267671917953e+17 0 0)
(2.22921188820753e+18 0 0)
(4.85156591113916e+18 0 0)
(6.85126473936798e+18 0 0)
(8.46519245092841e+18 0 0)
(9.62415449431448e+18 0 0)
(1.06173728300526e+19 0 0)
(1.04079507660965e+19 0 0)
(8.43260232239075e+18 0 0)
(8.01324025348647e+18 0 0)
(5.99857157010817e+18 0 0)
(4.57293241086915e+18 0 0)
(6.97771664509082e+18 0 0)
(-3.4179698637459e+18 0 0)
(-3.33904494615429e+17 0 0)
(1.77197516630573e+17 0 0)
(-2.29495180875169e+18 0 0)
(-2.50287224813266e+18 0 0)
(-2.40085313141547e+18 0 0)
(-2.37388939303959e+18 0 0)
(-2.52079598759827e+18 0 0)
(-2.73737098461819e+18 0 0)
(-2.91643037665977e+18 0 0)
(-3.01543550417791e+18 0 0)
(-3.05577083428066e+18 0 0)
(-3.06006239391805e+18 0 0)
(-3.03622670314491e+18 0 0)
(-3.00806003048644e+18 0 0)
(-2.96906198784014e+18 0 0)
(-2.92548076971514e+18 0 0)
(-2.8828931896691e+18 0 0)
(-2.83662518797066e+18 0 0)
(-2.78885937002452e+18 0 0)
(-2.74016513282549e+18 0 0)
(-2.69115375495561e+18 0 0)
(-2.64173798426315e+18 0 0)
(-2.59152733806739e+18 0 0)
(-2.54197146054488e+18 0 0)
(-2.49197619999824e+18 0 0)
(-2.44201758522073e+18 0 0)
(-2.39223818432392e+18 0 0)
(-2.34275511027271e+18 0 0)
(-2.29364757874719e+18 0 0)
(-2.24500302196617e+18 0 0)
(-2.19690504646028e+18 0 0)
(-2.14942360909287e+18 0 0)
(-2.10262116968939e+18 0 0)
(-2.05655283622972e+18 0 0)
(-2.01126637922404e+18 0 0)
(-1.96680287700892e+18 0 0)
(-1.923196659201e+18 0 0)
(-1.88047595169333e+18 0 0)
(-1.83866293600263e+18 0 0)
(-1.79777452657589e+18 0 0)
(-1.75782230352063e+18 0 0)
(-1.7188134716884e+18 0 0)
(-1.68075090624791e+18 0 0)
(-1.64363333081898e+18 0 0)
(-1.60746084823929e+18 0 0)
(-1.57221893662152e+18 0 0)
(-1.53790033888113e+18 0 0)
(-1.50443159240408e+18 0 0)
(-1.47193825412603e+18 0 0)
(-1.44034880452756e+18 0 0)
(-1.40957407672767e+18 0 0)
(-1.37964539553545e+18 0 0)
(-1.35053856715916e+18 0 0)
(-1.32223622303703e+18 0 0)
(-1.29471720298859e+18 0 0)
(-1.26796046993662e+18 0 0)
(-1.2419471275639e+18 0 0)
(-1.21665818547693e+18 0 0)
(-1.19201381098897e+18 0 0)
(-1.16810542985328e+18 0 0)
(-1.1448661574864e+18 0 0)
(-1.12220411225781e+18 0 0)
(-1.10017880717967e+18 0 0)
(-1.07874272297509e+18 0 0)
(-1.05788062059849e+18 0 0)
(-1.03757165403717e+18 0 0)
(-1.01779776624502e+18 0 0)
(-9.98537803952351e+17 0 0)
(-9.79780461916472e+17 0 0)
(-9.61450728419231e+17 0 0)
(-9.43660024605469e+17 0 0)
(-9.26341564605321e+17 0 0)
(-9.09421443041542e+17 0 0)
(-8.92924133674455e+17 0 0)
(-8.76833795926843e+17 0 0)
(-8.61139820568209e+17 0 0)
(-8.45829510781317e+17 0 0)
(-8.30890965874664e+17 0 0)
(-8.16312424040068e+17 0 0)
(-8.02082598875421e+17 0 0)
(-7.88190572021259e+17 0 0)
(-7.74625004199828e+17 0 0)
(-7.61377377941616e+17 0 0)
(-7.48423102616704e+17 0 0)
(-7.35785838581536e+17 0 0)
(-7.23173107104427e+17 0 0)
(-7.1142240783756e+17 0 0)
(-6.99675433729234e+17 0 0)
(-6.88222801792421e+17 0 0)
(-6.77016369416268e+17 0 0)
(-6.66094328218262e+17 0 0)
(-6.55120121082895e+17 0 0)
(-6.45040227406786e+17 0 0)
(-6.35040017179764e+17 0 0)
(-6.25196176996597e+17 0 0)
(-6.15316035190992e+17 0 0)
(-6.06660025896258e+17 0 0)
(-5.97435171098931e+17 0 0)
(-5.89375403440629e+17 0 0)
(-5.81278349630596e+17 0 0)
(-5.74808541741289e+17 0 0)
(-5.68710773447733e+17 0 0)
(-5.58846082160523e+17 0 0)
)
;

boundaryField
{
    electrode
    {
        type            calculated;
        value           uniform (-1.49589089820326e+19 0 0);
    }
    ground
    {
        type            calculated;
        value           uniform (-5.56304406652637e+17 0 0);
    }
    otherfaces
    {
        type            empty;
    }
}


// ************************************************************************* //
