/*--------------------------------*- C++ -*----------------------------------*\
| =========                 |                                                 |
| \\      /  F ield         | foam-extend: Open Source CFD                    |
|  \\    /   O peration     | Version:     4.0                                |
|   \\  /    A nd           | Web:         http://www.foam-extend.org         |
|    \\/     M anipulation  |                                                 |
\*---------------------------------------------------------------------------*/
FoamFile
{
    version     2.0;
    format      ascii;
    class       volScalarField;
    location    "4e-06";
    object      N_electronMean;
}
// * * * * * * * * * * * * * * * * * * * * * * * * * * * * * * * * * * * * * //

dimensions      [0 0 0 1 0 0 0];

internalField   nonuniform List<scalar> 
300
(
5.99507426662646e+16
5.9949285379402e+16
5.99451705682397e+16
5.99378745638306e+16
5.99274222871469e+16
5.99137696838847e+16
5.98968876240413e+16
5.987675833156e+16
5.98533661919265e+16
5.98266996123817e+16
5.97967504217661e+16
5.97635135458864e+16
5.97269867708155e+16
5.96871705056797e+16
5.9644067616291e+16
5.95976832601566e+16
5.95480247472742e+16
5.94951014211008e+16
5.9438924543167e+16
5.93795071843205e+16
5.93168641292525e+16
5.92510117865502e+16
5.91819681022464e+16
5.91097524713629e+16
5.90343856747517e+16
5.89558898307635e+16
5.88742883026492e+16
5.87896056066206e+16
5.87018673379705e+16
5.86111000697307e+16
5.85173312891418e+16
5.8420589384811e+16
5.83209035553043e+16
5.82183036586168e+16
5.81128201058245e+16
5.80044837773466e+16
5.78933259407985e+16
5.77793781764535e+16
5.76626722953222e+16
5.75432402559697e+16
5.74211140974245e+16
5.7296325870088e+16
5.71689075515911e+16
5.70388909696871e+16
5.69063077360077e+16
5.67711891814866e+16
5.6633566296355e+16
5.64934696771981e+16
5.63509294873185e+16
5.62059754301612e+16
5.60586367536528e+16
5.59089422556039e+16
5.57569202393743e+16
5.56025984276156e+16
5.54460038369246e+16
5.52871626484756e+16
5.51261000970049e+16
5.49628403835815e+16
5.47974066085937e+16
5.46298207066017e+16
5.44601033879789e+16
5.42882740847786e+16
5.41143508905914e+16
5.3938350547152e+16
5.37602884870951e+16
5.35801787750099e+16
5.3398033953184e+16
5.32138649479169e+16
5.30276810219005e+16
5.28394897250205e+16
5.26492968440824e+16
5.24571063770378e+16
5.22629205541283e+16
5.20667398081996e+16
5.18685626863338e+16
5.16683858460209e+16
5.1466204082613e+16
5.12620102806424e+16
5.1055795293205e+16
5.08475478639238e+16
5.06372546092443e+16
5.04248998927388e+16
5.02104657034185e+16
4.9993931607846e+16
4.97752747229835e+16
4.95544697243908e+16
4.93314887839813e+16
4.91063014496959e+16
4.8878874585106e+16
4.86491723529535e+16
4.84171561599908e+16
4.8182784668857e+16
4.79460138283883e+16
4.77067967262764e+16
4.74650834496244e+16
4.72208210399072e+16
4.697395344664e+16
4.672442148205e+16
4.64721627762524e+16
4.62171117514391e+16
4.59591995946425e+16
4.56983541940993e+16
4.54345001310846e+16
4.51675587067842e+16
4.48974478676965e+16
4.46240821539357e+16
4.4347372686859e+16
4.40672271357539e+16
4.37835497149011e+16
4.34962411355142e+16
4.32051985420212e+16
4.29103154901743e+16
4.26114819458275e+16
4.23085843149812e+16
4.20015054461713e+16
4.169012463449e+16
4.13743177104593e+16
4.10539570805047e+16
4.07289116607407e+16
4.03990468285649e+16
4.00642244751516e+16
3.97243030928602e+16
3.93791378508039e+16
3.90285806903691e+16
3.86724803209145e+16
3.83106821464681e+16
3.79430283060426e+16
3.75693577629916e+16
3.71895063342597e+16
3.68033067413222e+16
3.64105887126187e+16
3.60111790889266e+16
3.56049019158868e+16
3.51915785378996e+16
3.47710278056159e+16
3.4343066325535e+16
3.39075085355691e+16
3.34641667492871e+16
3.30128513579654e+16
3.25533710391418e+16
3.20855328527952e+16
3.16091423575836e+16
3.11240038076445e+16
3.06299203910154e+16
3.01266945518161e+16
2.96141282818898e+16
2.9092023273777e+16
2.85601810571369e+16
2.80184031433792e+16
2.74664913016701e+16
2.69042479657947e+16
2.63314764864135e+16
2.57479814318711e+16
2.51535690049774e+16
2.45480473355992e+16
2.39312269611582e+16
2.33029213101128e+16
2.26629475885429e+16
2.20111266983839e+16
2.1347283274723e+16
2.06712419976786e+16
1.99828050474949e+16
1.92817326190995e+16
1.85677582843217e+16
1.7840610415715e+16
1.71000115350801e+16
1.6345664513822e+16
1.55772472563666e+16
1.47944308540505e+16
1.39969259213751e+16
1.31845809079421e+16
1.23575449021545e+16
1.15164385177311e+16
1.06625389608772e+16
9.79811148608607e+15
8.92673104304488e+15
8.05344644407972e+15
7.18502475854318e+15
6.33005561571363e+15
5.49867434730429e+15
4.70214920658676e+15
3.95223994243048e+15
3.2601935911314e+15
2.63569940074924e+15
2.08593006906127e+15
1.61469698496628e+15
1.22205421112014e+15
904425853425361
655140491990752
465337782597570
325028159417283
224154768024076
153452684743350
104980156131925
71715506256349.8
48671419065725.3
32711206615296.6
21826166778362.1
14572120169564.1
9814274705577.13
6789162225252.47
4942001086869.02
3846624914951.73
3201739850453.76
2815422084258.23
2575153277282.85
2418279899529.87
2310287756527.27
2231786141916.63
2171487520722.8
2122601082895.91
2080866053925.5
2043519693646.85
2008722553363.54
1975260364146.72
1942315212951.31
1909343981926.69
1875996000773.06
1842054297020.65
1807401001132.15
1771985860312.01
1735787741794.54
1698833461728.32
1661203273847.48
1623001468437.56
1584347536408.55
1545368573989.97
1506192742458.17
1466946122035.15
1427749853647.66
1388718173538.57
1349958226793.81
1311568001913.3
1273636417202.72
1236243548077.5
1199459991250.51
1163346894830.35
1127957211788.5
1093334891974.64
1059515909679.81
1026529295029.36
994396829208.335
963134836287.132
932754227355.808
903260870776.474
874655906206.201
846934338186.484
820086943436.297
794101363328.808
768963005375.889
744657212021.957
721168498357.643
698479699720.774
676571995105.379
655425637622.984
635020898914.649
615337387716.272
596351939871.1
578041140000.243
560384251387.219
543360925666.644
526949601987.912
511128978618.797
495877717209.936
481174874359.536
467000271120.634
453332552854.444
440149979970.399
427432468143.45
415161251474.616
403318239108.354
391887100540.006
380853112694.833
370202959656.907
359924089823.412
350004739994.845
340433808594.328
331200690731.808
322295654434.099
313709859217.931
305435117335.341
297462794230.874
289783081012.581
282372727189.458
275208498895.206
268287379316.083
261615271906.624
255199198652.398
249046227897.271
243136822296.188
237450069301.045
232005197551.908
226835922990.99
221938587362.957
217343432417.311
213122580743.24
209390280384.115
206385525078.329
204485398500.026
204377626669.034
)
;

boundaryField
{
    electrode
    {
        type            calculated;
        value           uniform 5.99507426665595e+16;
    }
    ground
    {
        type            calculated;
        value           uniform 205712866292.361;
    }
    otherfaces
    {
        type            empty;
    }
}


// ************************************************************************* //
