/*--------------------------------*- C++ -*----------------------------------*\
| =========                 |                                                 |
| \\      /  F ield         | foam-extend: Open Source CFD                    |
|  \\    /   O peration     | Version:     4.0                                |
|   \\  /    A nd           | Web:         http://www.foam-extend.org         |
|    \\/     M anipulation  |                                                 |
\*---------------------------------------------------------------------------*/
FoamFile
{
    version     2.0;
    format      ascii;
    class       volScalarField;
    location    "4e-06";
    object      Phi;
}
// * * * * * * * * * * * * * * * * * * * * * * * * * * * * * * * * * * * * * //

dimensions      [0 0 0 1 0 0 0];

internalField   nonuniform List<scalar> 
300
(
699.999924233093
699.999701219157
699.999176007866
699.998382161547
699.997328906053
699.996010665641
699.994428545674
699.992582386145
699.990471894036
699.988096902852
699.985457186763
699.982552503901
699.979382595464
699.975947180996
699.972245958643
699.968278603962
699.964044768799
699.959544080313
699.954776140029
699.94974052301
699.944436777136
699.938864422378
699.933022949621
699.926911817057
699.920530441493
699.913878193192
699.906954393978
699.899758316026
699.892289180478
699.884546155663
699.876528354911
699.86823483403
699.859664588522
699.85081655059
699.841689586007
699.832282490837
699.822593988062
699.812622724082
699.802367265124
699.791826093527
699.780997603937
699.769880099374
699.758471787201
699.746770774969
699.734775066153
699.722482555777
699.709891025914
699.696998141069
699.683801443454
699.670298348129
699.656486138035
699.642361958896
699.627922814006
699.613165558884
699.59808689581
699.582683368233
699.566951355046
699.550887064734
699.534486529391
699.517745598604
699.500659933189
699.483224998805
699.465436059417
699.44728817061
699.428776172763
699.409894684066
699.390638093387
699.371000552966
699.350975970961
699.330558003806
699.309740048404
699.288515234132
699.266876414655
699.244816159543
699.222326745681
699.199400148462
699.176028032752
699.152201743621
699.127912296818
699.103150368985
699.077906287596
699.052170020594
699.025931165724
698.999178939531
698.971902166008
698.944089264868
698.915728239427
698.88680666405
698.857311671157
698.827229937738
698.796547671349
698.765250595565
698.733323934828
698.700752398663
698.667520165213
698.633610864038
698.599007558129
698.563692725065
698.52764823727
698.490855341276
698.453294635932
698.414946049473
698.375788815347
698.335801446724
698.294961709557
698.253246594094
698.210632284708
698.167094127913
698.122606598399
698.07714326294
698.030676741988
697.983178668747
697.934619645518
697.884969197085
697.834195720863
697.782266433534
697.729147313853
697.674803041275
697.619196930019
697.562290858143
697.504045191161
697.444418699682
697.383368470493
697.320849810435
697.256816142371
697.191218892427
697.124007367627
697.055128622907
696.984527316404
696.912145551729
696.837922705824
696.761795240777
696.683696497777
696.603556471113
696.521301559778
696.436854293686
696.350133029977
696.261051617273
696.169518979686
696.075438449674
695.978707286063
695.879216277003
695.776849224377
695.671482309406
695.562983359915
695.45121102085
695.336013818833
695.217229105704
695.094681862679
694.968183342122
694.837529518985
694.702499338101
694.562852659945
694.418327968786
694.26863985764
694.113475012453
693.952491591842
693.785308199995
693.611511253955
693.43063285238
693.242154541697
693.045514051186
692.839927874604
692.624425459721
692.398017770736
692.159618461029
691.9080089024
691.641741729544
691.359058778096
691.057977603938
690.736054274025
690.390615961681
690.019087919343
689.618367663236
689.184572722832
688.713795845919
688.202142403499
687.644746235173
687.036644156133
686.373391062812
685.649559939735
684.859889803947
683.999835463176
683.064476160033
682.048979543928
680.950000773816
679.763979124432
678.487696421902
677.119007447993
675.656599959564
674.099188769208
672.44584406768
670.696618936694
668.851978598588
666.912288847317
664.878015006272
662.748985480957
660.525427349121
658.207732444473
655.795112315311
653.286803076305
650.682191795262
647.980456807851
645.181619237926
642.286085439332
639.29470578329
636.208457260311
633.028289447222
629.755146137527
626.389862673036
622.933238940427
619.385945159211
615.748663106977
612.022358939575
608.207943879117
604.306229359119
600.317981532362
596.24387392099
592.084546074978
587.840552446959
583.51242406828
579.100613186979
574.605557519522
570.027621650739
565.36716452737
560.624623703515
555.800574991553
550.895525762912
545.909990403928
540.844416604491
535.699263513527
530.474924966609
525.171810280404
519.790265559482
514.330656228593
508.793286887642
503.178484992284
497.486518470648
491.71768177093
485.872209939695
479.950368385438
473.952362566349
467.87843129176
461.728887822688
455.504127334033
449.204487825603
442.830339816899
436.381995705146
429.859803120885
423.264051794558
416.595068669681
409.853122901472
403.038523299004
396.151520419706
389.192406150885
382.161413570704
375.058818832874
367.884837969769
360.639732167632
353.323701447048
345.936992772947
338.479790552231
330.952328288094
323.354775721959
315.687352948025
307.950215144449
300.143569422882
292.267557022653
284.322434917727
276.30844654565
268.225893862381
260.075007041601
251.856077036891
243.569321702732
235.215022063136
226.793384672683
218.304681265579
209.749107208185
201.126924905499
192.438318643416
183.68354174303
174.862767481665
165.97624004034
157.024121709237
148.006648099616
138.923971257885
129.776318862455
120.563833085765
111.286734066403
101.945154409232
92.5393073475425
83.069316860216
73.5353902120445
63.9376430110849
54.2762767112197
44.5513991828297
34.7632069532269
24.9118009151364
14.9973737902077
5.020020771958
)
;

boundaryField
{
    electrode
    {
        type            fixedValue;
        value           uniform 700;
    }
    ground
    {
        type            fixedValue;
        value           uniform 0;
    }
    otherfaces
    {
        type            empty;
    }
}


// ************************************************************************* //
