/*--------------------------------*- C++ -*----------------------------------*\
| =========                 |                                                 |
| \\      /  F ield         | foam-extend: Open Source CFD                    |
|  \\    /   O peration     | Version:     4.0                                |
|   \\  /    A nd           | Web:         http://www.foam-extend.org         |
|    \\/     M anipulation  |                                                 |
\*---------------------------------------------------------------------------*/
FoamFile
{
    version     2.0;
    format      ascii;
    class       volScalarField;
    location    "4e-06";
    object      PhiMean;
}
// * * * * * * * * * * * * * * * * * * * * * * * * * * * * * * * * * * * * * //

dimensions      [0 0 0 1 0 0 0];

internalField   nonuniform List<scalar> 
300
(
699.981623256149
699.979876570948
699.977873034491
699.975630243419
699.973157867527
699.970448475304
699.967500726407
699.964313106189
699.96088417285
699.957212855184
699.953298276122
699.94913977494
699.944736862107
699.940089206466
699.935196620154
699.930059043755
699.924676534268
699.91904925729
699.913177476964
699.907061546569
699.900701902085
699.894099055459
699.887253588389
699.880166146086
699.872837430165
699.86526820735
699.85745929436
699.849411552455
699.841125886381
699.832603233167
699.823844553995
699.814850851404
699.805623158661
699.796162518921
699.786469981059
699.776546594544
699.766393403288
699.756011443317
699.745401736522
699.73456528355
699.723503060896
699.712216018281
699.700705069505
699.688971088043
699.67701490245
699.664837291896
699.652438981602
699.639820639857
699.626982874796
699.61392623624
699.600651215683
699.58715826107
699.573447763985
699.559520061699
699.545375414083
699.531013994502
699.516435873691
699.501641013105
699.486629259121
699.471400335893
699.45595384012
699.440289235067
699.424405843351
699.408302839553
699.391979272852
699.375434058916
699.358665944389
699.341673501146
699.324455120206
699.307009004336
699.289333160544
699.27142539073
699.253283301015
699.23490429943
699.216285567231
699.197424063183
699.178316534572
699.158959499001
699.139349232632
699.119481732993
699.099352752425
699.078957745782
699.058291855621
699.037349905265
699.016126380966
698.994615442898
698.972810904606
698.950706201284
698.928294374169
698.905568068443
698.882519510784
698.859140490407
698.835422394763
698.811356136306
698.786932128791
698.762140270873
698.736969922965
698.711409888387
698.685448385288
698.659073029139
698.632270810742
698.605028062604
698.577330424389
698.549162853389
698.520509559082
698.491353974146
698.461678732906
698.431465615306
698.40069553306
698.369348472783
698.337403443405
698.304838434036
698.271630361093
698.237755029069
698.2031870779
698.167899909655
698.131865658056
698.095055133068
698.057437719853
698.018981293639
697.979652136985
697.939414884208
697.898232406674
697.856065753224
697.81287401774
697.768614190796
697.723241028863
697.676706942012
697.62896181335
697.579952839468
697.529624352894
697.477917633716
697.424770692062
697.37011802582
697.313890374685
697.256014501576
697.196412842226
697.135003135961
697.071698068078
697.006404879159
696.939024862775
696.869452837036
696.797576570537
696.723276137311
696.646423217454
696.566880319283
696.484499807215
696.399122853417
696.31057821521
696.218680865185
696.123230528508
696.024009859164
695.920782370174
695.81329015838
695.701251066212
695.584355515308
695.462262854351
695.334596771343
695.200940803463
695.060830310708
694.9137488
694.759108334046
694.596219128638
694.424286648037
694.242406321775
694.049536541206
693.844465429579
693.625760727748
693.391729753649
693.14035956864
692.86926802835
692.575691433544
692.256460345626
691.907825243192
691.525474702652
691.104703839013
690.640164994113
690.125910113259
689.555817486293
688.923304453215
688.221542827558
687.443951164621
686.584119841872
685.635874037732
684.594076196353
683.454271981572
682.212773514912
680.867107580574
679.415859099492
677.858291797299
676.194343244707
674.424636161108
672.550411868407
670.57320221677
668.494287516928
666.314714560391
664.035267639645
661.656501700797
659.178853565957
656.602675748996
653.928399460926
651.15650802486
648.287634054691
645.322704876761
642.262859604649
639.109204650899
635.862791930696
632.524584114386
629.095481151811
625.576292009197
621.967770259157
618.27058554631
614.485494009841
610.613372419462
606.655046818425
602.611269243811
598.482752852412
594.270145844455
589.974067756487
585.59508052117
581.133726169334
576.590495293267
571.965866247327
567.260271922002
562.474141221968
557.607969284471
552.662351177457
547.637836746149
542.534971805527
537.354259576629
532.096203680126
526.761266990392
521.349918108423
515.862589992294
510.299725436343
504.661730469375
498.94902354082
493.161986648703
487.30101704001
481.366475912838
475.358742696133
469.278161857963
463.125102705369
456.899973335092
450.603263319235
444.235414397169
437.796894564513
431.288123309746
424.709548811598
418.061569807753
411.344616233965
404.559067315556
397.70533615208
390.783783473277
383.794806773337
376.73874920428
369.615993685716
362.42686665212
355.171737308426
347.850916226444
340.464759605244
333.013562932709
325.497670134098
317.917362090737
310.272971150221
302.564769331914
294.793091928668
286.958213022094
279.060503550959
271.100298007369
263.078005765162
254.993948070381
246.848523733499
238.642039578326
230.374884518734
222.04735138785
213.659819823187
205.212569134381
196.70597025103
188.140289429777
179.51588942829
170.833023822317
162.092047751364
153.293202477563
144.436836200563
135.523178285333
126.552570539711
117.525230719795
108.441494737299
99.3015690088536
90.1057839730739
80.8543352208782
71.5475484206456
62.1856086173215
52.7688370763569
43.2974089357411
33.7716419234629
24.1917017278439
14.5579036729834
4.8704048723746
)
;

boundaryField
{
    electrode
    {
        type            calculated;
        value           uniform 700.000000000588;
    }
    ground
    {
        type            calculated;
        value           uniform 0;
    }
    otherfaces
    {
        type            empty;
    }
}


// ************************************************************************* //
