/*--------------------------------*- C++ -*----------------------------------*\
| =========                 |                                                 |
| \\      /  F ield         | foam-extend: Open Source CFD                    |
|  \\    /   O peration     | Version:     4.0                                |
|   \\  /    A nd           | Web:         http://www.foam-extend.org         |
|    \\/     M anipulation  |                                                 |
\*---------------------------------------------------------------------------*/
FoamFile
{
    version     2.0;
    format      ascii;
    class       volScalarField;
    location    "4e-06";
    object      Sy_electron;
}
// * * * * * * * * * * * * * * * * * * * * * * * * * * * * * * * * * * * * * //

dimensions      [1 -3 -1 0 0 0 0];

internalField   nonuniform List<scalar> 
300
(
3.40850786221361e-09
3.40931459225664e-09
3.40963900326888e-09
3.40959271327517e-09
3.40957949555083e-09
3.4095215251143e-09
3.40942785129734e-09
3.40930443215289e-09
3.40914883915671e-09
3.4089613893545e-09
3.40874201170499e-09
3.40849052930785e-09
3.4082068385187e-09
3.40789082599451e-09
3.40754238259876e-09
3.40716140466388e-09
3.40674779128116e-09
3.40630144402429e-09
3.4058222663269e-09
3.40531016340015e-09
3.40476504362425e-09
3.40418682341265e-09
3.40377728025155e-09
3.40364567918517e-09
3.40350321523703e-09
3.40334983743471e-09
3.40318547730028e-09
3.40301005764328e-09
3.40282349572639e-09
3.40262570341744e-09
3.40241658592586e-09
3.40219604008785e-09
3.40196395241794e-09
3.40172019719608e-09
3.40146463468987e-09
3.40119710943865e-09
3.40091744855688e-09
3.40062546007579e-09
3.400320931248e-09
3.40000362681769e-09
3.39967328728448e-09
3.39932962711808e-09
3.39897233291964e-09
3.39860106155077e-09
3.39821543824226e-09
3.39781505465147e-09
3.39739946686947e-09
3.396968193421e-09
3.39652071319935e-09
3.39605646341245e-09
3.39557483744495e-09
3.39507518278017e-09
3.3945567987579e-09
3.39401893444365e-09
3.39346078636829e-09
3.39288149629706e-09
3.39228014894183e-09
3.39165576968717e-09
3.3910073222895e-09
3.3903337065679e-09
3.38963375605151e-09
3.38890623563947e-09
3.38814983924434e-09
3.38736318740284e-09
3.38654482496316e-09
3.38569321871554e-09
3.38480675494456e-09
3.38388373709569e-09
3.38292238340667e-09
3.38192082454599e-09
3.38087710126181e-09
3.37978916203257e-09
3.37865486076263e-09
3.37747195448236e-09
3.37623810102265e-09
3.37495085680039e-09
3.37360767457357e-09
3.37220590121447e-09
3.37074277558789e-09
3.36921542629578e-09
3.36762086975389e-09
3.36595600798821e-09
3.36421762665597e-09
3.36240239309244e-09
3.36050685435599e-09
3.35852743541544e-09
3.35646043730323e-09
3.35430203533427e-09
3.35204827739376e-09
3.34969508234253e-09
3.34723823837955e-09
3.34467340148103e-09
3.3419960941467e-09
3.33920170378213e-09
3.33628548143237e-09
3.33324254052416e-09
3.33006785566454e-09
3.32675626149014e-09
3.32330245158685e-09
3.31970097749387e-09
3.31594624773485e-09
3.31203252690449e-09
3.30795393476358e-09
3.30370444556092e-09
3.29927788712984e-09
3.29466794019344e-09
3.28986813769002e-09
3.28487186400153e-09
3.27967235435302e-09
3.27426269405861e-09
3.26863581781634e-09
3.26278450898387e-09
3.25670139875571e-09
3.25037896533902e-09
3.24380953299672e-09
3.23698527095953e-09
3.22989819226935e-09
3.22254015247219e-09
3.21490284798456e-09
3.20697781434842e-09
3.19875642416706e-09
3.19022988483432e-09
3.18138923573457e-09
3.17222534524268e-09
3.16272890711507e-09
3.15289043640152e-09
3.14270026475971e-09
3.13214853521903e-09
3.12122519604135e-09
3.10991999388861e-09
3.09822246603964e-09
3.08612193178546e-09
3.07360748313052e-09
3.06066797584767e-09
3.04729202465139e-09
3.03346801431706e-09
3.01918415390245e-09
3.00465929372502e-09
2.99123617344608e-09
2.97734069966039e-09
2.9629589782214e-09
2.94807665814554e-09
2.93267921985829e-09
2.91675182304067e-09
2.90027915235391e-09
2.88324531228415e-09
2.865633751162e-09
2.84742719347257e-09
2.82860757750463e-09
2.80915596289706e-09
2.78905246278706e-09
2.76827627306958e-09
2.74680487113577e-09
2.72461620170421e-09
2.70168327456118e-09
2.67798312338923e-09
2.65348708292674e-09
2.62816264413888e-09
2.6020070173256e-09
2.57497413831922e-09
2.54722463716953e-09
2.51912224058149e-09
2.49037425975585e-09
2.46028022835151e-09
2.42601087787913e-09
2.38901365836803e-09
2.35072376723112e-09
2.31106637690126e-09
2.26978283767908e-09
2.22667241261922e-09
2.18055266298552e-09
2.13046315543045e-09
2.07747382324377e-09
2.02178309497245e-09
1.96155976294752e-09
1.89440639672884e-09
1.8170961293039e-09
1.73605219972745e-09
1.6517514146717e-09
1.56710961110424e-09
1.48343025633764e-09
1.40071484508388e-09
1.31031750414985e-09
1.2308454739755e-09
1.16667012274746e-09
1.10605158346402e-09
1.06678090632904e-09
1.0428829001772e-09
1.04756164369361e-09
1.08195286904458e-09
1.15348699538172e-09
1.27739496534043e-09
1.48841522481518e-09
1.82300040342656e-09
2.37240701869103e-09
3.3250327418127e-09
4.5212958766808e-09
5.61713257791644e-09
6.8445184833902e-09
7.55550421125129e-09
7.21552308897416e-09
6.18232488450801e-09
4.90764766532195e-09
3.79329222588247e-09
2.92177168968913e-09
2.33470866915136e-09
1.95543374938478e-09
1.71880062282864e-09
1.56503048969925e-09
1.47614637420789e-09
1.41895853978511e-09
1.38900215801805e-09
1.37608105353228e-09
1.36833693797854e-09
1.36666314546916e-09
1.36851603796722e-09
1.37183439013757e-09
1.37530515525719e-09
1.37799753449025e-09
1.37928703584852e-09
1.37871421481909e-09
1.37584732499993e-09
1.36942099858102e-09
1.36079571337797e-09
1.35000748324678e-09
1.33714282290697e-09
1.32232437914528e-09
1.30569852978437e-09
1.28742645962843e-09
1.26767778551291e-09
1.24662558042176e-09
1.22444250315608e-09
1.20129778563714e-09
1.17735491549133e-09
1.1527698882354e-09
1.12768992949185e-09
1.10225260148788e-09
1.07658523625552e-09
1.05080463226368e-09
1.02501697338008e-09
9.9931795000982e-10
9.73792998831792e-10
9.48518129826975e-10
9.23560544184903e-10
8.98978969902375e-10
8.74817686628675e-10
8.51109539199027e-10
8.27887673817674e-10
8.05183210858297e-10
7.83020938139343e-10
7.61419898089959e-10
7.40393721071346e-10
7.19951232986896e-10
7.00097042785876e-10
6.8083241389192e-10
6.62156580434283e-10
6.44062300974687e-10
6.26538690902798e-10
6.09576793431639e-10
5.9316758220582e-10
5.77298494710922e-10
5.61956003778161e-10
5.47125670307959e-10
5.32792487443885e-10
5.18941077282178e-10
5.05555586094165e-10
4.9261996890011e-10
4.80112576951657e-10
4.68008386583667e-10
4.56289134398179e-10
4.44941352691752e-10
4.33952374100847e-10
4.23310215464616e-10
4.13003395014043e-10
4.03020978704984e-10
3.93352621898369e-10
3.83988622955719e-10
3.74919974690602e-10
3.66138428954843e-10
3.57636489926095e-10
3.49407568969479e-10
3.41365108752323e-10
3.33088295858807e-10
3.25026771647894e-10
3.17148462946175e-10
3.0946068916095e-10
3.01974298697084e-10
2.94701575852748e-10
2.87654687491919e-10
2.79761398251942e-10
2.71922973813728e-10
2.64272849034089e-10
2.56851523738111e-10
2.47875513607484e-10
2.38943622390974e-10
2.29232360007785e-10
2.17953012179287e-10
2.04471355114909e-10
1.87627218317714e-10
1.64066869519918e-10
)
;

boundaryField
{
    electrode
    {
        type            zeroGradient;
    }
    ground
    {
        type            zeroGradient;
    }
    otherfaces
    {
        type            empty;
    }
}


// ************************************************************************* //
