/*--------------------------------*- C++ -*----------------------------------*\
| =========                 |                                                 |
| \\      /  F ield         | foam-extend: Open Source CFD                    |
|  \\    /   O peration     | Version:     4.0                                |
|   \\  /    A nd           | Web:         http://www.foam-extend.org         |
|    \\/     M anipulation  |                                                 |
\*---------------------------------------------------------------------------*/
FoamFile
{
    version     2.0;
    format      ascii;
    class       volScalarField;
    location    "4e-06";
    object      Te;
}
// * * * * * * * * * * * * * * * * * * * * * * * * * * * * * * * * * * * * * //

dimensions      [0 0 0 1 0 0 0];

internalField   nonuniform List<scalar> 
300
(
40324.9157069858
40325.2218469177
40325.412921694
40325.5342810713
40325.7226065085
40325.9517750584
40326.2249766188
40326.5442442506
40326.9087956226
40327.3187768125
40327.7742042476
40328.2750626449
40328.821365072
40329.4131251993
40330.0503622452
40330.733101601
40331.4613741299
40332.2352162705
40333.0546700267
40333.9197831173
40334.8306096406
40335.7872120016
40336.7896651492
40337.8380574553
40338.9324826613
40340.0730343673
40341.2598096745
40342.4929119731
40343.7724521051
40345.0985487263
40346.4713283178
40347.8909251036
40349.3574809806
40350.8711454949
40352.432075875
40354.0404371079
40355.6964020438
40357.4001515252
40359.1518745296
40360.9517683236
40362.8000386247
40364.6968997705
40366.6425748962
40368.6372961167
40370.6813047201
40372.7748513707
40374.9181963171
40377.1116096074
40379.3553713208
40381.649771806
40383.9951119258
40386.3917033188
40388.8398686707
40391.3399419932
40393.8922689219
40396.4972070195
40399.1551260972
40401.8664085486
40404.6314496966
40407.4506581574
40410.3244562163
40413.253280225
40416.2375810144
40419.2778243205
40422.3744912333
40425.528078664
40428.7390998341
40432.0080847836
40435.3355808995
40438.7221534732
40442.1683862782
40445.674882175
40449.24226374
40452.8711739262
40456.5622767554
40460.3162580336
40464.1338261059
40468.0157126456
40471.9626734762
40475.9754894326
40480.0549672646
40484.2019405822
40488.4172708447
40492.7018483962
40497.0565935542
40501.4824577491
40505.9804247182
40510.5515117638
40515.1967710681
40519.9172910775
40524.7141979593
40529.5886571267
40534.5418748522
40539.5750999583
40544.6896256006
40549.8867911484
40555.1679841631
40560.5346424889
40565.9882564573
40571.530371216
40577.1625891901
40582.8865726867
40588.7040466455
40594.6168015582
40600.6266965599
40606.7356627026
40612.9457064375
40619.2589133091
40625.6774518805
40632.2035779113
40638.8396388065
40645.5880783566
40652.4514417923
40659.4323811847
40666.5336612132
40673.7581653345
40681.1089023925
40688.5890136999
40696.2017806395
40703.9506328321
40711.8391569191
40719.8711060206
40728.0504099382
40736.3811861666
40744.867751798
40753.5146364178
40762.3265960791
40771.3086284815
40780.4659894849
40789.804211095
40799.3291211152
40809.0468646777
40818.9639279846
40829.0871649091
40839.4238280643
40849.9816088225
40860.7686965559
40871.7939577578
40883.0669426329
40894.597578479
40906.396164196
40918.4737172619
40930.842133659
40943.5142241295
40956.5037633747
40969.8255683809
40983.495600781
40997.5310884931
41011.9506684059
41026.774541519
41042.0246619587
41057.7249900198
41073.9014988244
41090.5832369468
41107.8008574698
41125.5901082452
41143.9890218788
41163.0390685346
41182.7979561818
41203.3148097828
41224.7229360168
41247.2485833071
41270.900142433
41295.5476040006
41321.2613445632
41348.249608195
41376.7706197325
41407.0123698192
41439.1215715208
41473.3095755659
41509.3820120894
41547.2330611454
41587.7045542641
41631.3055370169
41677.5816215763
41726.9713917203
41780.6987785252
41838.820369608
41902.0359445063
41972.7445673545
42052.5338860477
42143.8088149522
42251.6956062048
42381.7018007449
42541.0945970296
42741.9795251435
42999.7061321272
43333.9924118632
43773.3322655304
44359.6444130349
45149.9393709934
46210.2435102792
47650.379752028
49640.4580807543
52398.4730777049
56382.3891001652
61574.7490525219
68063.6513574437
77921.6067868116
91999.8750448305
110851.172821774
136639.454912353
171357.993344031
216060.800581486
269723.823826439
329049.229614926
389802.883265879
448359.506292321
502353.225003345
550804.406088132
593558.469575702
630938.911362074
663631.577848428
692230.02587411
717318.287961304
739488.564909508
759222.617937365
776915.283806004
792891.51275395
807428.670980262
820742.799750265
833011.197095542
844395.889906236
855027.168797972
865012.372669066
874440.452145432
883385.351535422
891908.306257131
900059.904707178
907881.809623289
915408.088733033
922666.301289802
929678.387279384
936461.401026832
943028.121680161
949387.564636927
955545.412993634
961504.385621043
967264.552961897
972823.607205154
978177.108407278
983318.618700942
988240.000045846
992931.636679346
997383.615320505
1001583.07646139
1005514.18199936
1009163.03847438
1012515.61488842
1015556.08433034
1018267.91251535
1020633.84355306
1022636.04000796
1024256.08432189
1025474.9748684
1026271.85686829
1026622.42470577
1026523.50482021
1025944.87000479
1024867.12744297
1023269.07524737
1021129.95440213
1018428.67504383
1015143.92317868
1011254.18324257
1006737.52737787
1001573.42595905
995739.273184156
989209.758651419
981962.52981086
973974.978176863
965222.368728659
955679.12399786
945318.613293609
934113.108236325
922033.627108263
909049.770272698
895129.517205616
880239.030571285
864342.311660844
847401.517017055
829375.132634916
810229.993774689
789914.997383829
768372.979542116
745555.274816236
721392.797841831
695808.642605524
668731.117252942
640069.997230283
609713.242116775
577540.947354609
543412.026800587
507140.093710494
468503.184113603
427217.923959926
382886.825877289
334964.227972063
282647.626219923
224886.661337907
)
;

boundaryField
{
    electrode
    {
        type            electronTemperature;
        seec            0.05;
        Tse             1000;
        Edepend         1;
        TFN             1000;
        field_emission  0;
        field_enhancement_factor 55;
        work_function   5;
        value           uniform 40324.9157069858;
    }
    ground
    {
        type            electronTemperature;
        seec            0.05;
        Tse             1000;
        Edepend         1;
        TFN             1000;
        field_emission  0;
        field_enhancement_factor 55;
        work_function   5;
        value           uniform 192101.881198555;
    }
    otherfaces
    {
        type            empty;
    }
}


// ************************************************************************* //
