/*--------------------------------*- C++ -*----------------------------------*\
| =========                 |                                                 |
| \\      /  F ield         | foam-extend: Open Source CFD                    |
|  \\    /   O peration     | Version:     4.0                                |
|   \\  /    A nd           | Web:         http://www.foam-extend.org         |
|    \\/     M anipulation  |                                                 |
\*---------------------------------------------------------------------------*/
FoamFile
{
    version     2.0;
    format      ascii;
    class       volScalarField;
    location    "4e-06";
    object      TeMean;
}
// * * * * * * * * * * * * * * * * * * * * * * * * * * * * * * * * * * * * * //

dimensions      [0 0 0 1 0 0 0];

internalField   nonuniform List<scalar> 
300
(
32244.0137882818
32244.3012574327
32244.3942223867
32244.3199212332
32244.2364406875
32244.1263169049
32243.9921225611
32243.8372616854
32243.6622403857
32243.4680162262
32243.2554868708
32243.0255090612
32242.7789123083
32242.5164746509
32242.2389466694
32241.9470490469
32241.6414707148
32241.3228763585
32240.9919056736
32240.6491730566
32240.2952720275
32239.9307718374
32239.5562212846
32239.1721475239
32238.7790554028
32238.3774450151
32237.9677999915
32237.5505832358
32237.1262506365
32236.6952324404
32236.2579311497
32235.8147607001
32235.3661424991
32234.912474021
32234.4541377148
32233.9914945264
32233.5248966814
32233.0547017938
32232.5812588987
32232.1049012322
32231.6259494747
32231.1447299079
32230.6615612525
32230.176750047
32229.6905961781
32229.2033923891
32228.7154234595
32228.2269646173
32227.73827629
32227.2496039502
32226.7611785135
32226.2732398285
32225.7860498933
32225.2998634075
32224.8149353856
32224.331530648
32223.8498984869
32223.3702757675
32222.8929075008
32222.4180365912
32221.9459012618
32221.4767495154
32221.010800361
32220.5482601886
32220.0893792434
32219.6344277992
32219.1836662912
32218.7373484668
32218.2957273357
32217.8590628355
32217.4276087161
32217.0015984243
32216.5812865734
32216.1669429076
32215.7588179851
32215.3571470645
32214.9621946001
32214.5742661981
32214.1936471462
32213.8206119786
32213.4554792824
32213.0985790461
32212.7502175858
32212.4106894409
32212.0802928369
32211.7593658627
32211.4482792782
32211.1473921112
32210.8570550866
32210.5776417262
32210.30951303
32210.0530357986
32209.808659726
32209.5768194953
32209.3579411575
32209.1524969147
32208.9609585679
32208.7838143196
32208.6215600606
32208.4747132338
32208.3438367987
32208.229466716
32208.1321535749
32208.0525235837
32207.9912164077
32207.9488834286
32207.9261926665
32207.9238413942
32207.9425750286
32207.983164127
32208.0464106846
32208.1331456399
32208.244220565
32208.3805565055
32208.5430960405
32208.7327996582
32208.9506630637
32209.1977616377
32209.4752533762
32209.7842830944
32210.1260381668
32210.5017826995
32210.9128314287
32211.360590515
32211.8465719432
32212.3723323287
32212.9394649568
32213.5496758488
32214.2047833223
32214.9066615342
32215.6572773749
32216.4587354545
32217.3132759422
32218.2231951981
32219.1909030231
32220.2190648247
32221.3105170796
32222.4682139651
32223.6953294996
32224.9953006378
32226.3718000485
32227.8287344982
32229.3702783557
32231.0009084129
32232.7254984112
32234.5493972343
32236.4784398575
32238.519011194
32240.6779967374
32242.9629254514
32245.3822242597
32247.9451636047
32250.6620137196
32253.5443444082
32256.6049849475
32259.8584859667
32263.32108964
32267.0121173571
32270.9537753136
32275.1750226626
32279.7269212302
32284.666424586
32290.0250164741
32295.8330628086
32302.1515112124
32309.0702182811
32316.6943190516
32325.1316563835
32334.4907653383
32344.8511535157
32356.2422400745
32368.7533027183
32382.544738786
32397.5716307241
32413.7501852474
32431.3103792201
32450.3379824476
32470.9337043903
32493.9686347409
32520.729060366
32553.2318743145
32595.5215306652
32653.8204423368
32737.3933110205
32861.0630159457
33046.8284888078
33326.7227349662
33749.0409158613
34386.5790597482
35350.3962776983
36812.9949377009
39050.4233894818
42516.5239694948
48100.2248599151
56674.6439656757
68773.5047214586
86430.5491210698
110561.761618061
142990.801614006
183891.459772295
232564.705547573
286912.69160457
344217.965075675
401385.728413453
455767.447352245
505620.768236149
550182.024180518
589401.321791058
623682.133286348
653624.557960583
679840.154989359
702895.558335396
723300.661378013
741492.438936291
757842.639408848
772662.184547818
786204.922024712
798679.381920703
810256.91851354
821077.438783622
831256.111699546
840885.238822733
850042.965632228
858798.066640785
867205.496747185
875309.994469411
883147.961783423
890748.686912813
898135.393568761
905326.124264808
912334.4407792
919170.011397447
925839.096421525
932344.836806084
938687.669599886
944865.72443163
950874.987199469
956709.55050855
962361.808984062
967822.649971926
973081.603932637
978126.964556219
982945.969431291
987525.023394155
991849.821768416
995905.517605714
999676.168228838
1003145.27259757
1006296.21414545
1009111.64937803
1011574.66323244
1013668.42767714
1015375.47588548
1016678.18549153
1017558.60036561
1017998.72181267
1017977.48171215
1017478.4595938
1016491.0745653
1014991.43629978
1012961.34419253
1010381.99047171
1007234.79306862
1003500.98653964
999161.614218859
994198.081617951
988590.86834424
982319.513512205
975364.315928987
967704.954880584
959320.021261048
950187.634658297
940285.295654437
929589.251575599
918074.484497655
905714.679039868
892482.100758448
878347.394421575
863279.435432958
847245.046139985
830208.908919065
812133.426843132
792983.080036507
772712.478664755
751269.492300962
728603.400251797
704651.864899809
679342.325978316
652604.022082691
624350.886934147
594476.873392708
562865.328056399
529380.059838073
493842.657061169
456038.22105116
415693.109585561
372420.867612105
325695.17225344
274746.807892634
218555.968584346
)
;

boundaryField
{
    electrode
    {
        type            calculated;
        value           uniform 32244.0137882849;
    }
    ground
    {
        type            calculated;
        value           uniform 186699.401975535;
    }
    otherfaces
    {
        type            empty;
    }
}


// ************************************************************************* //
