/*--------------------------------*- C++ -*----------------------------------*\
| =========                 |                                                 |
| \\      /  F ield         | foam-extend: Open Source CFD                    |
|  \\    /   O peration     | Version:     4.0                                |
|   \\  /    A nd           | Web:         http://www.foam-extend.org         |
|    \\/     M anipulation  |                                                 |
\*---------------------------------------------------------------------------*/
FoamFile
{
    version     2.0;
    format      ascii;
    class       volScalarField;
    location    "9.6e-06";
    object      Ar;
}
// * * * * * * * * * * * * * * * * * * * * * * * * * * * * * * * * * * * * * //

dimensions      [0 0 0 1 0 0 0];

internalField   nonuniform List<scalar> 
300
(
3.2188015913204e+22
3.21880158707614e+22
3.21880159011406e+22
3.21880159142615e+22
3.21880159360507e+22
3.21880159661133e+22
3.21880160026506e+22
3.21880160463551e+22
3.21880160971019e+22
3.21880161548549e+22
3.21880162196201e+22
3.21880162913849e+22
3.21880163701438e+22
3.21880164558929e+22
3.21880165486295e+22
3.21880166483521e+22
3.21880167550635e+22
3.21880168687628e+22
3.21880169894497e+22
3.21880171171263e+22
3.21880172517951e+22
3.21880173934591e+22
3.21880175421221e+22
3.21880176977883e+22
3.21880178604783e+22
3.21880180301845e+22
3.21880182069139e+22
3.21880183906753e+22
3.21880185814662e+22
3.21880187792932e+22
3.21880189841815e+22
3.21880191961319e+22
3.21880194151386e+22
3.21880196412085e+22
3.21880198743493e+22
3.21880201145694e+22
3.21880203618816e+22
3.2188020616293e+22
3.21880208778103e+22
3.21880211464439e+22
3.21880214222045e+22
3.21880217051012e+22
3.21880219951448e+22
3.21880222923465e+22
3.21880225967177e+22
3.21880229082705e+22
3.21880232270193e+22
3.21880235529783e+22
3.21880238861711e+22
3.21880242266151e+22
3.21880245743388e+22
3.21880249293462e+22
3.21880252916589e+22
3.2188025661276e+22
3.21880260382059e+22
3.21880264224492e+22
3.21880268140194e+22
3.21880272129307e+22
3.21880276191977e+22
3.21880280328372e+22
3.21880284538623e+22
3.21880288822883e+22
3.21880293181359e+22
3.21880297614408e+22
3.21880302122165e+22
3.21880306704551e+22
3.21880311361723e+22
3.2188031609384e+22
3.21880320901062e+22
3.21880325783555e+22
3.21880330741504e+22
3.21880335775158e+22
3.21880340884711e+22
3.21880346070265e+22
3.21880351332133e+22
3.21880356670482e+22
3.21880362085423e+22
3.21880367577175e+22
3.21880373145713e+22
3.21880378791516e+22
3.21880384514413e+22
3.21880390314556e+22
3.21880396192147e+22
3.21880402147335e+22
3.21880408180438e+22
3.21880414291547e+22
3.21880420480712e+22
3.21880426748098e+22
3.21880433093987e+22
3.21880439518465e+22
3.21880446021756e+22
3.21880452604468e+22
3.21880459266208e+22
3.21880466007118e+22
3.21880472827352e+22
3.21880479727062e+22
3.21880486706403e+22
3.21880493765528e+22
3.21880500904694e+22
3.21880508124047e+22
3.21880515423667e+22
3.21880522803685e+22
3.21880530264554e+22
3.21880537806121e+22
3.21880545428612e+22
3.21880553132253e+22
3.21880560917024e+22
3.21880568783248e+22
3.21880576730947e+22
3.2188058476019e+22
3.21880592871115e+22
3.21880601063863e+22
3.21880609338629e+22
3.21880617695552e+22
3.21880626134767e+22
3.21880634656535e+22
3.2188064326115e+22
3.21880651948601e+22
3.21880660719039e+22
3.21880669572024e+22
3.21880678508175e+22
3.21880687527894e+22
3.2188069663158e+22
3.21880705819313e+22
3.2188071509117e+22
3.21880724447365e+22
3.21880733888363e+22
3.2188074341418e+22
3.21880753025104e+22
3.21880762721339e+22
3.21880772503218e+22
3.21880782370959e+22
3.21880792324787e+22
3.21880802365137e+22
3.21880812492545e+22
3.21880822706996e+22
3.21880833008622e+22
3.21880843397842e+22
3.21880853875013e+22
3.21880864440214e+22
3.2188087509377e+22
3.21880885836015e+22
3.21880896667433e+22
3.21880907588507e+22
3.21880918599643e+22
3.21880929700799e+22
3.21880940892273e+22
3.21880952174374e+22
3.2188096354754e+22
3.21880975012379e+22
3.21880986568878e+22
3.2188099821736e+22
3.21881009958522e+22
3.21881021792361e+22
3.21881033719104e+22
3.21881045739043e+22
3.21881057852671e+22
3.21881070059355e+22
3.21881082359574e+22
3.21881094752166e+22
3.21881107238504e+22
3.21881119815137e+22
3.21881132485202e+22
3.2188114524202e+22
3.21881158090948e+22
3.21881171033415e+22
3.21881183959553e+22
3.21881196920255e+22
3.21881210034249e+22
3.21881223235172e+22
3.21881236518264e+22
3.2188124980842e+22
3.2188126312876e+22
3.21881276429785e+22
3.21881289722029e+22
3.21881303142936e+22
3.21881316702359e+22
3.2188132985205e+22
3.21881342932784e+22
3.21881356380409e+22
3.21881369136704e+22
3.21881381584352e+22
3.21881394271373e+22
3.21881405992531e+22
3.21881417338546e+22
3.21881428427835e+22
3.21881438477644e+22
3.21881447880199e+22
3.21881456842907e+22
3.21881464567916e+22
3.21881471496721e+22
3.2188147796642e+22
3.2188148340288e+22
3.21881487804038e+22
3.21881491426764e+22
3.21881494151957e+22
3.21881496064083e+22
3.21881497490182e+22
3.21881498428833e+22
3.21881499174893e+22
3.21881499330418e+22
3.21881499024179e+22
3.2188149840733e+22
3.21881498126536e+22
3.21881498431398e+22
3.21881499272301e+22
3.21881500331902e+22
3.21881501431363e+22
3.21881502394611e+22
3.21881503212909e+22
3.21881503888963e+22
3.21881504452317e+22
3.21881504919813e+22
3.2188150542585e+22
3.21881505994153e+22
3.21881506517844e+22
3.2188150698256e+22
3.21881507408393e+22
3.21881507791584e+22
3.21881508148728e+22
3.21881508472721e+22
3.21881508785103e+22
3.2188150907508e+22
3.21881509353686e+22
3.218815096098e+22
3.21881509991116e+22
3.21881510377054e+22
3.2188151075846e+22
3.21881511115678e+22
3.21881511470674e+22
3.21881511802634e+22
3.21881512134344e+22
3.21881512443336e+22
3.21881512753601e+22
3.21881513041239e+22
3.21881513331296e+22
3.21881513598531e+22
3.21881513869219e+22
3.21881514116712e+22
3.21881514368623e+22
3.21881514596839e+22
3.21881514866218e+22
3.21881515183901e+22
3.21881515506483e+22
3.21881515805204e+22
3.21881516109699e+22
3.21881516390046e+22
3.21881516677335e+22
3.21881516940047e+22
3.21881517210845e+22
3.21881517456752e+22
3.21881517711832e+22
3.21881517941971e+22
3.21881518182376e+22
3.21881518397159e+22
3.21881518623116e+22
3.21881518822927e+22
3.21881519035044e+22
3.21881519220592e+22
3.2188151941945e+22
3.21881519591326e+22
3.218815197777e+22
3.21881519936932e+22
3.21881520111828e+22
3.21881520262547e+22
3.21881520499441e+22
3.21881520698264e+22
3.21881520926836e+22
3.21881521114102e+22
3.21881521332338e+22
3.21881521508649e+22
3.21881521717117e+22
3.21881521883096e+22
3.21881522082484e+22
3.21881522238745e+22
3.21881522429687e+22
3.21881522576785e+22
3.21881522759707e+22
3.21881522897983e+22
3.21881523073248e+22
3.21881523203151e+22
3.21881523371566e+22
3.21881523495625e+22
3.21881523661529e+22
3.2188152378121e+22
3.21881523941532e+22
3.21881524054242e+22
3.21881524208549e+22
3.21881524314402e+22
3.21881524467037e+22
3.2188152457486e+22
3.21881524726535e+22
3.21881524827664e+22
3.21881524980914e+22
3.21881525086823e+22
3.21881525240618e+22
3.21881525353536e+22
3.21881525524128e+22
3.21881525678086e+22
3.21881525963854e+22
)
;

boundaryField
{
    electrode
    {
        type            zeroGradient;
    }
    ground
    {
        type            zeroGradient;
    }
    otherfaces
    {
        type            empty;
    }
}


// ************************************************************************* //
