/*--------------------------------*- C++ -*----------------------------------*\
| =========                 |                                                 |
| \\      /  F ield         | foam-extend: Open Source CFD                    |
|  \\    /   O peration     | Version:     4.0                                |
|   \\  /    A nd           | Web:         http://www.foam-extend.org         |
|    \\/     M anipulation  |                                                 |
\*---------------------------------------------------------------------------*/
FoamFile
{
    version     2.0;
    format      ascii;
    class       volScalarField;
    location    "9.6e-06";
    object      Arm;
}
// * * * * * * * * * * * * * * * * * * * * * * * * * * * * * * * * * * * * * //

dimensions      [0 0 0 1 0 0 0];

internalField   nonuniform List<scalar> 
300
(
3.57410007013897e+15
3.57597271895096e+15
3.57791967193751e+15
3.57922601740375e+15
3.58004236326991e+15
3.58042099749187e+15
3.58040611480412e+15
3.58002916986468e+15
3.57931582587414e+15
3.5782880606658e+15
3.57696165869537e+15
3.57535070519072e+15
3.57346725452406e+15
3.57132190990433e+15
3.56892412886479e+15
3.56628244967277e+15
3.56340171254194e+15
3.56029049504536e+15
3.55695713485156e+15
3.55340811494195e+15
3.5496496367671e+15
3.54568762196247e+15
3.54152776048478e+15
3.53717546364314e+15
3.53262015707763e+15
3.52787948190816e+15
3.52295716945441e+15
3.51785526507645e+15
3.51258731523023e+15
3.50715817862592e+15
3.50155419564626e+15
3.4957866989705e+15
3.4898737509033e+15
3.48382076262149e+15
3.47763282040029e+15
3.47131471586444e+15
3.46486664775826e+15
3.45829511910385e+15
3.45160718954756e+15
3.444806402435e+15
3.43789626544491e+15
3.4308820475579e+15
3.42376763239e+15
3.4165567114385e+15
3.40925278476167e+15
3.40185911131014e+15
3.39437664204995e+15
3.38680680331188e+15
3.37914186686632e+15
3.37138038314296e+15
3.36350983082555e+15
3.3555426180902e+15
3.34747344395759e+15
3.33931995372406e+15
3.33109032074918e+15
3.3228008677814e+15
3.31445492431956e+15
3.30605540655461e+15
3.29760488245762e+15
3.289103783616e+15
3.28055641165226e+15
3.2719648703169e+15
3.26332579413844e+15
3.25462130232475e+15
3.24585537233631e+15
3.23705348871262e+15
3.22821779679104e+15
3.21935013636383e+15
3.21045209329016e+15
3.20152502264036e+15
3.19256806972527e+15
3.1835741100451e+15
3.17454161415171e+15
3.16547796120655e+15
3.15636968788008e+15
3.1472178322563e+15
3.13802870277714e+15
3.12879824599202e+15
3.11954627621696e+15
3.1102424893941e+15
3.10092125611254e+15
3.09158476275427e+15
3.08222994862336e+15
3.07285902472358e+15
3.06345725921579e+15
3.05403235282258e+15
3.04459597701499e+15
3.03514845029189e+15
3.02567793260894e+15
3.01619210434201e+15
3.0066848951369e+15
2.99711155778748e+15
2.98752702519545e+15
2.97793305022061e+15
2.96832966545961e+15
2.95871689653036e+15
2.94909452514207e+15
2.93946209605163e+15
2.92980872029993e+15
2.92013432681976e+15
2.91044515370618e+15
2.90074241917545e+15
2.89099456493421e+15
2.8812305993082e+15
2.87144138715663e+15
2.8616176372338e+15
2.85177424312455e+15
2.84189173368935e+15
2.83198045641159e+15
2.82204585770104e+15
2.81208608262575e+15
2.80209883365164e+15
2.79207639439447e+15
2.78201654045286e+15
2.77191701735529e+15
2.76176020430383e+15
2.75152731335262e+15
2.74124299578864e+15
2.73090815768731e+15
2.72051469897043e+15
2.710036357707e+15
2.69948591793404e+15
2.68883456955904e+15
2.67809262273902e+15
2.66727147597054e+15
2.65636890170049e+15
2.64535694534245e+15
2.63425288002319e+15
2.6230459591883e+15
2.61173409279439e+15
2.60030169329784e+15
2.58874486242748e+15
2.57705855845031e+15
2.56521671814953e+15
2.55318302204199e+15
2.5409761708767e+15
2.52860005702894e+15
2.5160297147398e+15
2.50324633366735e+15
2.49025891824574e+15
2.47705153521388e+15
2.46360749704273e+15
2.44989469294377e+15
2.43588104091804e+15
2.42154200928787e+15
2.40689722422172e+15
2.39193189119133e+15
2.37662961857131e+15
2.36095986014632e+15
2.34487390117131e+15
2.3283839546166e+15
2.31146527164875e+15
2.29405580156586e+15
2.2761541847698e+15
2.25774213315918e+15
2.23877000122058e+15
2.21919461829714e+15
2.19901529791464e+15
2.17821287857205e+15
2.15674247769307e+15
2.1345685136094e+15
2.11167579925206e+15
2.0880262446313e+15
2.06363222528099e+15
2.03848071131414e+15
2.01251739080742e+15
1.98576297139919e+15
1.95826193507814e+15
1.93004331228984e+15
1.90114910199208e+15
1.87164776982443e+15
1.84157284997848e+15
1.81101676915814e+15
1.78015091321096e+15
1.74916912669768e+15
1.71824133050441e+15
1.68754673289507e+15
1.65728437656864e+15
1.62769279265251e+15
1.59892773132833e+15
1.57114345730218e+15
1.54448688803364e+15
1.51903960200944e+15
1.49491607265426e+15
1.47211623462689e+15
1.45055036484934e+15
1.43025783718759e+15
1.4111882989821e+15
1.39325605050211e+15
1.37638062463251e+15
1.36046872025959e+15
1.34557278586983e+15
1.33219060690798e+15
1.32541908710339e+15
1.35142537455394e+15
1.41745321222003e+15
1.49768631494958e+15
1.56482433229525e+15
1.62817572863749e+15
1.7020783949392e+15
1.78769020788952e+15
1.8785842625132e+15
1.9538538738898e+15
1.97215869129781e+15
1.93728462911311e+15
1.87135881817194e+15
1.79942156946213e+15
1.73807394155064e+15
1.69285092764584e+15
1.66225216234564e+15
1.64234445593407e+15
1.63041867513587e+15
1.62279197744696e+15
1.61926842354053e+15
1.61739606729358e+15
1.61576041815981e+15
1.61500231840505e+15
1.61449717642403e+15
1.61380340676005e+15
1.61267412833012e+15
1.61092215614978e+15
1.60780912426585e+15
1.6034681693764e+15
1.59818764835363e+15
1.59203386357663e+15
1.58516146680512e+15
1.57761911984856e+15
1.56944322210002e+15
1.56069142280959e+15
1.55143101636003e+15
1.54170902683582e+15
1.5315891001269e+15
1.52113955625809e+15
1.51041104637453e+15
1.49945601933186e+15
1.48834123908878e+15
1.477098175308e+15
1.4657895680454e+15
1.4544446415841e+15
1.44310930449944e+15
1.43181544646455e+15
1.42058467665803e+15
1.40945860033743e+15
1.3984477387105e+15
1.38757998540702e+15
1.37688953797171e+15
1.36637868216974e+15
1.35606837352232e+15
1.34597203178851e+15
1.33609053908546e+15
1.32643791227552e+15
1.31701094873203e+15
1.30779083891154e+15
1.29880186822309e+15
1.29005197707821e+15
1.28154768678035e+15
1.27329167047764e+15
1.26527007626605e+15
1.25749081091942e+15
1.24994370601352e+15
1.24262870786305e+15
1.23552348215792e+15
1.22861100520018e+15
1.22188689021955e+15
1.21536120131884e+15
1.2090280246618e+15
1.20287754759528e+15
1.19690436824458e+15
1.19109562366089e+15
1.18545473184108e+15
1.17997129707849e+15
1.17464712706198e+15
1.16946481975959e+15
1.16442685738064e+15
1.15951966097231e+15
1.1547403015237e+15
1.15008573281783e+15
1.14555469009935e+15
1.14114792290384e+15
1.13685795615065e+15
1.13268247348875e+15
1.12858007642799e+15
1.12440720146682e+15
1.12008134860688e+15
1.1157925205723e+15
1.11158512033298e+15
1.10746787268302e+15
1.10344500823511e+15
1.09950800461487e+15
1.09525349024116e+15
1.09063084773933e+15
1.08611170227059e+15
1.08170748816674e+15
1.07668694533308e+15
1.07137822986891e+15
1.06600747188091e+15
1.05960346540749e+15
1.05264112531091e+15
1.04457237967384e+15
1.03469480541129e+15
)
;

boundaryField
{
    electrode
    {
        type            zeroGradient;
    }
    ground
    {
        type            zeroGradient;
    }
    otherfaces
    {
        type            empty;
    }
}


// ************************************************************************* //
