/*--------------------------------*- C++ -*----------------------------------*\
| =========                 |                                                 |
| \\      /  F ield         | foam-extend: Open Source CFD                    |
|  \\    /   O peration     | Version:     4.0                                |
|   \\  /    A nd           | Web:         http://www.foam-extend.org         |
|    \\/     M anipulation  |                                                 |
\*---------------------------------------------------------------------------*/
FoamFile
{
    version     2.0;
    format      ascii;
    class       volScalarField;
    location    "9.6e-06";
    object      Arp1;
}
// * * * * * * * * * * * * * * * * * * * * * * * * * * * * * * * * * * * * * //

dimensions      [0 0 0 1 0 0 0];

internalField   nonuniform List<scalar> 
300
(
6.87404525824486e+16
6.87829762121112e+16
6.87555914367582e+16
6.87494852906086e+16
6.87385173803426e+16
6.87230551802285e+16
6.87048591278201e+16
6.86832056764757e+16
6.8658197155274e+16
6.86298502803394e+16
6.85981461459429e+16
6.85630859403811e+16
6.85246664218605e+16
6.84828840646141e+16
6.84377355803452e+16
6.83892173877156e+16
6.83373257594277e+16
6.82820568143608e+16
6.82234065101274e+16
6.81613706482147e+16
6.80959448741397e+16
6.80271246792669e+16
6.79549054022684e+16
6.78792822303465e+16
6.78002502012044e+16
6.77178042049039e+16
6.76319389850982e+16
6.75426491414758e+16
6.74499291316802e+16
6.73537732730675e+16
6.72541757449533e+16
6.71511305912276e+16
6.70446317221011e+16
6.69346729166635e+16
6.68212478257102e+16
6.6704349973669e+16
6.65839727615716e+16
6.64601094699308e+16
6.63327532609236e+16
6.62018971816431e+16
6.60675341671657e+16
6.5929657042943e+16
6.57882585283169e+16
6.56433312396842e+16
6.54948676932153e+16
6.53428603084959e+16
6.51873014119591e+16
6.50281832397023e+16
6.48654979414036e+16
6.46992375839317e+16
6.45293941542821e+16
6.43559595637835e+16
6.41789256517071e+16
6.39982841886531e+16
6.38140268805546e+16
6.36261453727203e+16
6.34346312533667e+16
6.32394760575817e+16
6.3040671271756e+16
6.28382083369469e+16
6.26320786533217e+16
6.2422273584463e+16
6.22087844609528e+16
6.19916025849444e+16
6.17707192345104e+16
6.15461256673607e+16
6.13178131255333e+16
6.1085772839808e+16
6.08499960335391e+16
6.06104739273367e+16
6.03671977436248e+16
6.0120158710525e+16
5.98693480666024e+16
5.96147570654284e+16
5.93563769794852e+16
5.90941991050536e+16
5.88282147666492e+16
5.85584153211678e+16
5.8284792162431e+16
5.80073367259409e+16
5.77260404929385e+16
5.7440894994835e+16
5.7151891818026e+16
5.68590226078748e+16
5.65622790731607e+16
5.6261652990782e+16
5.59571362097078e+16
5.56487206554161e+16
5.53363983344399e+16
5.50201613382449e+16
5.47000018476332e+16
5.43759121371104e+16
5.40478845788714e+16
5.37159116467705e+16
5.33799859208649e+16
5.30401000910295e+16
5.26962469610794e+16
5.23484194529568e+16
5.1996610610287e+16
5.16408136023649e+16
5.12810217281948e+16
5.09172284200202e+16
5.05494272469705e+16
5.01776119191754e+16
4.98017762909873e+16
4.9421914364127e+16
4.90380202932589e+16
4.86500883900405e+16
4.82581131199086e+16
4.78620890986198e+16
4.74620111320747e+16
4.70578742626824e+16
4.66496736059678e+16
4.62374040384271e+16
4.58210610788574e+16
4.54006427854882e+16
4.49761452407224e+16
4.4547551328484e+16
4.41148514024366e+16
4.36781046531991e+16
4.32372843439267e+16
4.2792348712455e+16
4.23432982269043e+16
4.1890126564521e+16
4.14328264404971e+16
4.09713907931911e+16
4.05058128274716e+16
4.00360860737749e+16
3.95622044108199e+16
3.90841620820741e+16
3.86019537132848e+16
3.81155743324774e+16
3.76250193939144e+16
3.7130284806665e+16
3.66313669682153e+16
3.61282628047907e+16
3.56209698193311e+16
3.5109486148231e+16
3.45938106292614e+16
3.40739428823258e+16
3.35498834054917e+16
3.30216336898608e+16
3.24891963560586e+16
3.19525753194031e+16
3.14117759802215e+16
3.08668054731214e+16
3.03176729106476e+16
2.97643898097794e+16
2.92069702968487e+16
2.8645432039871e+16
2.80797958984166e+16
2.75100885926852e+16
2.69363396216681e+16
2.63585901336844e+16
2.57768790784979e+16
2.51912734409668e+16
2.46018171965161e+16
2.4008628767266e+16
2.34117383011851e+16
2.28113702697755e+16
2.22074913123211e+16
2.16005352204592e+16
2.09903061140728e+16
2.03775461158922e+16
1.976183329948e+16
1.91432105113695e+16
1.85329064901349e+16
1.7926284579761e+16
1.7312045206281e+16
1.66972885585806e+16
1.60828226505715e+16
1.54765166904414e+16
1.48764098040349e+16
1.42877464252123e+16
1.37096636440105e+16
1.31283020733328e+16
1.25419158545868e+16
1.20040003918516e+16
1.14787162645859e+16
1.09198686406958e+16
1.04295165571234e+16
9.96488417278265e+15
9.46570234358534e+15
9.04588203785182e+15
8.63928246664168e+15
8.22674593945266e+15
7.87897691200639e+15
7.54976992578551e+15
7.2124083916913e+15
6.94213219332432e+15
6.69220077100837e+15
6.4282043919122e+15
6.2084141765105e+15
6.03120984694912e+15
5.84950066588477e+15
5.67395682361514e+15
5.52842843912747e+15
5.41390528355511e+15
5.32743000521799e+15
5.23085557067604e+15
5.16899575941426e+15
5.13762510144506e+15
5.14435149292214e+15
5.1686584189431e+15
5.18310963394688e+15
5.17137605676449e+15
5.14112116366898e+15
5.09459556008973e+15
5.04461016937529e+15
4.99398805823573e+15
4.94663175649789e+15
4.90241863569436e+15
4.86341071754731e+15
4.81639773455608e+15
4.76147813906756e+15
4.71076513735409e+15
4.66506116308002e+15
4.62298619711294e+15
4.58536070296562e+15
4.55077361875938e+15
4.52012393456591e+15
4.49199683316151e+15
4.46733929371519e+15
4.44475965174906e+15
4.42530417664724e+15
4.39404886998514e+15
4.36300301464309e+15
4.33304572612636e+15
4.30608484273914e+15
4.27985644321451e+15
4.25639470659777e+15
4.23335724226119e+15
4.21292249172969e+15
4.19264057789375e+15
4.17484889370639e+15
4.15697585922373e+15
4.14151405970483e+15
4.12577305100554e+15
4.11238834902069e+15
4.0985527331439e+15
4.0870453720817e+15
4.07135878824348e+15
4.05073713179078e+15
4.0295104828585e+15
4.01052669230926e+15
3.99078805297439e+15
3.97328435331486e+15
3.95488570336307e+15
3.93873043097174e+15
3.92155134040857e+15
3.90663214715008e+15
3.89056948728534e+15
3.87679367252166e+15
3.86175967533406e+15
3.8490483277087e+15
3.83497348561178e+15
3.82326454224143e+15
3.8100899905961e+15
3.79932959319921e+15
3.78700549309986e+15
3.77714709439286e+15
3.76562864841753e+15
3.75663119253495e+15
3.74587843950412e+15
3.73734458624171e+15
3.72000028884478e+15
3.70628001214636e+15
3.68940712128796e+15
3.67649995971174e+15
3.6603276128562e+15
3.64818991667517e+15
3.63267683832676e+15
3.62127057561746e+15
3.60637867289043e+15
3.59566849948062e+15
3.58136198881942e+15
3.57131484788934e+15
3.55756152086848e+15
3.54814829719478e+15
3.53491908146289e+15
3.52611127509927e+15
3.51337902819393e+15
3.50515260100094e+15
3.49289435278281e+15
3.48522109103011e+15
3.47340221989601e+15
3.46625419596969e+15
3.45485190115889e+15
3.44820888919004e+15
3.43720500764955e+15
3.4310502911127e+15
3.4204066603078e+15
3.41470235308909e+15
3.40440219820135e+15
3.39912394232954e+15
3.38911873914307e+15
3.38423391497119e+15
3.37413938353632e+15
3.36681324652521e+15
3.34811288984764e+15
)
;

boundaryField
{
    electrode
    {
        type            driftDiffusionPositiveIonDensity;
        seec            0;
        fieldName       Arp1;
        value           uniform 6.85566352091769e+16;
    }
    ground
    {
        type            driftDiffusionPositiveIonDensity;
        seec            0;
        fieldName       Arp1;
        value           uniform 3.34811288984764e+15;
    }
    otherfaces
    {
        type            empty;
    }
}


// ************************************************************************* //
