/*--------------------------------*- C++ -*----------------------------------*\
| =========                 |                                                 |
| \\      /  F ield         | foam-extend: Open Source CFD                    |
|  \\    /   O peration     | Version:     4.0                                |
|   \\  /    A nd           | Web:         http://www.foam-extend.org         |
|    \\/     M anipulation  |                                                 |
\*---------------------------------------------------------------------------*/
FoamFile
{
    version     2.0;
    format      ascii;
    class       volVectorField;
    location    "9.6e-06";
    object      E;
}
// * * * * * * * * * * * * * * * * * * * * * * * * * * * * * * * * * * * * * //

dimensions      [0 0 0 1 0 0 0];

internalField   nonuniform List<vector> 
300
(
(5.46687538571789 -0 -0)
(11.2875224875242 -0 -0)
(19.8322451877564 -0 -0)
(27.7716695432087 -0 -0)
(35.6678175869588 -0 -0)
(43.632355024859 -0 -0)
(51.5901931716361 -0 -0)
(59.5626601165843 -0 -0)
(67.5507189101817 -0 -0)
(75.5546115255309 -0 -0)
(83.5765162660024 -0 -0)
(91.6179759974387 -0 -0)
(99.6806136341354 -0 -0)
(107.766089572912 -0 -0)
(115.876058918997 -0 -0)
(124.012191557445 -0 -0)
(132.176169601037 -0 -0)
(140.36968775666 -0 -0)
(148.594454582597 -0 -0)
(156.85219315886 -0 -0)
(165.144641932348 -0 -0)
(173.47355561609 -0 -0)
(181.840706021948 -0 -0)
(190.247882972396 -0 -0)
(198.696895258035 -0 -0)
(207.189571511941 -0 -0)
(215.727761233855 -0 -0)
(224.313335826789 -0 -0)
(232.948189542165 -0 -0)
(241.634240562285 -0 -0)
(250.373432145205 -0 -0)
(259.167733686286 -0 -0)
(268.019141901081 -0 -0)
(276.929682035993 -0 -0)
(285.901409080522 -0 -0)
(294.936409049626 -0 -0)
(304.036800340165 -0 -0)
(313.204735038977 -0 -0)
(322.442400388401 -0 -0)
(331.752020225928 -0 -0)
(341.135856492189 -0 -0)
(350.596210821378 -0 -0)
(360.135426197318 -0 -0)
(369.7558885906 -0 -0)
(379.460028757142 -0 -0)
(389.250324069098 -0 -0)
(399.129300364317 -0 -0)
(409.099533986474 -0 -0)
(419.163653790675 -0 -0)
(429.32434328449 -0 -0)
(439.584342855394 -0 -0)
(449.946452096882 -0 -0)
(460.413532224388 -0 -0)
(470.988508523332 -0 -0)
(481.674373079046 -0 -0)
(492.474187396744 -0 -0)
(503.391085349185 -0 -0)
(514.428276102204 -0 -0)
(525.589047230164 -0 -0)
(536.876767959268 -0 -0)
(548.294892600885 -0 -0)
(559.846964050146 -0 -0)
(571.536617557996 -0 -0)
(583.367584572393 -0 -0)
(595.343696819952 -0 -0)
(607.468890573341 -0 -0)
(619.747211154447 -0 -0)
(632.182817532229 -0 -0)
(644.779987314718 -0 -0)
(657.543121838972 -0 -0)
(670.47675165175 -0 -0)
(683.585542071783 -0 -0)
(696.874299278906 -0 -0)
(710.347976502624 -0 -0)
(724.011680620991 -0 -0)
(737.870679128129 -0 -0)
(751.930407372064 -0 -0)
(766.196476302621 -0 -0)
(780.674680488167 -0 -0)
(795.371006685588 -0 -0)
(810.29164280414 -0 -0)
(825.442987458042 -0 -0)
(840.831659844166 -0 -0)
(856.464510429283 -0 -0)
(872.348632038973 -0 -0)
(888.491371725347 -0 -0)
(904.900343165582 -0 -0)
(921.583439952945 -0 -0)
(938.548849538178 -0 -0)
(955.805068046749 -0 -0)
(973.36091600546 -0 -0)
(991.225554985794 -0 -0)
(1009.40850531899 -0 -0)
(1027.91966482423 -0 -0)
(1046.7693288161 -0 -0)
(1065.96821125442 -0 -0)
(1085.52746738584 -0 -0)
(1105.45871776063 -0 -0)
(1125.77407382919 -0 -0)
(1146.48616526697 -0 -0)
(1167.6081691001 -0 -0)
(1189.15384080555 -0 -0)
(1211.13754759383 -0 -0)
(1233.57430390467 -0 -0)
(1256.47980945566 -0 -0)
(1279.87048998563 -0 -0)
(1303.76354100213 -0 -0)
(1328.17697482286 -0 -0)
(1353.12967032438 -0 -0)
(1378.6414257988 -0 -0)
(1404.73302015511 -0 -0)
(1431.42628274712 -0 -0)
(1458.74414663847 -0 -0)
(1486.71067728438 -0 -0)
(1515.35121792766 -0 -0)
(1544.69273277 -0 -0)
(1574.76358684394 -0 -0)
(1605.59216352705 -0 -0)
(1637.20839878973 -0 -0)
(1669.65166358574 -0 -0)
(1702.96836391767 -0 -0)
(1737.20124780722 -0 -0)
(1772.39046691715 -0 -0)
(1808.57820207569 -0 -0)
(1845.80932240348 -0 -0)
(1884.13149205417 -0 -0)
(1923.59540147779 -0 -0)
(1964.25501264686 -0 -0)
(2006.16782717898 -0 -0)
(2049.39518192887 -0 -0)
(2094.00257473693 -0 -0)
(2140.06002407942 -0 -0)
(2187.64246678214 -0 -0)
(2236.83019842335 -0 -0)
(2287.70936199799 -0 -0)
(2340.37249105552 -0 -0)
(2394.91911436886 -0 -0)
(2451.45643064825 -0 -0)
(2510.10006264873 -0 -0)
(2570.9749017758 -0 -0)
(2634.21605608988 -0 -0)
(2699.96991660889 -0 -0)
(2768.39535919087 -0 -0)
(2839.66510264442 -0 -0)
(2913.96724645287 -0 -0)
(2991.50701701884 -0 -0)
(3072.50875366708 -0 -0)
(3157.2181776632 -0 -0)
(3245.90498093853 -0 -0)
(3338.86581113971 -0 -0)
(3436.42767180085 -0 -0)
(3538.95191483664 -0 -0)
(3646.83871633859 -0 -0)
(3760.53255677255 -0 -0)
(3880.52803827679 -0 -0)
(4007.37775348893 -0 -0)
(4141.69949110484 -0 -0)
(4284.18832991912 -0 -0)
(4435.62460324582 -0 -0)
(4596.89385526091 -0 -0)
(4768.99356769465 -0 -0)
(4953.06816265856 -0 -0)
(5150.41126266988 -0 -0)
(5362.53237336968 -0 -0)
(5591.157109893 -0 -0)
(5838.53211257917 -0 -0)
(6109.2939407441 -0 -0)
(6409.37565559795 -0 -0)
(6742.30385248399 -0 -0)
(7110.87809778522 -0 -0)
(7519.79293041523 -0 -0)
(7976.23754253086 -0 -0)
(8489.3459334417 -0 -0)
(9069.63239306982 -0 -0)
(9728.43972522016 -0 -0)
(10473.984994446 -0 -0)
(11312.2203807101 -0 -0)
(12259.5528140464 -0 -0)
(13334.7367314951 -0 -0)
(14539.8082608881 -0 -0)
(15886.6247679832 -0 -0)
(17396.9130866684 -0 -0)
(19069.0098170702 -0 -0)
(20908.7075818272 -0 -0)
(22928.7109057685 -0 -0)
(25118.9149214845 -0 -0)
(27475.728610851 -0 -0)
(29997.5844247797 -0 -0)
(32661.0962984594 -0 -0)
(35451.5999636041 -0 -0)
(38359.8032908233 -0 -0)
(41353.434914845 -0 -0)
(44406.6924629078 -0 -0)
(47510.8991468323 -0 -0)
(50646.680166463 -0 -0)
(53787.2356161548 -0 -0)
(56918.210023326 -0 -0)
(60038.1047747975 -0 -0)
(63145.6911343778 -0 -0)
(66239.6422901425 -0 -0)
(69315.0155445455 -0 -0)
(72374.7301953087 -0 -0)
(75444.2477760215 -0 -0)
(78537.0808599434 -0 -0)
(81646.8509457574 -0 -0)
(84761.7221260792 -0 -0)
(87867.0437154505 -0 -0)
(90951.1790683986 -0 -0)
(94007.3231589315 -0 -0)
(97033.647781581 -0 -0)
(100030.656650379 -0 -0)
(103000.165365182 -0 -0)
(105944.640482746 -0 -0)
(108863.211402607 -0 -0)
(111751.063673852 -0 -0)
(114607.072876685 -0 -0)
(117434.013296561 -0 -0)
(120234.488584206 -0 -0)
(123010.928195813 -0 -0)
(125765.586074258 -0 -0)
(128500.569172221 -0 -0)
(131217.825181351 -0 -0)
(133919.160247162 -0 -0)
(136606.24888547 -0 -0)
(139280.661924426 -0 -0)
(141939.783205276 -0 -0)
(144580.118419048 -0 -0)
(147202.059976513 -0 -0)
(149806.840881111 -0 -0)
(152395.586703137 -0 -0)
(154969.353673507 -0 -0)
(157529.105003114 -0 -0)
(160075.754382881 -0 -0)
(162610.133565836 -0 -0)
(165133.040295507 -0 -0)
(167645.201617943 -0 -0)
(170147.320655589 -0 -0)
(172640.040767482 -0 -0)
(175123.988758114 -0 -0)
(177599.7395504 -0 -0)
(180067.859418076 -0 -0)
(182527.790286088 -0 -0)
(184976.783573256 -0 -0)
(187413.168485155 -0 -0)
(189837.438933751 -0 -0)
(192250.04360962 -0 -0)
(194651.42877331 -0 -0)
(197041.998400409 -0 -0)
(199422.158977227 -0 -0)
(201792.278103609 -0 -0)
(204152.728335265 -0 -0)
(206503.846129219 -0 -0)
(208845.976049856 -0 -0)
(211179.428065226 -0 -0)
(213504.522866922 -0 -0)
(215821.549628107 -0 -0)
(218130.810119155 -0 -0)
(220432.575577102 -0 -0)
(222727.13201174 -0 -0)
(225014.73541731 -0 -0)
(227295.657597768 -0 -0)
(229570.141233025 -0 -0)
(231838.445693139 -0 -0)
(234100.801628367 -0 -0)
(236357.349071726 -0 -0)
(238606.098870663 -0 -0)
(240845.48661415 -0 -0)
(243075.655234384 -0 -0)
(245296.849205105 -0 -0)
(247509.27958218 -0 -0)
(249713.178167217 -0 -0)
(251908.74357005 -0 -0)
(254096.196227262 -0 -0)
(256275.723232754 -0 -0)
(258447.534318593 -0 -0)
(260611.805891555 -0 -0)
(262768.737731474 -0 -0)
(264918.496504382 -0 -0)
(267061.273225902 -0 -0)
(269197.225804475 -0 -0)
(271326.536667247 -0 -0)
(273449.35555683 -0 -0)
(275565.857637866 -0 -0)
(277676.185685348 -0 -0)
(279780.506438602 -0 -0)
(281878.952276277 -0 -0)
(283971.681434821 -0 -0)
(286058.81951844 -0 -0)
(288140.518653965 -0 -0)
(290216.898804911 -0 -0)
(292288.107226302 -0 -0)
(294354.252347912 -0 -0)
(296415.469832963 -0 -0)
(298471.863208067 -0 -0)
(300523.560670299 -0 -0)
(302570.650830162 -0 -0)
(304613.252230996 -0 -0)
(306651.33588273 -0 -0)
(308684.173127797 -0 -0)
(310709.16126406 -0 -0)
)
;

boundaryField
{
    electrode
    {
        type            calculated;
        value           uniform (4.15893473473262 -0 -0);
    }
    ground
    {
        type            calculated;
        value           uniform (311718.831284401 -0 -0);
    }
    otherfaces
    {
        type            empty;
    }
}


// ************************************************************************* //
