/*--------------------------------*- C++ -*----------------------------------*\
| =========                 |                                                 |
| \\      /  F ield         | foam-extend: Open Source CFD                    |
|  \\    /   O peration     | Version:     4.0                                |
|   \\  /    A nd           | Web:         http://www.foam-extend.org         |
|    \\/     M anipulation  |                                                 |
\*---------------------------------------------------------------------------*/
FoamFile
{
    version     2.0;
    format      ascii;
    class       volVectorField;
    location    "9.6e-06";
    object      J_Arp1;
}
// * * * * * * * * * * * * * * * * * * * * * * * * * * * * * * * * * * * * * //

dimensions      [1 -1 -1 0 0 0 0];

internalField   nonuniform List<vector> 
300
(
(2.18691555036347e+16 -0 -0)
(7.74530782691186e+16 -0 -0)
(1.37609941213085e+17 -0 -0)
(1.91472200190327e+17 -0 -0)
(2.46004511006732e+17 -0 -0)
(3.00867456077364e+17 -0 -0)
(3.55586190883779e+17 -0 -0)
(4.10360334696362e+17 -0 -0)
(4.65160062187368e+17 -0 -0)
(5.1998362329394e+17 -0 -0)
(5.74838131782567e+17 -0 -0)
(6.2972520036027e+17 -0 -0)
(6.84647667280482e+17 -0 -0)
(7.39608355618876e+17 -0 -0)
(7.94609961192209e+17 -0 -0)
(8.49655192520997e+17 -0 -0)
(9.04746727855565e+17 -0 -0)
(9.59887216784802e+17 -0 -0)
(1.01507928127503e+18 -0 -0)
(1.07032551296166e+18 -0 -0)
(1.12562847186575e+18 -0 -0)
(1.18099068518832e+18 -0 -0)
(1.23641464558432e+18 -0 -0)
(1.29190280977747e+18 -0 -0)
(1.34745759733554e+18 -0 -0)
(1.40308138877476e+18 -0 -0)
(1.45877652443691e+18 -0 -0)
(1.51454530328568e+18 -0 -0)
(1.57038998094337e+18 -0 -0)
(1.62631276840523e+18 -0 -0)
(1.68231583094743e+18 -0 -0)
(1.73840128631983e+18 -0 -0)
(1.7945712034773e+18 -0 -0)
(1.85082760122563e+18 -0 -0)
(1.90717244669621e+18 -0 -0)
(1.96360765396242e+18 -0 -0)
(2.02013508285901e+18 -0 -0)
(2.07675653725297e+18 -0 -0)
(2.13347376397467e+18 -0 -0)
(2.19028845126449e+18 -0 -0)
(2.2472022273906e+18 -0 -0)
(2.30421665937426e+18 -0 -0)
(2.3613332517902e+18 -0 -0)
(2.41855344510178e+18 -0 -0)
(2.47587861456635e+18 -0 -0)
(2.53331006893855e+18 -0 -0)
(2.5908490488949e+18 -0 -0)
(2.64849672613417e+18 -0 -0)
(2.7062542017861e+18 -0 -0)
(2.76412250522336e+18 -0 -0)
(2.82210259278552e+18 -0 -0)
(2.8801953466033e+18 -0 -0)
(2.9384015734198e+18 -0 -0)
(2.99672200292573e+18 -0 -0)
(3.05515728721946e+18 -0 -0)
(3.113707998922e+18 -0 -0)
(3.17237463057081e+18 -0 -0)
(3.23115759308159e+18 -0 -0)
(3.29005721466407e+18 -0 -0)
(3.3490737395993e+18 -0 -0)
(3.4082073273093e+18 -0 -0)
(3.46745805094866e+18 -0 -0)
(3.52682589659679e+18 -0 -0)
(3.58631076186018e+18 -0 -0)
(3.64591245489123e+18 -0 -0)
(3.70563069329043e+18 -0 -0)
(3.76546510325036e+18 -0 -0)
(3.82541521803162e+18 -0 -0)
(3.88548047736417e+18 -0 -0)
(3.94566022603576e+18 -0 -0)
(4.00595371334405e+18 -0 -0)
(4.06636009136199e+18 -0 -0)
(4.12687841466032e+18 -0 -0)
(4.18750763888406e+18 -0 -0)
(4.24824661976444e+18 -0 -0)
(4.30909411234691e+18 -0 -0)
(4.37004876970967e+18 -0 -0)
(4.43110914234572e+18 -0 -0)
(4.49227367675234e+18 -0 -0)
(4.55354071475215e+18 -0 -0)
(4.61490849236052e+18 -0 -0)
(4.67637513917037e+18 -0 -0)
(4.73793867669684e+18 -0 -0)
(4.79959701803863e+18 -0 -0)
(4.86134796644358e+18 -0 -0)
(4.92318921471681e+18 -0 -0)
(4.9851183437329e+18 -0 -0)
(5.04713282184693e+18 -0 -0)
(5.10923000366106e+18 -0 -0)
(5.17140712894645e+18 -0 -0)
(5.23366132167477e+18 -0 -0)
(5.29598958887203e+18 -0 -0)
(5.35838881967796e+18 -0 -0)
(5.42085578391232e+18 -0 -0)
(5.48338713124183e+18 -0 -0)
(5.54597938960549e+18 -0 -0)
(5.60862896430362e+18 -0 -0)
(5.6713321366589e+18 -0 -0)
(5.73408506259315e+18 -0 -0)
(5.79688377134337e+18 -0 -0)
(5.85972416403368e+18 -0 -0)
(5.92260201214252e+18 -0 -0)
(5.98551295612956e+18 -0 -0)
(6.04845250364559e+18 -0 -0)
(6.11141602787659e+18 -0 -0)
(6.17439876563543e+18 -0 -0)
(6.23739581607156e+18 -0 -0)
(6.30040213999196e+18 -0 -0)
(6.3634125546559e+18 -0 -0)
(6.42642172366519e+18 -0 -0)
(6.48942417152654e+18 -0 -0)
(6.5524143266321e+18 -0 -0)
(6.61538644561338e+18 -0 -0)
(6.67833433559071e+18 -0 -0)
(6.74125168819121e+18 -0 -0)
(6.80413365564596e+18 -0 -0)
(6.86697531688977e+18 -0 -0)
(6.92976283980801e+18 -0 -0)
(6.99248001529822e+18 -0 -0)
(7.05515620508463e+18 -0 -0)
(7.11782975718221e+18 -0 -0)
(7.18050659429707e+18 -0 -0)
(7.24317904830624e+18 -0 -0)
(7.30583824349997e+18 -0 -0)
(7.3684750265697e+18 -0 -0)
(7.43107998421581e+18 -0 -0)
(7.49364351708479e+18 -0 -0)
(7.55615584482503e+18 -0 -0)
(7.61860700053041e+18 -0 -0)
(7.68098682386116e+18 -0 -0)
(7.74328495304727e+18 -0 -0)
(7.80549081644649e+18 -0 -0)
(7.86759362380445e+18 -0 -0)
(7.92958235677348e+18 -0 -0)
(7.9914457589942e+18 -0 -0)
(8.05317232571397e+18 -0 -0)
(8.11475029249915e+18 -0 -0)
(8.1761676236894e+18 -0 -0)
(8.23741200002914e+18 -0 -0)
(8.29847080553383e+18 -0 -0)
(8.35933111370225e+18 -0 -0)
(8.41997967308532e+18 -0 -0)
(8.48040289150138e+18 -0 -0)
(8.5405868206733e+18 -0 -0)
(8.60051713661907e+18 -0 -0)
(8.66017912775572e+18 -0 -0)
(8.71955766035483e+18 -0 -0)
(8.77863719482796e+18 -0 -0)
(8.83740168128591e+18 -0 -0)
(8.89583472114356e+18 -0 -0)
(8.95391914887936e+18 -0 -0)
(9.01163783440872e+18 -0 -0)
(9.06897196688387e+18 -0 -0)
(9.12590441512798e+18 -0 -0)
(9.18241305627509e+18 -0 -0)
(9.23848350628443e+18 -0 -0)
(9.29408521292402e+18 -0 -0)
(9.34921485687237e+18 -0 -0)
(9.40381978439405e+18 -0 -0)
(9.45792877702729e+18 -0 -0)
(9.51143524828954e+18 -0 -0)
(9.5644454834119e+18 -0 -0)
(9.61674098103605e+18 -0 -0)
(9.66856228403992e+18 -0 -0)
(9.71958695692097e+18 -0 -0)
(9.76958761853555e+18 -0 -0)
(9.82048336168929e+18 -0 -0)
(9.86900268388355e+18 -0 -0)
(9.9171767078214e+18 -0 -0)
(9.96518616847187e+18 -0 -0)
(1.00115342524374e+19 -0 -0)
(1.00587236239212e+19 -0 -0)
(1.01031873390972e+19 -0 -0)
(1.01491640648139e+19 -0 -0)
(1.01924524773965e+19 -0 -0)
(1.02353421732162e+19 -0 -0)
(1.02745645512226e+19 -0 -0)
(1.03218978380719e+19 -0 -0)
(1.03559613038501e+19 -0 -0)
(1.03929606083353e+19 -0 -0)
(1.04374312809446e+19 -0 -0)
(1.04671879542321e+19 -0 -0)
(1.0499129955514e+19 -0 -0)
(1.05403747258098e+19 -0 -0)
(1.05612408360419e+19 -0 -0)
(1.05946159750577e+19 -0 -0)
(1.06218942871626e+19 -0 -0)
(1.06468379881097e+19 -0 -0)
(1.06669028381361e+19 -0 -0)
(1.06983599076149e+19 -0 -0)
(1.07128517845232e+19 -0 -0)
(1.07384633899739e+19 -0 -0)
(1.07609440664593e+19 -0 -0)
(1.07880804488051e+19 -0 -0)
(1.0811185873925e+19 -0 -0)
(1.08449086735966e+19 -0 -0)
(1.08813156300887e+19 -0 -0)
(1.09307797493926e+19 -0 -0)
(1.09947823084466e+19 -0 -0)
(1.10860198099711e+19 -0 -0)
(1.12346752200153e+19 -0 -0)
(1.1423150878701e+19 -0 -0)
(1.16760826562541e+19 -0 -0)
(1.19523738840166e+19 -0 -0)
(1.21885562520464e+19 -0 -0)
(1.24025702998214e+19 -0 -0)
(1.25851303678651e+19 -0 -0)
(1.2708510340418e+19 -0 -0)
(1.2803177742018e+19 -0 -0)
(1.28767594899856e+19 -0 -0)
(1.29402824816548e+19 -0 -0)
(1.29946886323519e+19 -0 -0)
(1.30468012523924e+19 -0 -0)
(1.30935650743926e+19 -0 -0)
(1.31415161273157e+19 -0 -0)
(1.31870774858947e+19 -0 -0)
(1.32338699677089e+19 -0 -0)
(1.32791238066022e+19 -0 -0)
(1.3326171448385e+19 -0 -0)
(1.33718087985457e+19 -0 -0)
(1.34194336745388e+19 -0 -0)
(1.3465545500154e+19 -0 -0)
(1.35135646615501e+19 -0 -0)
(1.35598230135006e+19 -0 -0)
(1.3608075322229e+19 -0 -0)
(1.36535777314673e+19 -0 -0)
(1.37021271861352e+19 -0 -0)
(1.37471948201474e+19 -0 -0)
(1.37952670725186e+19 -0 -0)
(1.38395180634414e+19 -0 -0)
(1.38868518239256e+19 -0 -0)
(1.39299791880846e+19 -0 -0)
(1.3976331091477e+19 -0 -0)
(1.40180751363905e+19 -0 -0)
(1.40632386174868e+19 -0 -0)
(1.4103408263968e+19 -0 -0)
(1.41472125500391e+19 -0 -0)
(1.41856734293074e+19 -0 -0)
(1.42279922334072e+19 -0 -0)
(1.42646384259333e+19 -0 -0)
(1.43054253531045e+19 -0 -0)
(1.43400929862755e+19 -0 -0)
(1.43791377135875e+19 -0 -0)
(1.44121708699509e+19 -0 -0)
(1.44495541209341e+19 -0 -0)
(1.44806722501928e+19 -0 -0)
(1.45164761946424e+19 -0 -0)
(1.45456978460036e+19 -0 -0)
(1.45799657221924e+19 -0 -0)
(1.46073375335874e+19 -0 -0)
(1.46401169699241e+19 -0 -0)
(1.46656886654117e+19 -0 -0)
(1.46970440255752e+19 -0 -0)
(1.47208711444667e+19 -0 -0)
(1.47508707923729e+19 -0 -0)
(1.47730340981417e+19 -0 -0)
(1.48017699522708e+19 -0 -0)
(1.48223537399596e+19 -0 -0)
(1.48499143081031e+19 -0 -0)
(1.48690052885787e+19 -0 -0)
(1.4895476686925e+19 -0 -0)
(1.49131525073818e+19 -0 -0)
(1.49386149297008e+19 -0 -0)
(1.49549489093046e+19 -0 -0)
(1.497950099776e+19 -0 -0)
(1.49932495671015e+19 -0 -0)
(1.50194328417213e+19 -0 -0)
(1.5030751706114e+19 -0 -0)
(1.50561970753155e+19 -0 -0)
(1.5066292187338e+19 -0 -0)
(1.50910682769135e+19 -0 -0)
(1.51000030766669e+19 -0 -0)
(1.51241784979891e+19 -0 -0)
(1.51320095401648e+19 -0 -0)
(1.51556449098088e+19 -0 -0)
(1.51624201595548e+19 -0 -0)
(1.51855682106577e+19 -0 -0)
(1.51913341402778e+19 -0 -0)
(1.5214048489388e+19 -0 -0)
(1.52188500470689e+19 -0 -0)
(1.52411725820679e+19 -0 -0)
(1.52450493967518e+19 -0 -0)
(1.52670280885197e+19 -0 -0)
(1.52700256715285e+19 -0 -0)
(1.52916783713435e+19 -0 -0)
(1.52937795214066e+19 -0 -0)
(1.53151131812352e+19 -0 -0)
(1.53163411601588e+19 -0 -0)
(1.53373862176143e+19 -0 -0)
(1.53377754201564e+19 -0 -0)
(1.53585689768497e+19 -0 -0)
(1.53580555735411e+19 -0 -0)
(1.53785301560383e+19 -0 -0)
(1.53771362327496e+19 -0 -0)
(1.53972761284575e+19 -0 -0)
(1.53948721424825e+19 -0 -0)
(1.54146170103979e+19 -0 -0)
(1.54095439895783e+19 -0 -0)
(1.5431563101935e+19 -0 -0)
(1.54047029482984e+19 -0 -0)
)
;

boundaryField
{
    electrode
    {
        type            calculated;
        value           uniform (-13488417498.4784 -0 -0);
    }
    ground
    {
        type            calculated;
        value           uniform (1.54337566550627e+19 -0 -0);
    }
    otherfaces
    {
        type            empty;
    }
}


// ************************************************************************* //
