/*--------------------------------*- C++ -*----------------------------------*\
| =========                 |                                                 |
| \\      /  F ield         | foam-extend: Open Source CFD                    |
|  \\    /   O peration     | Version:     4.0                                |
|   \\  /    A nd           | Web:         http://www.foam-extend.org         |
|    \\/     M anipulation  |                                                 |
\*---------------------------------------------------------------------------*/
FoamFile
{
    version     2.0;
    format      ascii;
    class       volScalarField;
    location    "9.6e-06";
    object      N_electronMean;
}
// * * * * * * * * * * * * * * * * * * * * * * * * * * * * * * * * * * * * * //

dimensions      [0 0 0 1 0 0 0];

internalField   nonuniform List<scalar> 
300
(
6.24702148460887e+16
6.24686316210247e+16
6.24643766647865e+16
6.24570073600119e+16
6.24465691502247e+16
6.24330299901756e+16
6.24163747253365e+16
6.23965958269579e+16
6.23736852619682e+16
6.23476369735734e+16
6.23184462576677e+16
6.22861095964561e+16
6.22506245948693e+16
6.22119898687533e+16
6.21702049751477e+16
6.2125270342657e+16
6.20771872116287e+16
6.20259575829903e+16
6.1971584168491e+16
6.19140703435928e+16
6.18534201058626e+16
6.1789638035576e+16
6.17227292577254e+16
6.16526994031396e+16
6.15795545801095e+16
6.15033013521516e+16
6.14239466973019e+16
6.13414979676414e+16
6.12559628563013e+16
6.11673493530012e+16
6.10756657153081e+16
6.09809204609926e+16
6.08831223275989e+16
6.07822802073705e+16
6.0678403100533e+16
6.05715000779638e+16
6.04615802444702e+16
6.03486527051895e+16
6.02327265288467e+16
6.01138107104871e+16
5.99919141409689e+16
5.98670455759251e+16
5.97392135988458e+16
5.96084265874068e+16
5.94746926845041e+16
5.93380197700813e+16
5.91984154349794e+16
5.90558869577602e+16
5.89104412870546e+16
5.8762085029265e+16
5.86108244491748e+16
5.84566654711693e+16
5.82996136600871e+16
5.81396741848519e+16
5.79768517660915e+16
5.78111506222545e+16
5.7642574423602e+16
5.74711262564039e+16
5.72968085958217e+16
5.7119623279722e+16
5.69395714853234e+16
5.67566537076286e+16
5.65708697354101e+16
5.63822186468626e+16
5.61906988289179e+16
5.59963079546933e+16
5.57990429216564e+16
5.55988998153882e+16
5.53958738929223e+16
5.51899595659543e+16
5.49811503839894e+16
5.47694390278825e+16
5.45548173230286e+16
5.43372762315382e+16
5.41168058201803e+16
5.38933952637946e+16
5.36670328619125e+16
5.34377060238665e+16
5.32054012240582e+16
5.29701039751387e+16
5.27317988265204e+16
5.24904693181056e+16
5.22460979358665e+16
5.19986660983994e+16
5.17481541523768e+16
5.14945413828891e+16
5.12378059946771e+16
5.09779250696087e+16
5.07148745496006e+16
5.04486292379072e+16
5.01791627843009e+16
4.99064476983793e+16
4.96304553706893e+16
4.9351156019829e+16
4.90685186428714e+16
4.87825110052401e+16
4.84930996302059e+16
4.82002497889501e+16
4.79039254909477e+16
4.76040894822101e+16
4.73007032428954e+16
4.69937269695471e+16
4.66831195801302e+16
4.63688387333842e+16
4.60508408057497e+16
4.57290808777126e+16
4.54035127362506e+16
4.5074088868193e+16
4.47407604658303e+16
4.44034774133426e+16
4.40621882662523e+16
4.3716840247841e+16
4.33673792538839e+16
4.30137498699574e+16
4.26558953763348e+16
4.22937577527508e+16
4.19272777181158e+16
4.15563947488816e+16
4.11810470501713e+16
4.08011715362642e+16
4.04167038654894e+16
4.00275784970468e+16
3.96337287327466e+16
3.92350867552438e+16
3.88315836203024e+16
3.84231492181191e+16
3.80097122800963e+16
3.75912004040896e+16
3.71675400525431e+16
3.67386565574324e+16
3.6304474144245e+16
3.58649159545783e+16
3.54199040606325e+16
3.49693594769557e+16
3.4513202216817e+16
3.40513513602115e+16
3.3583725047948e+16
3.31102404423942e+16
3.26308137237393e+16
3.21453601105222e+16
3.16537938563076e+16
3.1156028239809e+16
3.06519755681901e+16
3.01415471875146e+16
2.96246535324441e+16
2.91012041625445e+16
2.857110773027e+16
2.80342719340392e+16
2.74906034655823e+16
2.69400080007825e+16
2.63823902365042e+16
2.58176538610722e+16
2.52457015332952e+16
2.46664349067859e+16
2.40797545893182e+16
2.34855601712213e+16
2.28837502944167e+16
2.22742227862557e+16
2.16568745937668e+16
2.1031601377994e+16
2.03982955880092e+16
1.97568353610178e+16
1.91070684751664e+16
1.84488048326833e+16
1.77818150722016e+16
1.71058167698235e+16
1.6420450584651e+16
1.57253047469787e+16
1.50199841542184e+16
1.43041481723992e+16
1.35775287776943e+16
1.28399871771988e+16
1.20916221003366e+16
1.13329134165037e+16
1.05649363189869e+16
9.78960543451095e+15
9.0097979582671e+15
8.2294359907319e+15
7.45362097265946e+15
6.68863722907982e+15
5.94173460877263e+15
5.22083053500964e+15
4.53409269180718e+15
3.88934112463239e+15
3.2934704295675e+15
2.75192730773862e+15
2.2682608932e+15
1.84392817698892e+15
1.47832124528113e+15
1.16894722391451e+15
911792650180568
701792057764060
533274082979701
400362156832353
297039948119170
217848603884859
158083024829980
113592713526832
80794344657672.4
56643395070432.7
38907627396193.4
26248499715455
17372667701025.6
11230769890874.2
7204419345105.31
4747105714220.35
3337904723206.12
2554607594986.18
2117004189869
1865246458776.74
1714703741881.05
1621113585255.38
1560658919270.25
1520038541149.17
1491490054070.94
1470252178706.71
1453251874729.74
1438455703375.52
1424561075049.54
1410795457934.34
1396568256272.18
1381473213904.22
1365304286684.62
1347948306554.88
1329362899754.22
1309565943001.13
1288615626650.87
1266596816585.02
1243611704564.43
1219773167695.98
1195199781618.19
1170012518471.66
1144331348828.94
1118273277302.57
1091950863476.67
1065470723419.22
1038932589847.77
1012429012781.58
986044344608.137
959852565316.8
933919104518.37
908303855315.984
883061452120.091
858240927729.215
833885164988.77
810030664390.273
786707109085.179
763938217382.328
741742270731.688
720132759655.967
699119584419.022
678709049089.775
658903818766.018
639703291280.984
621104156690.592
603101975348.478
585688502892.348
568850871152.397
552577586863.864
536857835098.469
521678731928.385
507026100943.008
492885153647.127
479240603442.179
466076958975.621
453378828777.184
441130270597.099
429315106545.337
417917452978.004
406921384755.555
396310534437.078
386067922440.846
376175737723.006
366619311799.376
357387699551.432
348470892114.118
339859638510.25
331545236893.19
323519719974.341
315775893149.625
308307264003.899
301107541341.179
294169905428.254
287479703076.487
281011312616.347
274749281002.872
268697867916.041
262868094616.26
257272051687.556
251905260768.065
246740694571.89
241782810970.43
237077400385.44
232631961918.992
228472744758.746
224683908600.256
221392236726.877
218859188514.514
217523976644.226
218157670112.095
)
;

boundaryField
{
    electrode
    {
        type            calculated;
        value           uniform 6.24702148462121e+16;
    }
    ground
    {
        type            calculated;
        value           uniform 220011650495.326;
    }
    otherfaces
    {
        type            empty;
    }
}


// ************************************************************************* //
