/*--------------------------------*- C++ -*----------------------------------*\
| =========                 |                                                 |
| \\      /  F ield         | foam-extend: Open Source CFD                    |
|  \\    /   O peration     | Version:     4.0                                |
|   \\  /    A nd           | Web:         http://www.foam-extend.org         |
|    \\/     M anipulation  |                                                 |
\*---------------------------------------------------------------------------*/
FoamFile
{
    version     2.0;
    format      ascii;
    class       volScalarField;
    location    "9.6e-06";
    object      Sy_electron;
}
// * * * * * * * * * * * * * * * * * * * * * * * * * * * * * * * * * * * * * //

dimensions      [1 -3 -1 0 0 0 0];

internalField   nonuniform List<scalar> 
300
(
3.0616191582696e-09
3.06226450557565e-09
3.06248310016145e-09
3.0623714848849e-09
3.06226506464703e-09
3.06209713498732e-09
3.06187543046489e-09
3.06160476006719e-09
3.06128288774686e-09
3.06090993712807e-09
3.06048564725529e-09
3.06000966074603e-09
3.05948166291571e-09
3.05890131116902e-09
3.05826824955488e-09
3.05758210944062e-09
3.05684250797357e-09
3.05604904847257e-09
3.05520132029273e-09
3.05429889870378e-09
3.05334134482089e-09
3.05232820550442e-09
3.05125901326742e-09
3.05013328618228e-09
3.04895052774947e-09
3.04771022687808e-09
3.04641185771263e-09
3.04505487954333e-09
3.04363873672e-09
3.0421628585153e-09
3.0406266589942e-09
3.03902953696452e-09
3.03737087583779e-09
3.03565004347122e-09
3.03386639205984e-09
3.03201925801642e-09
3.03010796182523e-09
3.02813180793194e-09
3.02609008458929e-09
3.02398206371014e-09
3.02180700072317e-09
3.01956413443068e-09
3.01725268683974e-09
3.01487186300371e-09
3.01242085085859e-09
3.00989882104612e-09
3.00730492673766e-09
3.0046383034534e-09
3.0018980688555e-09
2.99908332257473e-09
2.99619314598648e-09
2.99322660205081e-09
2.99018273502929e-09
2.98706057032672e-09
2.98385911419971e-09
2.98057735354437e-09
2.97721425561555e-09
2.97376876777839e-09
2.97023981723996e-09
2.96662631077085e-09
2.96292713441586e-09
2.95914115318447e-09
2.95526721072893e-09
2.95130412900045e-09
2.94725070796687e-09
2.94310572526137e-09
2.93886793573554e-09
2.93453607111397e-09
2.93010883959595e-09
2.92558492543808e-09
2.92096298851408e-09
2.91624166385866e-09
2.91141956121594e-09
2.90649526454545e-09
2.90146733147015e-09
2.89633429279506e-09
2.89109465193035e-09
2.8857468842822e-09
2.88028943670382e-09
2.87472072673897e-09
2.86903914213482e-09
2.86324304000573e-09
2.85733074613121e-09
2.85130055422769e-09
2.84515072511776e-09
2.83887948594986e-09
2.83248502930946e-09
2.82596551227851e-09
2.81931905548123e-09
2.81254374213826e-09
2.80563761696024e-09
2.79859868501551e-09
2.79142491078439e-09
2.78411421672269e-09
2.77666448206933e-09
2.76907354151645e-09
2.761339183816e-09
2.75345915030889e-09
2.74543113335757e-09
2.7372527747642e-09
2.72892166405445e-09
2.7204353366598e-09
2.71179127199369e-09
2.7029868915831e-09
2.69401955683344e-09
2.68488656688348e-09
2.67558515630958e-09
2.66611249253632e-09
2.65646567323217e-09
2.6466417237948e-09
2.63663759505748e-09
2.62645015885793e-09
2.61607620110151e-09
2.60551242484242e-09
2.5947554686499e-09
2.58380187315094e-09
2.57264795537505e-09
2.56128995657683e-09
2.54972481167988e-09
2.53837306725648e-09
2.5286889137837e-09
2.51880417055301e-09
2.50871361198613e-09
2.49841235218076e-09
2.48789542169448e-09
2.47715770632224e-09
2.46619392569649e-09
2.45499862003196e-09
2.4435661392079e-09
2.43189063192436e-09
2.41996603416501e-09
2.40778605694445e-09
2.39534417311594e-09
2.38263360320505e-09
2.3696473002521e-09
2.35637793356505e-09
2.34281787108014e-09
2.32895916045746e-09
2.31479350874882e-09
2.3003122604575e-09
2.28550637379099e-09
2.27036639508171e-09
2.25488243110812e-09
2.23904411918145e-09
2.22284059480305e-09
2.20626045654653e-09
2.18929172817922e-09
2.17192181703851e-09
2.15413747032203e-09
2.13592472460944e-09
2.11726885735461e-09
2.09815432187683e-09
2.07856470028379e-09
2.05848260848499e-09
2.03788967371309e-09
2.01676636659932e-09
1.99509206455153e-09
1.97284472200376e-09
1.95000114209054e-09
1.92653635212934e-09
1.90242434523855e-09
1.87763733626557e-09
1.8521478562192e-09
1.82593365835748e-09
1.79898719570736e-09
1.77142679438131e-09
1.74338639976931e-09
1.71462117342585e-09
1.68596553048578e-09
1.6568213728258e-09
1.6265580978731e-09
1.59523303178932e-09
1.56275002387613e-09
1.52886098051893e-09
1.49302092871482e-09
1.45450703258005e-09
1.41340974369538e-09
1.37014776643755e-09
1.32362992106229e-09
1.27325509636676e-09
1.2201878729137e-09
1.16318703572275e-09
1.10051166052456e-09
1.03675086605044e-09
9.73329160573741e-10
9.11641688633686e-10
8.54676329369254e-10
8.01512832622886e-10
7.5513261481548e-10
7.26247823483795e-10
7.05753892429426e-10
7.08553217567111e-10
7.29699311136023e-10
7.78243030151217e-10
8.62036908762122e-10
1.00041316564703e-09
1.21927546421712e-09
1.580153276796e-09
2.19362828408901e-09
3.29451113183851e-09
4.63019552158093e-09
5.82631651020282e-09
7.10604817174678e-09
7.35335395396529e-09
6.55765868002215e-09
5.28540249737388e-09
3.98213371277351e-09
3.00062707543918e-09
2.32162640583147e-09
1.89414875136448e-09
1.63257486742259e-09
1.47314435653111e-09
1.3767274703795e-09
1.32200445870852e-09
1.29554028441624e-09
1.2801267236597e-09
1.27598934022889e-09
1.27831516054121e-09
1.28380771693977e-09
1.29075471913959e-09
1.29773843877545e-09
1.30237952032531e-09
1.30498027629052e-09
1.30586166628248e-09
1.30471671401894e-09
1.30141066974922e-09
1.29590212525505e-09
1.28821843462961e-09
1.27843399629073e-09
1.26665701123922e-09
1.2530193544e-09
1.23766885189025e-09
1.22076319337071e-09
1.20246512083312e-09
1.18293859502761e-09
1.1623457816968e-09
1.14084439314112e-09
1.11858588957874e-09
1.09570856846839e-09
1.07233210102477e-09
1.04857638401318e-09
1.02456464333024e-09
1.00041117005009e-09
9.76221871342779e-10
9.5209263903051e-10
9.28109068794962e-10
9.04346771424884e-10
8.80871828504512e-10
8.57741332079776e-10
8.35003969081785e-10
8.12700634803004e-10
7.90794583611583e-10
7.69326443264941e-10
7.48405331577785e-10
7.28046429410953e-10
7.08262205470633e-10
6.89057355221235e-10
6.70428424956556e-10
6.52374746326022e-10
6.34894539377398e-10
6.17980905921428e-10
6.01624970745601e-10
5.85798589602311e-10
5.70374329172174e-10
5.5545250621037e-10
5.41020837455254e-10
5.27066850214795e-10
5.13577718034823e-10
5.00540159880082e-10
4.87940632087598e-10
4.75764793977364e-10
4.63998203200134e-10
4.52613105588826e-10
4.41580594586703e-10
4.30886701063206e-10
4.20520995838721e-10
4.10474463579931e-10
4.0073881220454e-10
3.91306412760235e-10
3.82170346210231e-10
3.73324456224744e-10
3.6476346651141e-10
3.5648222192035e-10
3.48115457971076e-10
3.39685525940764e-10
3.31459557818619e-10
3.2342689277987e-10
3.15602848375271e-10
3.080044660009e-10
3.00617840459295e-10
2.92159583561833e-10
2.83870513714946e-10
2.75802904725983e-10
2.67270487540937e-10
2.5747102912873e-10
2.47994030339985e-10
2.35675994704089e-10
2.22167333552922e-10
2.04955015236539e-10
1.80096184487942e-10
)
;

boundaryField
{
    electrode
    {
        type            zeroGradient;
    }
    ground
    {
        type            zeroGradient;
    }
    otherfaces
    {
        type            empty;
    }
}


// ************************************************************************* //
