/*--------------------------------*- C++ -*----------------------------------*\
| =========                 |                                                 |
| \\      /  F ield         | foam-extend: Open Source CFD                    |
|  \\    /   O peration     | Version:     4.0                                |
|   \\  /    A nd           | Web:         http://www.foam-extend.org         |
|    \\/     M anipulation  |                                                 |
\*---------------------------------------------------------------------------*/
FoamFile
{
    version     2.0;
    format      ascii;
    class       volScalarField;
    location    "9.6e-06";
    object      Te;
}
// * * * * * * * * * * * * * * * * * * * * * * * * * * * * * * * * * * * * * //

dimensions      [0 0 0 1 0 0 0];

internalField   nonuniform List<scalar> 
300
(
40026.4660693375
40026.7443701794
40026.9110566431
40027.0094973855
40027.1660776272
40027.3558994224
40027.5820363535
40027.846364827
40028.1481362472
40028.4874973874
40028.8644589383
40029.2790060964
40029.7311503233
40030.2209029088
40030.748280518
40031.313305474
40031.9160052322
40032.5564125767
40033.2345656245
40033.9505078414
40034.704288078
40035.4959605986
40036.3255851149
40037.1932268273
40038.0989564629
40039.0428503212
40040.0249903263
40041.0454640728
40042.1043648806
40043.2017918588
40044.3378499645
40045.5126500676
40046.7263090233
40047.9789497446
40049.270701279
40050.6016988937
40051.9720841581
40053.3820050356
40054.8316159792
40056.3210780291
40057.8505589183
40059.4202331832
40061.0302822745
40062.6808946772
40064.372266038
40066.1045992914
40067.8781047984
40069.6930004881
40071.5495120035
40073.4478728576
40075.3883245949
40077.3711169584
40079.3965080619
40081.4647645754
40083.5761619137
40085.7309844334
40087.9295256406
40090.1720884019
40092.4589851701
40094.7905382178
40097.167079878
40099.5889527978
40102.0565102011
40104.5701161615
40107.1301458897
40109.7369860322
40112.3910349775
40115.0927031821
40117.8424135076
40120.6406015726
40123.4877161169
40126.3842193862
40129.3305875324
40132.327311026
40135.3748950942
40138.4738601733
40141.6247423833
40144.828094023
40148.0844840863
40151.3944988054
40154.7587422174
40158.1778367521
40161.6524238526
40165.1831646265
40168.7707405219
40172.415854038
40176.1192294718
40179.8816137
40183.7037769955
40187.5865138897
40191.5306440743
40195.53701335
40199.6064946207
40203.7399889415
40207.9384266189
40212.2027683707
40216.5340065472
40220.933166414
40225.4013075077
40229.939525065
40234.5489515288
40239.2307581425
40243.9861566302
40248.8164009735
40253.7227892951
40258.7066658516
40263.7694231491
40268.9125041594
40274.1374046483
40279.4456758149
40284.838927237
40290.3188291412
40295.8871137959
40301.5455814583
40307.2961136382
40313.1406644304
40319.0812099849
40325.1198167551
40331.2589964459
40337.5015566454
40343.8498668855
40350.3060162476
40356.8724104517
40363.551766167
40370.346952885
40377.2609792061
40384.2969960155
40391.4583038374
40398.7483622179
40406.170800188
40413.7294276929
40421.4282480507
40429.2714715317
40437.2635301857
40445.409094064
40453.7130889873
40462.1807160563
40470.817473111
40479.6291783744
40488.6219965668
40497.8024678086
40507.1775396702
40516.7546028112
40526.5415306849
40536.5467239163
40546.7791599481
40557.2484489293
40567.9648963361
40578.939574363
40590.1844013661
40601.7122349703
40613.5369724792
40625.6736766882
40638.1386991618
40650.9498610522
40664.1265918057
40677.6902108729
40691.6640563291
40706.0739527068
40720.9482888278
40736.3188449741
40752.2209605938
40768.6952929367
40785.7914034519
40803.5745321894
40822.190976001
40841.818103279
40862.4456455551
40883.9843226781
40906.523077056
40930.2847369056
40955.5001011271
40982.3490732986
41010.9598573458
41041.3097323095
41073.2692456828
41107.2250490522
41143.8292618643
41182.7524155716
41223.934801178
41268.5834636702
41316.8836253435
41369.0866391375
41427.2169873653
41493.134534488
41568.9636494243
41659.0165845842
41769.1063432216
41907.1988829532
42085.8749973333
42321.1463854456
42635.0543151039
43060.2641825349
43640.9204497189
44444.0053951137
45560.455392357
47110.4567014538
49300.9884607774
52431.9739788199
57083.8838726705
63149.7529702804
70992.7382652413
83671.6103750534
101265.537032414
125533.295016918
159378.526626177
204872.4099736
261919.112485277
327155.93236788
395349.85361029
461673.239278625
522948.573879278
577713.085430735
625748.395772721
667518.442422522
703695.15947183
735028.601246555
762362.069177566
786394.86930273
807674.902925018
826621.533770525
843604.173064397
858946.474170774
872897.586339156
885671.428290713
897448.432463134
908373.113427254
918565.198658664
928123.382553378
937129.416926536
945650.985855819
953744.035114876
961454.620119722
968820.403033194
975871.862744529
982633.327210056
989123.723241256
995358.046621125
1001346.70470055
1007092.42442209
1012597.3181902
1017863.86981517
1022889.89382651
1027671.14159001
1032201.00585163
1036470.83982189
1040470.2250143
1044187.15378879
1047608.19271264
1050718.62626522
1053502.58068223
1055943.12657901
1058022.21963118
1059720.902535
1061018.9579941
1061896.64521046
1062322.56689606
1062298.04627146
1061789.14183351
1060775.26933004
1059233.50542089
1057141.49724792
1054476.49269772
1051215.42846277
1047334.49454766
1042809.47323362
1037615.9045427
1031728.92240346
1025123.13481961
1017772.88395033
1009651.62302858
1000736.7000776
990998.899806206
980406.644260385
968935.031236198
956554.06071261
943231.662504001
928933.836448168
913624.627819739
897265.897006925
879816.986991707
861234.681459463
841472.278061217
820485.786470013
798225.146644953
774626.563037313
749626.541088035
723152.518587682
695113.207438366
665425.055617204
633978.984502784
600638.849685047
565266.698522351
527674.448945857
487626.247484224
444832.882185766
398897.199340567
349249.711620909
295067.624594238
235272.07793681
)
;

boundaryField
{
    electrode
    {
        type            electronTemperature;
        seec            0.05;
        Tse             1000;
        Edepend         1;
        TFN             1000;
        field_emission  0;
        field_enhancement_factor 55;
        work_function   5;
        value           uniform 40026.4660693375;
    }
    ground
    {
        type            electronTemperature;
        seec            0.05;
        Tse             1000;
        Edepend         1;
        TFN             1000;
        field_emission  0;
        field_enhancement_factor 55;
        work_function   5;
        value           uniform 201367.707733924;
    }
    otherfaces
    {
        type            empty;
    }
}


// ************************************************************************* //
