/*--------------------------------*- C++ -*----------------------------------*\
| =========                 |                                                 |
| \\      /  F ield         | foam-extend: Open Source CFD                    |
|  \\    /   O peration     | Version:     4.0                                |
|   \\  /    A nd           | Web:         http://www.foam-extend.org         |
|    \\/     M anipulation  |                                                 |
\*---------------------------------------------------------------------------*/
FoamFile
{
    version     2.0;
    format      ascii;
    class       volScalarField;
    location    "9.6e-06";
    object      TeMean;
}
// * * * * * * * * * * * * * * * * * * * * * * * * * * * * * * * * * * * * * //

dimensions      [0 0 0 1 0 0 0];

internalField   nonuniform List<scalar> 
300
(
36878.6779211594
36878.9687999114
36879.1115134369
36879.1435013529
36879.207720881
36879.2820181044
36879.3693958587
36879.4723367829
36879.5906171172
36879.7247246042
36879.8750396126
36880.0419121487
36880.225696159
36880.4267242699
36880.6453210685
36880.881802214
36881.1364733821
36881.4096335028
36881.7015744618
36882.0125809863
36882.3429325084
36882.6929017818
36883.0627564905
36883.452758784
36883.8631650219
36884.2942331318
36884.7462177659
36885.2193685611
36885.7139358904
36886.2301631523
36886.7682859352
36887.328548394
36887.9112016569
36888.5164907878
36889.1446585589
36889.7959428279
36890.4705819146
36891.1688205602
36891.8909041624
36892.6370758239
36893.4075777244
36894.2026587314
36895.0225690279
36895.8675583091
36896.7378781904
36897.6337821022
36898.5555250585
36899.5033631135
36900.4775513033
36901.4783436653
36902.5059934664
36903.5607630912
36904.642929666
36905.7527729485
36906.8905786406
36908.0566424725
36909.2512597854
36910.4747269714
36911.72735024
36913.0094415539
36914.3213177228
36915.6633065978
36917.0357310805
36918.4389161
36919.8732123096
36921.3389863605
36922.8366087275
36924.3664552204
36925.9289096657
36927.5243673909
36929.153230068
36930.8159001196
36932.5127982717
36934.2443613011
36936.0110280492
36937.8132413656
36939.6514669911
36941.5261988859
36943.4379339977
36945.3871766045
36947.3744615504
36949.4003410729
36951.4653706119
36953.570114211
36955.7151514735
36957.9010931208
36960.1285784463
36962.3982573696
36964.71079256
36967.0668730121
36969.4671999189
36971.912494989
36974.4035333154
36976.9411033162
36979.5260101373
36982.1590992985
36984.8412381524
36987.5733238086
36990.3562805141
36993.1910664415
36996.0786847886
36999.0201547335
37002.0165299687
37005.0689253405
37008.1784922698
37011.3464195123
37014.5739367356
37017.8623213945
37021.2129082868
37024.6270818105
37028.1062804952
37031.6519979696
37035.2657817145
37038.9492558898
37042.7041038131
37046.5320689576
37050.4349652757
37054.4146993286
37058.4732731055
37062.6127436583
37066.8352516126
37071.143045596
37075.5384763714
37080.0240158249
37084.6022671447
37089.2759446511
37094.0478763368
37098.92104195
37103.8985797543
37108.983770541
37114.1800612351
37119.4910925379
37124.9207079751
37130.4729311113
37136.1520025646
37141.9624497986
37147.909075597
37153.9969576826
37160.2314822759
37166.618378253
37173.1637468951
37179.8740882228
37186.7563360546
37193.8178936455
37201.0667079887
37208.5113448123
37216.1610332585
37224.0257399788
37232.1162031152
37240.4440510218
37249.0219731062
37257.8637825336
37266.9845666749
37276.4009245972
37286.1310704834
37296.1951331413
37306.6154161347
37317.4169459087
37328.6280716078
37340.282106371
37352.4251542804
37365.1147800881
37378.4079833805
37392.3632985604
37407.0597903332
37422.60031159
37439.0643545843
37456.5065886971
37475.0281040947
37494.7726983351
37515.8703067784
37538.4392956288
37562.6090067336
37588.4331749131
37615.9169914612
37645.2668606537
37676.7723592148
37710.6174073789
37747.2533759613
37787.6150518859
37833.026824871
37885.6643023834
37949.1260955318
38028.6819526344
38132.3217570646
38272.1048481434
38465.3895781989
38737.7209899155
39127.2811319342
39691.0878237572
40515.871583242
41737.5557392582
43573.9467952793
46436.3899419485
50748.0704147951
56817.2376216231
65617.7017214114
77677.7242329779
93957.9299765278
114843.098317842
140390.143622306
170500.836008783
205014.387794712
243314.152602955
285499.158176503
331682.143685368
381419.290766755
433262.349231753
484971.784890287
534321.535929762
579749.213831377
620527.048559482
656576.057754216
688225.256110179
715982.265040459
740363.093543407
761891.632117679
781055.602446768
798251.332551818
813798.304816427
827947.998710806
840911.486510955
852875.200468559
863990.945324049
874385.187542817
884161.244463292
893403.985650719
902183.278519583
910556.47386976
918570.573665395
926263.872412263
933667.288917812
940805.44155241
947697.4776653
954357.827186081
960796.844077402
967021.286400663
973034.744211243
978838.331896675
984429.840831195
989804.39548428
994955.95602751
999876.770713488
1004557.64813417
1008987.97818359
1013155.84406201
1017048.01156587
1020650.21043275
1023947.34019512
1026923.32872302
1029561.68559539
1031845.42626937
1033756.80760782
1035277.58971789
1036388.74671349
1037071.13158057
1037298.77998463
1037064.93971621
1036345.98767347
1035120.14570089
1033366.71024378
1031065.01592081
1028194.23976559
1024733.29844295
1020660.79015903
1015955.2497141
1010594.67015906
1004556.55153702
997818.466333547
990357.500644029
982150.301633938
973173.093823136
963400.121750327
952805.475707425
941363.139237334
929044.569978897
915819.792652672
901657.111411145
886522.99252102
870381.790357094
853195.55967043
834923.913183152
815526.186766963
794959.055483093
773169.105116288
750099.351695691
725688.385361903
699861.329768971
672538.760480888
643635.605198044
613043.399812283
580636.252251383
546277.965438566
509784.146737076
470930.147643408
429434.918139021
384905.280896277
336794.148649832
284304.938581122
226388.829501933
)
;

boundaryField
{
    electrode
    {
        type            calculated;
        value           uniform 36878.6779211606;
    }
    ground
    {
        type            calculated;
        value           uniform 193545.890414415;
    }
    otherfaces
    {
        type            empty;
    }
}


// ************************************************************************* //
