/*--------------------------------*- C++ -*----------------------------------*\
| =========                 |                                                 |
| \\      /  F ield         | foam-extend: Open Source CFD                    |
|  \\    /   O peration     | Version:     4.0                                |
|   \\  /    A nd           | Web:         http://www.foam-extend.org         |
|    \\/     M anipulation  |                                                 |
\*---------------------------------------------------------------------------*/
FoamFile
{
    version     2.0;
    format      ascii;
    class       volVectorField;
    location    "1e-09";
    object      E;
}
// * * * * * * * * * * * * * * * * * * * * * * * * * * * * * * * * * * * * * //

dimensions      [0 0 0 1 0 0 0];

internalField   nonuniform List<vector> 
249
(
(-0 22659.1506390744 -0)
(-0 15108.2556133428 -0)
(-0 15108.2554286016 -0)
(-0 15108.2554351075 -0)
(-0 15108.2554483792 -0)
(-0 15108.2554701286 -0)
(-0 15108.255492433 -0)
(-0 15108.2555148784 -0)
(-0 15108.255537515 -0)
(-0 15108.2555596784 -0)
(-0 15108.2555810539 -0)
(-0 15108.255602175 -0)
(-0 15108.2556238147 -0)
(-0 15108.255646754 -0)
(-0 15108.2556699119 -0)
(-0 15108.2556920022 -0)
(-0 15108.2557139567 -0)
(-0 15108.2557369871 -0)
(-0 15108.2557599495 -0)
(-0 15108.2557831497 -0)
(-0 15108.2558060393 -0)
(-0 15108.2558290115 -0)
(-0 15108.2558520407 -0)
(-0 15108.2558746759 -0)
(-0 15108.2558978543 -0)
(-0 15108.2559215286 -0)
(-0 15108.2559452468 -0)
(-0 15108.2559685869 -0)
(-0 15108.2559921934 -0)
(-0 15108.2560157892 -0)
(-0 15108.2560388696 -0)
(-0 15108.2560624474 -0)
(-0 15108.2560860201 -0)
(-0 15108.2561093951 -0)
(-0 15108.256133388 -0)
(-0 15108.2561572893 -0)
(-0 15108.2561808881 -0)
(-0 15108.2562048381 -0)
(-0 15108.2562291309 -0)
(-0 15108.256253368 -0)
(-0 15108.2562772969 -0)
(-0 15108.2563014862 -0)
(-0 15108.2563264786 -0)
(-0 15108.2563510161 -0)
(-0 15108.2563754485 -0)
(-0 15108.2564000439 -0)
(-0 15108.2564247828 -0)
(-0 15108.2564491534 -0)
(-0 15108.2564731318 -0)
(-0 15108.2564978803 -0)
(-0 15108.2565228434 -0)
(-0 15108.2565476583 -0)
(-0 15108.256572347 -0)
(-0 15108.2565972268 -0)
(-0 15108.2566223262 -0)
(-0 15108.2566475306 -0)
(-0 15108.2566728278 -0)
(-0 15108.2566978618 -0)
(-0 15108.2567224118 -0)
(-0 15108.2567475042 -0)
(-0 15108.2567731522 -0)
(-0 15108.256798334 -0)
(-0 15108.2568235517 -0)
(-0 15108.2568490704 -0)
(-0 15108.2568751162 -0)
(-0 15108.2569009193 -0)
(-0 15108.2569261681 -0)
(-0 15108.256951365 -0)
(-0 15108.2569769179 -0)
(-0 15108.2570033582 -0)
(-0 15108.2570295842 -0)
(-0 15108.2570553637 -0)
(-0 15108.2570817425 -0)
(-0 15108.2571079602 -0)
(-0 15108.2571337516 -0)
(-0 15108.2571599967 -0)
(-0 15108.2571865864 -0)
(-0 15108.2572137633 -0)
(-0 15108.2572407092 -0)
(-0 15108.2572675791 -0)
(-0 15108.2572944183 -0)
(-0 15108.2573210814 -0)
(-0 15108.2573484819 -0)
(-0 15108.2573762871 -0)
(-0 15108.2574037576 -0)
(-0 15108.2574308353 -0)
(-0 15108.2574577756 -0)
(-0 15108.2574848949 -0)
(-0 15108.2575120872 -0)
(-0 15108.257539265 -0)
(-0 15108.2575668235 -0)
(-0 15108.2575946044 -0)
(-0 15108.2576221219 -0)
(-0 15108.2576493586 -0)
(-0 15108.25767686 -0)
(-0 15108.2577042662 -0)
(-0 15108.2577319478 -0)
(-0 15108.2577596699 -0)
(-0 15108.2577878309 -0)
(-0 15108.2578167834 -0)
(-0 15108.2578450825 -0)
(-0 15108.2578727102 -0)
(-0 15108.2579003622 -0)
(-0 15108.2579287593 -0)
(-0 15108.2579570443 -0)
(-0 15108.2579853243 -0)
(-0 15108.2580139243 -0)
(-0 15108.2580420286 -0)
(-0 15108.2580701777 -0)
(-0 15108.2580984697 -0)
(-0 15108.2581270219 -0)
(-0 15108.2581560086 -0)
(-0 15108.2581849868 -0)
(-0 15108.2582136862 -0)
(-0 15108.2582422915 -0)
(-0 15108.2582706089 -0)
(-0 15108.2582995513 -0)
(-0 15108.2583286531 -0)
(-0 15108.2583574682 -0)
(-0 15108.2583864385 -0)
(-0 15108.25841523 -0)
(-0 15108.2584443023 -0)
(-0 15108.2584736236 -0)
(-0 15108.2585027842 -0)
(-0 15108.258532148 -0)
(-0 15108.25856166 -0)
(-0 15108.2585909984 -0)
(-0 15108.2586207135 -0)
(-0 15108.2586507012 -0)
(-0 15108.2586803344 -0)
(-0 15108.2587095884 -0)
(-0 15108.2587393217 -0)
(-0 15108.2587691236 -0)
(-0 15108.258798718 -0)
(-0 15108.258828518 -0)
(-0 15108.2588586446 -0)
(-0 15108.2588888374 -0)
(-0 15108.2589191646 -0)
(-0 15108.2589499636 -0)
(-0 15108.2589803728 -0)
(-0 15108.25901056 -0)
(-0 15108.2590409005 -0)
(-0 15108.2590711466 -0)
(-0 15108.2591014552 -0)
(-0 15108.2591319135 -0)
(-0 15108.2591624444 -0)
(-0 15108.2591931226 -0)
(-0 15108.259223832 -0)
(-0 15108.2592546779 -0)
(-0 15108.2592854653 -0)
(-0 15108.2593160136 -0)
(-0 15108.2593466731 -0)
(-0 15108.259377612 -0)
(-0 15108.2594087007 -0)
(-0 15108.2594398419 -0)
(-0 15108.2594708428 -0)
(-0 15108.2595016154 -0)
(-0 15108.2595327949 -0)
(-0 15108.2595642325 -0)
(-0 15108.2595954471 -0)
(-0 15108.2596267659 -0)
(-0 15108.2596583436 -0)
(-0 15108.2596898464 -0)
(-0 15108.2597211381 -0)
(-0 15108.2597524808 -0)
(-0 15108.2597841564 -0)
(-0 15108.2598158935 -0)
(-0 15108.259847702 -0)
(-0 15108.2598796602 -0)
(-0 15108.2599112675 -0)
(-0 15108.2599427641 -0)
(-0 15108.2599746898 -0)
(-0 15108.2600066828 -0)
(-0 15108.260038652 -0)
(-0 15108.2600707109 -0)
(-0 15108.2601027345 -0)
(-0 15108.2601349337 -0)
(-0 15108.260167336 -0)
(-0 15108.2601995652 -0)
(-0 15108.2602316886 -0)
(-0 15108.2602638472 -0)
(-0 15108.2602959299 -0)
(-0 15108.260328151 -0)
(-0 15108.2603606262 -0)
(-0 15108.2603930457 -0)
(-0 15108.2604255325 -0)
(-0 15108.2604583756 -0)
(-0 15108.2604910928 -0)
(-0 15108.2605234855 -0)
(-0 15108.2605560482 -0)
(-0 15108.2605885979 -0)
(-0 15108.2606211658 -0)
(-0 15108.2606541078 -0)
(-0 15108.2606872675 -0)
(-0 15108.2607202484 -0)
(-0 15108.2607531052 -0)
(-0 15108.2607860065 -0)
(-0 15108.2608189104 -0)
(-0 15108.2608519411 -0)
(-0 15108.2608849704 -0)
(-0 15108.2609181203 -0)
(-0 15108.26095138 -0)
(-0 15108.2609846787 -0)
(-0 15108.2610180183 -0)
(-0 15108.2610514206 -0)
(-0 15108.261084901 -0)
(-0 15108.2611183793 -0)
(-0 15108.2611518488 -0)
(-0 15108.2611853222 -0)
(-0 15108.2612188502 -0)
(-0 15108.2612523812 -0)
(-0 15108.2612861051 -0)
(-0 15108.261319854 -0)
(-0 15108.2613535102 -0)
(-0 15108.261387372 -0)
(-0 15108.2614213232 -0)
(-0 15108.2614551629 -0)
(-0 15108.2614890447 -0)
(-0 15108.2615230436 -0)
(-0 15108.2615569966 -0)
(-0 15108.261590884 -0)
(-0 15108.261624909 -0)
(-0 15108.2616591197 -0)
(-0 15108.2616933124 -0)
(-0 15108.2617275206 -0)
(-0 15108.2617618442 -0)
(-0 15108.261796179 -0)
(-0 15108.2618305142 -0)
(-0 15108.2618648728 -0)
(-0 15108.2618992349 -0)
(-0 15108.2619336021 -0)
(-0 15108.2619679699 -0)
(-0 15108.2620024236 -0)
(-0 15108.2620369408 -0)
(-0 15108.2620715224 -0)
(-0 15108.2621061931 -0)
(-0 15108.2621408576 -0)
(-0 15108.2621754929 -0)
(-0 15108.2622101704 -0)
(-0 15108.2622448999 -0)
(-0 15108.2622796651 -0)
(-0 15108.2623145002 -0)
(-0 15108.2623493311 -0)
(-0 15108.2623841982 -0)
(-0 15108.2624190934 -0)
(-0 15108.2624540104 -0)
(-0 15108.262488984 -0)
(-0 15108.2625239916 -0)
(-0 15106.3877128368 -0)
)
;

boundaryField
{
    dielectric_2
    {
        type            calculated;
        value           uniform (-0 15104.5128841661 -0);
    }
    dielectric_1
    {
        type            calculated;
        value           nonuniform 0();
    }
    otherfaces
    {
        type            empty;
    }
    procBoundary3to2
    {
        type            processor;
        value           uniform (-0 22656.404422036 -0);
    }
}


// ************************************************************************* //
