/*--------------------------------*- C++ -*----------------------------------*\
| =========                 |                                                 |
| \\      /  F ield         | foam-extend: Open Source CFD                    |
|  \\    /   O peration     | Version:     4.0                                |
|   \\  /    A nd           | Web:         http://www.foam-extend.org         |
|    \\/     M anipulation  |                                                 |
\*---------------------------------------------------------------------------*/
FoamFile
{
    version     2.0;
    format      ascii;
    class       volScalarField;
    location    "1e-09";
    object      N_Arp1;
}
// * * * * * * * * * * * * * * * * * * * * * * * * * * * * * * * * * * * * * //

dimensions      [0 0 0 1 0 0 0];

internalField   nonuniform List<scalar> 
249
(
10089963346.6725
10106651574.9234
10041110593.0038
10026006431.7363
10023109755.1779
10022607298.1652
10022526814.632
10022514732.7884
10022513014.4405
10022512780.9802
10022512750.4969
10022512746.6442
10022512746.1642
10022512746.0928
10022512746.0512
10022512746.0235
10022512746.0175
10022512746.0163
10022512746.05
10022512746.1056
10022512746.0843
10022512746.008
10022512745.9835
10022512746.0074
10022512746.0186
10022512746.0258
10022512746.0609
10022512746.0812
10022512746.0565
10022512746.0404
10022512746.0291
10022512745.9995
10022512745.9896
10022512745.9882
10022512745.9907
10022512745.9912
10022512745.9892
10022512746.0064
10022512746.0088
10022512746.002
10022512746.0062
10022512746.0125
10022512746.0166
10022512746.0127
10022512746.0339
10022512746.0514
10022512746.0126
10022512745.9834
10022512745.9649
10022512745.9243
10022512745.9158
10022512745.9271
10022512745.9448
10022512745.9686
10022512745.9548
10022512745.9372
10022512745.9586
10022512745.9682
10022512745.9393
10022512745.9249
10022512745.9304
10022512745.9404
10022512745.9635
10022512745.9506
10022512745.9048
10022512745.8956
10022512745.9081
10022512745.9153
10022512745.9186
10022512745.9234
10022512745.9375
10022512745.9232
10022512745.8926
10022512745.884
10022512745.8736
10022512745.8748
10022512745.8884
10022512745.8853
10022512745.8777
10022512745.8766
10022512745.8764
10022512745.8618
10022512745.8453
10022512745.8387
10022512745.8379
10022512745.8455
10022512745.8532
10022512745.8544
10022512745.8498
10022512745.8534
10022512745.8581
10022512745.845
10022512745.8268
10022512745.8073
10022512745.7862
10022512745.793
10022512745.8112
10022512745.8188
10022512745.8368
10022512745.8529
10022512745.8422
10022512745.8176
10022512745.8037
10022512745.7988
10022512745.8
10022512745.8012
10022512745.7901
10022512745.792
10022512745.8119
10022512745.8159
10022512745.8003
10022512745.7886
10022512745.7996
10022512745.8174
10022512745.8107
10022512745.7821
10022512745.7641
10022512745.7812
10022512745.7903
10022512745.7578
10022512745.7327
10022512745.731
10022512745.7351
10022512745.7627
10022512745.786
10022512745.7633
10022512745.7284
10022512745.7135
10022512745.7194
10022512745.7416
10022512745.7392
10022512745.7124
10022512745.7076
10022512745.7207
10022512745.7317
10022512745.7324
10022512745.7323
10022512745.7405
10022512745.7352
10022512745.7252
10022512745.728
10022512745.7214
10022512745.7032
10022512745.6971
10022512745.7004
10022512745.6907
10022512745.6641
10022512745.6516
10022512745.6741
10022512745.6902
10022512745.6786
10022512745.6819
10022512745.6917
10022512745.6808
10022512745.6617
10022512745.6507
10022512745.6513
10022512745.658
10022512745.6709
10022512745.6629
10022512745.6274
10022512745.6104
10022512745.6236
10022512745.6286
10022512745.6079
10022512745.5932
10022512745.6044
10022512745.6189
10022512745.6236
10022512745.6183
10022512745.5999
10022512745.5843
10022512745.5878
10022512745.5944
10022512745.5923
10022512745.5896
10022512745.5794
10022512745.5591
10022512745.5528
10022512745.5698
10022512745.5866
10022512745.5824
10022512745.5622
10022512745.5406
10022512745.5321
10022512745.5329
10022512745.5345
10022512745.5407
10022512745.5451
10022512745.5369
10022512745.5311
10022512745.5361
10022512745.535
10022512745.5243
10022512745.5066
10022512745.4936
10022512745.4953
10022512745.4942
10022512745.4863
10022512745.4847
10022512745.4878
10022512745.4822
10022512745.4691
10022512745.4617
10022512745.4558
10022512745.4523
10022512745.4552
10022512745.4592
10022512745.4628
10022512745.464
10022512745.4589
10022512745.4533
10022512745.4519
10022512745.4451
10022512745.438
10022512745.4361
10022512745.4308
10022512745.4206
10022512745.413
10022512745.4091
10022512745.4106
10022512745.4172
10022512745.4137
10022512745.4004
10022512745.3931
10022512745.3912
10022512745.3919
10022512745.3921
10022512745.3824
10022512745.3749
10022512745.3774
10022512745.3775
10022512745.3744
10022512745.3748
10022512745.3751
10022512745.3678
10022512745.357
10022512745.3484
10022512745.3415
10022512745.3349
10022512745.3341
10022512745.3864
10022512745.8088
10022512748.9312
10022512771.5444
10022512932.3135
10022514073.5061
10022522562.2802
10022536960.8674
)
;

boundaryField
{
    dielectric_2
    {
        type            driftDiffusionPositiveIonDensity;
        seec            0;
        value           uniform 10022536960.8674;
    }
    dielectric_1
    {
        type            driftDiffusionPositiveIonDensity;
        seec            0;
        value           nonuniform 0();
    }
    otherfaces
    {
        type            empty;
    }
    procBoundary3to2
    {
        type            processor;
        value           uniform 9950886812.90866;
    }
}


// ************************************************************************* //
