/*--------------------------------*- C++ -*----------------------------------*\
| =========                 |                                                 |
| \\      /  F ield         | foam-extend: Open Source CFD                    |
|  \\    /   O peration     | Version:     4.0                                |
|   \\  /    A nd           | Web:         http://www.foam-extend.org         |
|    \\/     M anipulation  |                                                 |
\*---------------------------------------------------------------------------*/
FoamFile
{
    version     2.0;
    format      ascii;
    class       volScalarField;
    location    "1e-09";
    object      N_electron;
}
// * * * * * * * * * * * * * * * * * * * * * * * * * * * * * * * * * * * * * //

dimensions      [0 0 0 1 0 0 0];

internalField   nonuniform List<scalar> 
249
(
4211914407.28546
4181170233.40332
4162946443.89418
4146937410.86846
4131455352.95646
4116060164.96409
4100682542.85655
4085303293.25068
4069919546.6957
4054531038.90795
4039138107.27647
4023741156.47918
4008340606.46285
3992936867.18465
3977530325.21966
3962121335.18409
3946710245.53817
3931297428.74403
3915883277.84172
3900468193.43385
3885052575.8888
3869636822.53039
3854221327.07654
3838806479.59129
3823392666.40046
3807980269.90853
3792569667.92578
3777161232.10677
3761755325.20045
3746352300.03031
3730952505.94145
3715556295.85525
3700164025.93081
3684776052.52134
3669392730.17762
3654014410.72097
3638641442.94934
3623274172.55651
3607912942.17095
3592558091.38287
3577209956.77345
3561868871.94238
3546535167.51578
3531209171.05579
3515891206.73759
3500581594.71053
3485280650.49874
3469988685.42201
3454706008.60897
3439432928.61562
3424169753.25098
3408916774.83465
3393673541.90055
3378439153.07596
3363213272.75567
3347996013.01324
3332787683.62367
3317588657.0727
3302399315.86439
3287220038.34701
3272051198.13663
3256893161.96864
3241746284.10191
3226610884.20849
3211487214.2065
3196375527.65075
3181276143.91882
3166189410.99225
3151115681.84859
3136055308.28756
3121008638.55927
3105976016.81395
3090957783.51831
3075954275.82403
3060965827.63375
3045992769.49037
3031035428.4781
3016094128.14184
3001169188.49537
2986260925.3896
2971369648.01144
2956495653.04515
2941639219.0573
2926800615.09074
2911980118.3369
2897178018.5811
2882394611.10188
2867630190.91554
2852885050.45434
2838159479.0639
2823453763.02837
2808768185.54885
2794103026.77792
2779458563.8726
2764835071.00411
2750232819.41014
2735652077.4097
2721093110.4378
2706556181.08059
2692041271.99604
2677548136.67701
2663076824.3391
2648627630.12577
2634200845.55522
2619796755.47063
2605415614.91538
2591057581.13801
2576722686.04023
2562411014.0777
2548122796.09987
2533858314.75397
2519617859.84739
2505401718.90931
2491210176.35741
2477043513.11544
2462902006.49868
2448785930.15956
2434695554.11377
2420631144.77586
2406592965.01561
2392581274.20269
2378596328.23818
2364638379.60311
2350707677.3347
2336804465.63645
2322928983.61216
2309081459.00541
2295262096.62259
2281471096.25592
2267708675.39484
2253975061.75542
2240270483.57426
2226595167.70984
2212949338.23494
2199333216.04244
2185747018.85618
2172190961.28003
2158665254.82416
2145170107.93961
2131705726.06539
2118272311.66991
2104870064.23432
2091499180.23168
2078159853.12263
2064852273.49117
2051576629.21972
2038333105.55901
2025121885.05778
2011943147.49913
1998797069.88525
1985683826.45618
1972603570.93526
1959556336.39586
1946542189.22852
1933561315.72889
1920613898.95725
1907700118.76221
1894820151.80678
1881974171.60806
1869162348.56692
1856384849.99226
1843641840.11593
1830933480.17999
1818259928.47124
1805621340.02968
1793017865.72771
1780449651.53092
1767916839.90014
1755419572.49601
1742957980.99846
1730532162.17232
1718142186.22884
1705788145.71064
1693470170.73626
1681188403.39012
1668942982.10303
1656734042.13778
1644561715.61772
1632426131.53425
1620327415.76717
1608265691.1266
1596241077.36372
1584253691.18501
1572303646.27126
1560391053.30502
1548516019.9789
1536678651.01457
1524879048.18772
1513117310.32198
1501393533.31385
1489707810.15286
1478060230.92924
1466450882.83506
1454879850.1743
1443347214.38294
1431853054.03613
1420397444.85174
1408980459.69711
1397602168.592
1386262638.72073
1374961934.43751
1363700117.25231
1352477245.84124
1341293376.0593
1330148560.91164
1319042850.56312
1307976292.32991
1296948930.67795
1285960807.20566
1275011960.64195
1264102426.89048
1253232239.01606
1242401427.1778
1231610018.5672
1220858037.36872
1210145504.91604
1199472439.65003
1188838857.05019
1178244769.62124
1167690186.82144
1157175114.89757
1146699556.93801
1136263513.10907
1125866980.58235
1115509953.33625
1105192422.31339
1094914374.87379
1084675794.4229
1074476661.53627
1064316953.92257
1054196645.4732
1044115707.31808
1034074106.36355
1024071804.33494
1014108760.95947
1004184934.57317
994300277.528779
984454733.940365
974648246.497772
964880757.025778
955152201.846818
945462512.298892
935811615.297562
926199433.273156
916625884.255027
907090881.56667
897594335.905128
888136169.527284
878716666.835093
)
;

boundaryField
{
    dielectric_2
    {
        type            driftDiffusionElectronDensity;
        seec            0.05;
        Edepend         1;
        field_emission  0;
        field_enhancement_factor 1;
        work_function   1;
        value           uniform 874026622.746911;
    }
    dielectric_1
    {
        type            driftDiffusionElectronDensity;
        seec            0.05;
        Edepend         1;
        field_emission  0;
        field_enhancement_factor 1;
        work_function   1;
        value           nonuniform 0();
    }
    otherfaces
    {
        type            empty;
    }
    procBoundary3to2
    {
        type            processor;
        value           uniform 4253582174.73675;
    }
}


// ************************************************************************* //
