/*--------------------------------*- C++ -*----------------------------------*\
| =========                 |                                                 |
| \\      /  F ield         | foam-extend: Open Source CFD                    |
|  \\    /   O peration     | Version:     4.0                                |
|   \\  /    A nd           | Web:         http://www.foam-extend.org         |
|    \\/     M anipulation  |                                                 |
\*---------------------------------------------------------------------------*/
FoamFile
{
    version     2.0;
    format      ascii;
    class       volScalarField;
    location    "1e-09";
    object      Phi;
}
// * * * * * * * * * * * * * * * * * * * * * * * * * * * * * * * * * * * * * //

dimensions      [0 0 0 1 0 0 0];

internalField   nonuniform List<scalar> 
249
(
0.81126557535395
0.808243924193524
0.805222273108612
0.802200622022083
0.799178970934571
0.796157319842732
0.793135668746518
0.790114017645759
0.787092366540566
0.784070715430754
0.781049064316695
0.778027413198331
0.775005762075826
0.771984110948805
0.768962459817124
0.765940808680839
0.762919157540324
0.759897506395258
0.756875855245528
0.753854204091279
0.750832552932269
0.74781090176886
0.744789250600665
0.741767599428045
0.738745948250794
0.735724297068903
0.732702645882184
0.729680994690804
0.726659343494749
0.723637692293927
0.720616041088433
0.717594389878379
0.714572738663453
0.711551087443971
0.708529436219695
0.705507784990615
0.702486133756781
0.699464482518259
0.696442831274847
0.693421180026607
0.6903995287735
0.687377877515688
0.684356226252904
0.681334574985095
0.678312923712498
0.675291272434916
0.672269621152481
0.669247969865003
0.666226318572819
0.66320466727575
0.660183015973669
0.657161364666613
0.654139713354605
0.651118062037674
0.648096410715713
0.645074759388743
0.642053108056702
0.639031456719613
0.636009805377558
0.632988154030648
0.629966502678555
0.626944851321385
0.623923199959224
0.620901548591964
0.617879897219595
0.614858245841917
0.611836594459229
0.608814943071451
0.605793291678682
0.602771640280683
0.599749988877339
0.59672833746885
0.593706686055194
0.590685034636153
0.587663383212009
0.584641731782652
0.581620080348011
0.578598428908017
0.575576777462505
0.572555126011734
0.569533474555474
0.566511823093964
0.563490171627041
0.560468520154574
0.557446868676525
0.554425217193072
0.551403565704191
0.548381914209962
0.545360262710231
0.542338611205129
0.539316959694524
0.5362953081784
0.533273656656684
0.530252005129551
0.52723035359694
0.524208702058807
0.521187050515233
0.518165398966028
0.515143747411364
0.512122095850894
0.509100444284652
0.506078792712862
0.503057141135566
0.500035489552717
0.497013837964062
0.493992186369899
0.490970534769934
0.487948883164329
0.484927231553123
0.481905579936258
0.478883928313737
0.475862276685448
0.472840625051334
0.469818973411455
0.466797321765857
0.463775670114538
0.460754018457614
0.457732366794717
0.454710715126155
0.45168906345173
0.448667411771577
0.445645760085638
0.442624108393857
0.439602456696189
0.436580804992744
0.433559153283329
0.430537501568079
0.42751584984693
0.424494198119794
0.42147254638665
0.418450894647659
0.415429242902815
0.412407591151931
0.409385939395166
0.406364287632443
0.403342635863759
0.400320984088985
0.397299332308225
0.394277680521319
0.391256028728238
0.388234376929171
0.385212725124014
0.382191073312811
0.379169421495555
0.376147769672229
0.37312611784279
0.37010446600725
0.36708281416554
0.364061162317716
0.36103951046367
0.358017858603531
0.354996206737265
0.351974554864863
0.348952902986219
0.345931251101382
0.342909599210281
0.339887947313047
0.336866295409634
0.333844643499929
0.330822991583941
0.32780133966175
0.324779687733235
0.321758035798411
0.318736383857298
0.315714731909958
0.312693079956305
0.309671427996294
0.306649776029947
0.303628124057214
0.300606472078082
0.297584820092706
0.294563168100977
0.29154151610283
0.288519864098306
0.285498212087368
0.28247656007002
0.279454908046274
0.276433256016048
0.273411603979339
0.270389951936223
0.267368299886665
0.264346647830682
0.261324995768293
0.258303343699421
0.255281691624044
0.252260039542203
0.24923838745383
0.246216735358853
0.243195083257392
0.240173431149459
0.237151779034974
0.23413012691402
0.231108474786507
0.228086822652376
0.225065170511598
0.222043518364278
0.219021866210359
0.216000214049875
0.212978561882793
0.209956909709099
0.206935257528807
0.203913605341849
0.200891953148254
0.197870300947979
0.194848648741046
0.19182699652741
0.188805344307086
0.185783692080059
0.182762039846347
0.179740387605929
0.176718735358808
0.173697083104976
0.170675430844366
0.167653778577034
0.164632126302962
0.161610474022084
0.158588821734434
0.15556716944002
0.152545517138815
0.149523864830804
0.146502212516014
0.143480560194451
0.140458907866052
0.137437255530803
0.134415603188725
0.131393950839794
0.128372298483988
0.125350646121323
0.122328993751782
0.119307341375375
0.116285688992088
0.113264036601934
0.110242384204901
0.107220731800965
0.104199079390124
0.101177426972355
0.0981557745476463
0.0951341221160118
0.0921124696774512
0.0890908172319435
0.0860691647794918
0.0830475123200775
0.0800258598536926
0.0770042073803435
0.0739825549000123
0.0709609024127072
0.0679392499184083
0.064917597417112
0.0618959449088099
)
;

boundaryField
{
    dielectric_2
    {
        type            coupledPotential;
        surfaceCharge   true;
        remoteField     Phi;
        value           uniform 0.0603854936203945;
    }
    dielectric_1
    {
        type            coupledPotential;
        surfaceCharge   true;
        remoteField     Phi;
        value           nonuniform 0();
    }
    otherfaces
    {
        type            empty;
    }
    procBoundary3to2
    {
        type            processor;
        value           uniform 0.814286579901552;
    }
}


// ************************************************************************* //
