/*--------------------------------*- C++ -*----------------------------------*\
| =========                 |                                                 |
| \\      /  F ield         | foam-extend: Open Source CFD                    |
|  \\    /   O peration     | Version:     4.0                                |
|   \\  /    A nd           | Web:         http://www.foam-extend.org         |
|    \\/     M anipulation  |                                                 |
\*---------------------------------------------------------------------------*/
FoamFile
{
    version     2.0;
    format      ascii;
    class       volScalarField;
    location    "1e-09";
    object      Te;
}
// * * * * * * * * * * * * * * * * * * * * * * * * * * * * * * * * * * * * * //

dimensions      [0 0 0 1 0 0 0];

internalField   nonuniform List<scalar> 
249
(
4771.50855740538
4775.15668162705
4771.04196371549
4764.58612180608
4757.81521990247
4750.95225905672
4744.08570942532
4737.22486857424
4730.37380940638
4723.53300520381
4716.70258784299
4709.88255936182
4703.07291850938
4696.27366399714
4689.48480218455
4682.70634890418
4675.93832216676
4669.18073342001
4662.43358782857
4655.69688768883
4648.97063483241
4642.25483176676
4635.54948225363
4628.85459147562
4622.1701660378
4615.496214098
4608.83274574784
4602.17977412601
4595.53731681783
4588.90539599519
4582.28403543951
4575.67325721174
4569.07308131728
4562.48352705717
4555.90461432611
4549.33636415506
4542.77879890618
4536.23194228787
4529.69581938793
4523.17045668079
4516.65588203021
4510.15212470275
4503.65921539655
4497.17718633408
4490.70607139667
4484.24590634157
4477.79672896446
4471.35857895154
4464.93149724685
4458.51552552438
4452.1107100047
4445.7172886153
4439.33575648563
4432.96672581026
4426.61068284632
4420.26781462059
4413.93816973768
4407.62177877626
4401.31866873852
4395.02886482535
4388.75239444114
4382.48928786068
4376.23958693158
4370.00336165928
4363.78071975543
4357.57176964689
4351.3765842777
4345.19521153227
4339.02769148976
4332.87406543762
4326.73437671092
4320.60867072562
4314.49699496228
4308.39939877583
4302.31593337057
4296.24665188839
4290.19160953091
4284.15086357361
4278.12447371191
4272.11250257255
4266.11501654537
4260.13208704046
4254.16379175496
4248.21021233785
4242.27142939019
4236.34752122159
4230.43856545282
4224.54464043763
4218.66582608376
4212.8022044234
4206.95385986502
4201.12087918669
4195.30335156924
4189.50136861641
4183.71502438174
4177.94441539132
4172.1896406726
4166.45080178294
4160.72809272494
4155.02195122052
4149.33295645387
4143.66152010077
4138.00781692258
4132.37194417794
4126.75400749129
4121.15412446531
4115.57243008595
4110.00908987976
4104.46426126984
4098.9380743009
4093.43065327392
4087.9421152156
4082.47257599616
4077.0221541969
4071.59097171696
4066.17915391295
4060.78682966017
4055.41413138112
4050.06119511476
4044.72816054703
4039.4151710544
4034.12237375281
4028.84991956063
4023.59796371564
4018.36666430101
4013.15618788242
4007.96671974457
4002.79847196064
3997.65166460919
3992.52650110433
3987.42316985553
3982.34185500994
3977.28274496277
3972.24603235569
3967.23191419689
3962.24059208096
3957.27227225882
3952.32716571228
3947.40548823263
3942.50746050283
3937.63330817277
3932.78326190153
3927.9575573814
3923.15643539163
3918.38014192894
3913.62892838216
3908.90305171448
3904.20277458261
3899.52836539954
3894.88009840492
3890.25826116932
3885.66323580107
3881.09567639552
3876.55619305006
3872.04512197666
3867.56275432012
3863.10938801309
3858.68532790419
3854.29088588468
3849.92638102339
3845.5921397219
3841.28849576583
3837.01579064464
3832.77437383537
3828.56460273399
3824.38684204122
3820.24146341
3816.12884601359
3812.04938252233
3808.00347493375
3803.99151811234
3800.01390833908
3796.07105240701
3792.16337967032
3788.29133645715
3784.45537127152
3780.65594317885
3776.893521818
3773.16858765058
3769.48163220985
3765.83315834914
3762.22368051174
3758.653725012
3755.12383031634
3751.63454733349
3748.18643972172
3744.78008419952
3741.41607086728
3738.0950035503
3734.81750014103
3731.58419295022
3728.39572908095
3725.25277081628
3722.15599601474
3719.10609851563
3716.10378856237
3713.1497932422
3710.24485694158
3707.38974181882
3704.58522828471
3701.83211550304
3699.13122192414
3696.48338582183
3693.88946585347
3691.35034164851
3688.86691441581
3686.44010756314
3684.0708673585
3681.76016360758
3679.5089903475
3677.31836653318
3675.18933678067
3673.12297220886
3671.12037128774
3669.18266072322
3667.3109961929
3665.50656327188
3663.7705783907
3662.10428984358
3660.5089789458
3658.98596120907
3657.53658742447
3656.16224433713
3654.86435626664
3653.64438611334
3652.50383716585
3651.44425398068
3650.46722492068
3649.57438205786
3648.76740406404
3648.04801535081
3647.41799133011
3646.87915782939
3646.43339894881
3646.08264717524
3645.828899583
3645.67420112443
3645.62066922177
3645.67047624939
3645.82583731369
3646.08911301823
3646.46268991886
3646.94901132836
3647.55061533739
3648.27012179136
3649.11023132138
3650.07371858707
3651.16316399702
3652.3819091474
)
;

boundaryField
{
    dielectric_2
    {
        type            electronTemperature;
        seec            0.05;
        Tse             1000;
        Edepend         1;
        TFN             1000;
        field_emission  0;
        field_enhancement_factor 1;
        work_function   1;
        value           uniform 3653.0584347968;
    }
    dielectric_1
    {
        type            electronTemperature;
        seec            0.05;
        Tse             1000;
        Edepend         1;
        TFN             1000;
        field_emission  0;
        field_enhancement_factor 1;
        work_function   1;
        value           nonuniform 0();
    }
    otherfaces
    {
        type            empty;
    }
    procBoundary3to2
    {
        type            processor;
        value           uniform 4762.63492358786;
    }
}


// ************************************************************************* //
