/*--------------------------------*- C++ -*----------------------------------*\
| =========                 |                                                 |
| \\      /  F ield         | foam-extend: Open Source CFD                    |
|  \\    /   O peration     | Version:     4.0                                |
|   \\  /    A nd           | Web:         http://www.foam-extend.org         |
|    \\/     M anipulation  |                                                 |
\*---------------------------------------------------------------------------*/
FoamFile
{
    version     2.0;
    format      ascii;
    class       volScalarField;
    location    "1.9e-06";
    object      Arm;
}
// * * * * * * * * * * * * * * * * * * * * * * * * * * * * * * * * * * * * * //

dimensions      [0 0 0 1 0 0 0];

internalField   nonuniform List<scalar> 
300
(
3.57415791336196e+15
3.5760374399343e+15
3.57798713733362e+15
3.57929292437122e+15
3.58010908192584e+15
3.58048754814078e+15
3.58047253706516e+15
3.58009547745377e+15
3.57938202489608e+15
3.57835416732305e+15
3.57702767236183e+15
3.57541662668572e+15
3.57353308280188e+15
3.57138764295893e+15
3.56898976387944e+15
3.56634799475138e+15
3.56346714750076e+15
3.56035581497967e+15
3.55702234121907e+15
3.55347320335056e+15
3.54971460284305e+15
3.54575246141298e+15
3.54159246908281e+15
3.53724009741602e+15
3.53268460319002e+15
3.52794378867696e+15
3.52302133843945e+15
3.51791924769993e+15
3.51265114007376e+15
3.50722191191457e+15
3.50161773755774e+15
3.4958500195186e+15
3.48993689428886e+15
3.48388372607392e+15
3.4776956011431e+15
3.47137732773938e+15
3.46492906298553e+15
3.45835733200669e+15
3.45166921012143e+15
3.44486822741049e+15
3.43795788482967e+15
3.43094346349141e+15
3.42382884246844e+15
3.4166177134032e+15
3.40931357657258e+15
3.40191969890296e+15
3.39443702073101e+15
3.38686700519135e+15
3.37920186498883e+15
3.37144021696656e+15
3.3635694020773e+15
3.35560199163668e+15
3.34753252927505e+15
3.33937878445826e+15
3.33114886319901e+15
3.32285916934236e+15
3.31451298431509e+15
3.30611322427422e+15
3.29766246407332e+15
3.2891611123637e+15
3.28061349402294e+15
3.27202172518756e+15
3.26338247502222e+15
3.25467772384182e+15
3.24591145045964e+15
3.23710931083737e+15
3.22827336232494e+15
3.2194054446926e+15
3.21050714374717e+15
3.20157982212284e+15
3.19262264067076e+15
3.18362842951097e+15
3.17459564649013e+15
3.16553178448397e+15
3.15642324504708e+15
3.14727110155431e+15
3.13808172236739e+15
3.1288509228549e+15
3.11959880064076e+15
3.11029461264531e+15
3.10097310002492e+15
3.09163634597307e+15
3.08228124970124e+15
3.07291010722076e+15
3.06350803621998e+15
3.05408280802208e+15
3.04464615255275e+15
3.03519839148233e+15
3.02572756367962e+15
3.01624147641662e+15
3.00673415496339e+15
2.99716032308151e+15
2.98757549823425e+15
2.97798123617721e+15
2.96837756338174e+15
2.95876450634332e+15
2.94914184671132e+15
2.93950916821174e+15
2.92985550068815e+15
2.92018079029674e+15
2.91049131817826e+15
2.90078840884251e+15
2.8910401470961e+15
2.8812759186681e+15
2.87148644301369e+15
2.86166233589908e+15
2.85181871481236e+15
2.84193586317406e+15
2.8320242613333e+15
2.82208936471526e+15
2.812129292181e+15
2.80214176527859e+15
2.79211902588029e+15
2.78205887055534e+15
2.77195910328219e+15
2.76180204913013e+15
2.75156874958289e+15
2.74128411271817e+15
2.7309489878638e+15
2.72055531028169e+15
2.71007659908968e+15
2.69952594670848e+15
2.68887423435363e+15
2.67813191764754e+15
2.66731045104104e+15
2.65640765340889e+15
2.64539529894213e+15
2.63429094079122e+15
2.62308369193831e+15
2.61177154710787e+15
2.60033882243348e+15
2.58878166851866e+15
2.57709511928697e+15
2.56525307056674e+15
2.55321895331755e+15
2.54101173497517e+15
2.52863536123601e+15
2.51606473278245e+15
2.50328095644905e+15
2.49029323811047e+15
2.4770855517543e+15
2.46364126585374e+15
2.44992821036916e+15
2.43591427467926e+15
2.42157478693119e+15
2.40692967346362e+15
2.39196401395199e+15
2.37666146467407e+15
2.36099149496114e+15
2.34490508748829e+15
2.32841482897985e+15
2.31149597169046e+15
2.29408609043886e+15
2.27618412206944e+15
2.25777183299911e+15
2.23879943338961e+15
2.21922361485099e+15
2.19904392348319e+15
2.17824122516928e+15
2.15677050355917e+15
2.13459613447243e+15
2.11170309634048e+15
2.08805301856792e+15
2.06365856636765e+15
2.03850677063927e+15
2.01254287554532e+15
1.98578778472844e+15
1.95828612992825e+15
1.93006683347096e+15
1.90117184295057e+15
1.8716698592796e+15
1.84159405910784e+15
1.81103679367505e+15
1.78016966500304e+15
1.74918669540283e+15
1.71825767991771e+15
1.68756178912845e+15
1.65729799016739e+15
1.62770528070441e+15
1.59893909676141e+15
1.57115371780501e+15
1.54449626733915e+15
1.51904793625563e+15
1.4949237116866e+15
1.47212332435907e+15
1.45055602624113e+15
1.43026154518652e+15
1.4111881713633e+15
1.39324685672893e+15
1.37634826481381e+15
1.3603704513696e+15
1.34526633917376e+15
1.33102088668074e+15
1.31818949603745e+15
1.3170237286047e+15
1.33388758209205e+15
1.35171705174692e+15
1.35520661758994e+15
1.34890211802188e+15
1.33790194320713e+15
1.3235102491551e+15
1.30874579346767e+15
1.29557554787167e+15
1.2843922405835e+15
1.27528883036215e+15
1.26750447149823e+15
1.26049325564351e+15
1.25432122784445e+15
1.24875294672806e+15
1.24352163431526e+15
1.23816474254228e+15
1.23294624276078e+15
1.227855547713e+15
1.22282120643584e+15
1.21784582493653e+15
1.21289273100138e+15
1.20792856854919e+15
1.20297814936181e+15
1.19802149459497e+15
1.19305586148909e+15
1.18809432196971e+15
1.18312718373996e+15
1.17815994650683e+15
1.17314583591368e+15
1.16811782464617e+15
1.16312985909914e+15
1.15820116946562e+15
1.15332823461417e+15
1.14852198605193e+15
1.1437985622359e+15
1.13915098368875e+15
1.1345879688462e+15
1.13012300488649e+15
1.12575271655658e+15
1.12147722461033e+15
1.11731341453264e+15
1.11324504405286e+15
1.10929059155644e+15
1.10543772718108e+15
1.10169568309552e+15
1.09806329026218e+15
1.09453092076549e+15
1.09111146115152e+15
1.08778858337413e+15
1.08456612452942e+15
1.08145710601802e+15
1.07844503486143e+15
1.0755350262975e+15
1.07272728348177e+15
1.07001171575001e+15
1.06739315145176e+15
1.06486528002327e+15
1.06242338120717e+15
1.06007107951807e+15
1.05780044572296e+15
1.05560968565802e+15
1.05349830160483e+15
1.05145187006277e+15
1.04948044570576e+15
1.04757740305149e+15
1.04574980263246e+15
1.04398643508142e+15
1.04229168919174e+15
1.04065886395222e+15
1.03908734239201e+15
1.03757503006491e+15
1.03611632776574e+15
1.03471042172588e+15
1.03334877042063e+15
1.03203925853973e+15
1.03077588741562e+15
1.02956568063756e+15
1.02839697540894e+15
1.02727693572078e+15
1.02619468997896e+15
1.02514996453731e+15
1.02414208616974e+15
1.02317201241378e+15
1.02224258283975e+15
1.02134814451441e+15
1.02048822287493e+15
1.01965611773095e+15
1.01882067303421e+15
1.01799157068898e+15
1.01719483806356e+15
1.01642024519815e+15
1.0156743026003e+15
1.01495700039796e+15
1.01426076461815e+15
1.01352834112304e+15
1.01278277576988e+15
1.01206108532364e+15
1.0113620038521e+15
1.01059008153014e+15
1.00980654433752e+15
1.00900827358056e+15
1.0081040056764e+15
1.00712098679788e+15
1.00599930767625e+15
1.00464355200663e+15
)
;

boundaryField
{
    electrode
    {
        type            zeroGradient;
    }
    ground
    {
        type            zeroGradient;
    }
    otherfaces
    {
        type            empty;
    }
}


// ************************************************************************* //
