/*--------------------------------*- C++ -*----------------------------------*\
| =========                 |                                                 |
| \\      /  F ield         | foam-extend: Open Source CFD                    |
|  \\    /   O peration     | Version:     4.0                                |
|   \\  /    A nd           | Web:         http://www.foam-extend.org         |
|    \\/     M anipulation  |                                                 |
\*---------------------------------------------------------------------------*/
FoamFile
{
    version     2.0;
    format      ascii;
    class       volScalarField;
    location    "1.9e-06";
    object      Arp1;
}
// * * * * * * * * * * * * * * * * * * * * * * * * * * * * * * * * * * * * * //

dimensions      [0 0 0 1 0 0 0];

internalField   nonuniform List<scalar> 
300
(
6.00955002149007e+16
6.01222030096901e+16
6.01054867301324e+16
6.00956062919979e+16
6.00843039559592e+16
6.0069198297614e+16
6.00507923762703e+16
6.00291697078051e+16
6.00042868756556e+16
5.99761535144694e+16
5.99447808062096e+16
5.99101769213773e+16
5.98723515040683e+16
5.98313153240337e+16
5.97870799977445e+16
5.97396580445492e+16
5.96890628923406e+16
5.96353088635196e+16
5.95784111668868e+16
5.9518385888458e+16
5.94552499799051e+16
5.93890212468322e+16
5.93197183350534e+16
5.92473607152253e+16
5.917196866651e+16
5.90935632586418e+16
5.90121663313007e+16
5.89278004732483e+16
5.88404889988881e+16
5.87502559226974e+16
5.86571259322681e+16
5.85611243597994e+16
5.84622771504113e+16
5.83606108293627e+16
5.82561524674468e+16
5.81489296432453e+16
5.80389704043292e+16
5.79263032262319e+16
5.78109569685394e+16
5.76929608298827e+16
5.75723443006344e+16
5.7449137112835e+16
5.73233691890319e+16
5.71950705887966e+16
5.70642714527063e+16
5.69310019452651e+16
5.67952921956423e+16
5.66571722358956e+16
5.65166719383288e+16
5.63738209510441e+16
5.62286486305574e+16
5.60811839745623e+16
5.59314555519674e+16
5.57794914315836e+16
5.56253191095224e+16
5.54689654355595e+16
5.53104565373727e+16
5.51498177441106e+16
5.49870735090903e+16
5.48222473302314e+16
5.46553616708164e+16
5.44864378786871e+16
5.43154961041087e+16
5.41425552176787e+16
5.39676327272237e+16
5.3790744693478e+16
5.3611905645973e+16
5.34311284982976e+16
5.32484244622372e+16
5.30638029624461e+16
5.28772715507674e+16
5.26888358196136e+16
5.24984993162347e+16
5.23062634569025e+16
5.2112127440355e+16
5.19160881625066e+16
5.17181401316147e+16
5.1518275382438e+16
5.13164833929751e+16
5.11127510006057e+16
5.0907062319591e+16
5.06993986594151e+16
5.04897384446112e+16
5.02780571355478e+16
5.00643271507037e+16
4.98485177912594e+16
4.96305951665042e+16
4.94105221219264e+16
4.91882581699095e+16
4.89637594213314e+16
4.87369785217808e+16
4.85078645891875e+16
4.82763631549696e+16
4.80424161083992e+16
4.78059616448879e+16
4.75669342171847e+16
4.73252644913104e+16
4.70808793066107e+16
4.68337016394864e+16
4.6583650573016e+16
4.63306412706775e+16
4.60745849555918e+16
4.58153888947744e+16
4.55529563898497e+16
4.52871867730935e+16
4.50179754092495e+16
4.47452137049474e+16
4.44687891235969e+16
4.41885852073658e+16
4.39044816070591e+16
4.36163541182263e+16
4.33240747252245e+16
4.30275116539015e+16
4.27265294310061e+16
4.24209889525959e+16
4.21107475616574e+16
4.1795659133263e+16
4.14755741699856e+16
4.11503399064241e+16
4.0819800423766e+16
4.04837967740798e+16
4.01421671163149e+16
3.9794746862329e+16
3.94413688354235e+16
3.90818634409539e+16
3.87160588498619e+16
3.83437811959866e+16
3.7964854788527e+16
3.75791023392243e+16
3.71863452076954e+16
3.67864036639623e+16
3.63790971714094e+16
3.59642446909689e+16
3.55416650096045e+16
3.51111770942358e+16
3.46726004754977e+16
3.42257556637396e+16
3.37704646014515e+16
3.33065511572308e+16
3.28338416673636e+16
3.23521655304187e+16
3.18613558654375e+16
3.13612502426833e+16
3.08516914985981e+16
3.03325286526155e+16
2.98036179435968e+16
2.9264824007392e+16
2.87160212299517e+16
2.81570953080722e+16
2.75879450659044e+16
2.70084845870907e+16
2.6418645736165e+16
2.58183811584338e+16
2.52076678950198e+16
2.4586511736979e+16
2.39549525556393e+16
2.33130708623864e+16
2.26609954330509e+16
2.19989151532112e+16
2.13270858216914e+16
2.06458561224042e+16
1.99556690754325e+16
1.92571094762485e+16
1.85509083089842e+16
1.78375482636651e+16
1.71195169436092e+16
1.63954961752332e+16
1.56811381959314e+16
1.49758974597567e+16
1.42668290909157e+16
1.35686681305038e+16
1.28828892618337e+16
1.22287261209934e+16
1.15876854219649e+16
1.09438964954889e+16
1.03573660891627e+16
9.76890387985641e+15
9.24255588301913e+15
8.75266118079424e+15
8.25660346087984e+15
7.83128383095052e+15
7.40758084095326e+15
7.04334712722124e+15
6.73240528356968e+15
6.41198803334746e+15
6.14485359940304e+15
5.92058366206132e+15
5.67844758085256e+15
5.49069077474314e+15
5.32856549493182e+15
5.17622813465752e+15
5.01562367901223e+15
4.88875827169872e+15
4.77658894610924e+15
4.71889403605406e+15
4.69831195807246e+15
4.69053345199689e+15
4.68211900709571e+15
4.66595542964935e+15
4.64094143709093e+15
4.61468971855458e+15
4.58670691334577e+15
4.5440652745054e+15
4.49536015255714e+15
4.45224945224672e+15
4.41334298822719e+15
4.3798121791959e+15
4.35005611017615e+15
4.32539118702772e+15
4.30427948165654e+15
4.28742380887088e+15
4.26730923132027e+15
4.23717310730238e+15
4.2094482529396e+15
4.18515108779286e+15
4.1627409457781e+15
4.1433891995802e+15
4.12553885398492e+15
4.11046978792453e+15
4.09673442434004e+15
4.08516222875743e+15
4.07489567026686e+15
4.06620435357729e+15
4.05894575542426e+15
4.04782100535643e+15
4.02875020043535e+15
4.01115043719372e+15
3.99347183764202e+15
3.97792038020465e+15
3.96174364313959e+15
3.94817877107822e+15
3.93401605551118e+15
3.92233461938878e+15
3.9103484278173e+15
3.90028940406541e+15
3.88981687853508e+15
3.8809935457544e+15
3.87129689111976e+15
3.86339944281939e+15
3.85437254791196e+15
3.84727951909061e+15
3.83903737742944e+15
3.82639097077579e+15
3.80971226237651e+15
3.7951749441432e+15
3.77992078979815e+15
3.76658225454103e+15
3.75214377698089e+15
3.73922103193602e+15
3.7250196005665e+15
3.71214250739423e+15
3.69815296380459e+15
3.68557110235221e+15
3.67203121052512e+15
3.66000340712272e+15
3.64714317059422e+15
3.63561876507727e+15
3.62327989005935e+15
3.61230046941102e+15
3.60069136485225e+15
3.59047535621676e+15
3.5798060270654e+15
3.57057246910984e+15
3.56092957891953e+15
3.55273533195987e+15
3.54410353641831e+15
3.5367075336537e+15
3.5221434723238e+15
3.5091579762429e+15
3.49460510199642e+15
3.48167396135202e+15
3.46708375956727e+15
3.45421882260031e+15
3.43981272203381e+15
3.42710584278514e+15
3.41309318947091e+15
3.40096551220325e+15
3.3877789206531e+15
3.37687590600356e+15
3.36484778230685e+15
3.35536033144855e+15
3.3442375384081e+15
3.33594219061453e+15
3.32511832813825e+15
3.31757516622292e+15
3.30675380306765e+15
3.29942081712514e+15
3.2886359867201e+15
3.28120088226336e+15
3.2705013094107e+15
3.26309404473267e+15
3.25258718810133e+15
3.24559138868461e+15
3.23560034097305e+15
3.2292707975677e+15
3.21988794420851e+15
3.21458490617102e+15
3.20575894716824e+15
3.20160720975114e+15
3.19174255718439e+15
)
;

boundaryField
{
    electrode
    {
        type            driftDiffusionPositiveIonDensity;
        seec            0;
        fieldName       Arp1;
        value           uniform 6.00008110942463e+16;
    }
    ground
    {
        type            driftDiffusionPositiveIonDensity;
        seec            0;
        fieldName       Arp1;
        value           uniform 3.19174255718439e+15;
    }
    otherfaces
    {
        type            empty;
    }
}


// ************************************************************************* //
