/*--------------------------------*- C++ -*----------------------------------*\
| =========                 |                                                 |
| \\      /  F ield         | foam-extend: Open Source CFD                    |
|  \\    /   O peration     | Version:     4.0                                |
|   \\  /    A nd           | Web:         http://www.foam-extend.org         |
|    \\/     M anipulation  |                                                 |
\*---------------------------------------------------------------------------*/
FoamFile
{
    version     2.0;
    format      ascii;
    class       volVectorField;
    location    "1.9e-06";
    object      E;
}
// * * * * * * * * * * * * * * * * * * * * * * * * * * * * * * * * * * * * * //

dimensions      [0 0 0 1 0 0 0];

internalField   nonuniform List<vector> 
300
(
(4.09737975215485 -0 -0)
(8.94680902280285 -0 -0)
(15.3497972124606 -0 -0)
(21.6245790940486 -0 -0)
(27.7743743004593 -0 -0)
(33.9338125557313 -0 -0)
(40.0932541999581 -0 -0)
(46.2469848791493 -0 -0)
(52.3957719336671 -0 -0)
(58.5389610702209 -0 -0)
(64.6756514802159 -0 -0)
(70.8050877804019 -0 -0)
(76.9265078595657 -0 -0)
(83.0391373995971 -0 -0)
(89.142202952531 -0 -0)
(95.2349317198685 -0 -0)
(101.316551769091 -0 -0)
(107.386293490831 -0 -0)
(113.443390981073 -0 -0)
(119.487083515 -0 -0)
(125.516617253964 -0 -0)
(131.531247123119 -0 -0)
(137.530238789038 -0 -0)
(143.512870891262 -0 -0)
(149.478437444508 -0 -0)
(155.426250382503 -0 -0)
(161.355642309959 -0 -0)
(167.265969454324 -0 -0)
(173.156614742538 -0 -0)
(179.026991123379 -0 -0)
(184.876544989684 -0 -0)
(190.704759846189 -0 -0)
(196.511160052723 -0 -0)
(202.29531486201 -0 -0)
(208.056842458628 -0 -0)
(213.795414243123 -0 -0)
(219.510759282026 -0 -0)
(225.202668808998 -0 -0)
(230.871000929413 -0 -0)
(236.51568544505 -0 -0)
(242.136728775772 -0 -0)
(247.734219009669 -0 -0)
(253.308331094073 -0 -0)
(258.85933207787 -0 -0)
(264.387586523832 -0 -0)
(269.893561991059 -0 -0)
(275.377834606183 -0 -0)
(280.841094733891 -0 -0)
(286.284152759027 -0 -0)
(291.707944949313 -0 -0)
(297.113539396463 -0 -0)
(302.502142089684 -0 -0)
(307.875103024096 -0 -0)
(313.233922424914 -0 -0)
(318.580257112375 -0 -0)
(323.915926880794 -0 -0)
(329.242921043337 -0 -0)
(334.563405042543 -0 -0)
(339.879727174963 -0 -0)
(345.194425435713 -0 -0)
(350.510234495317 -0 -0)
(355.83009271582 -0 -0)
(361.157149407527 -0 -0)
(366.494772151318 -0 -0)
(371.846554235369 -0 -0)
(377.216322294852 -0 -0)
(382.608144096396 -0 -0)
(388.02633640359 -0 -0)
(393.475473128882 -0 -0)
(398.960393563389 -0 -0)
(404.486210829533 -0 -0)
(410.05832053247 -0 -0)
(415.682409568615 -0 -0)
(421.36446520699 -0 -0)
(427.110784348471 -0 -0)
(432.927983033722 -0 -0)
(438.823006215702 -0 -0)
(444.803137764113 -0 -0)
(450.876010764422 -0 -0)
(457.049618143762 -0 -0)
(463.332323533179 -0 -0)
(469.73287259893 -0 -0)
(476.260404622026 -0 -0)
(482.924464501091 -0 -0)
(489.735015299412 -0 -0)
(496.702451065098 -0 -0)
(503.837610332847 -0 -0)
(511.151790082204 -0 -0)
(518.656760368947 -0 -0)
(526.364779579509 -0 -0)
(534.288610458454 -0 -0)
(542.441536917244 -0 -0)
(550.837381790901 -0 -0)
(559.490525563254 -0 -0)
(568.415926206654 -0 -0)
(577.629140169401 -0 -0)
(587.14634483543 -0 -0)
(596.984362394181 -0 -0)
(607.160685345335 -0 -0)
(617.693503929322 -0 -0)
(628.601735492993 -0 -0)
(639.905056139327 -0 -0)
(651.623934852579 -0 -0)
(663.779670378872 -0 -0)
(676.394431135884 -0 -0)
(689.4912984557 -0 -0)
(703.094313582326 -0 -0)
(717.228528664193 -0 -0)
(731.920062412088 -0 -0)
(747.196160610768 -0 -0)
(763.085262162137 -0 -0)
(779.617071292131 -0 -0)
(796.822636289609 -0 -0)
(814.734435879229 -0 -0)
(833.386473547777 -0 -0)
(852.814381059439 -0 -0)
(873.055531877646 -0 -0)
(894.149165717252 -0 -0)
(916.136525287529 -0 -0)
(939.061006642689 -0 -0)
(962.96832461384 -0 -0)
(987.906694936503 -0 -0)
(1013.92703513178 -0 -0)
(1041.08318606395 -0 -0)
(1069.43215680117 -0 -0)
(1099.03439540355 -0 -0)
(1129.9540888383 -0 -0)
(1162.2594955627 -0 -0)
(1196.02331501168 -0 -0)
(1231.32309849546 -0 -0)
(1268.2417070903 -0 -0)
(1306.86782277578 -0 -0)
(1347.29652002413 -0 -0)
(1389.62990620356 -0 -0)
(1433.97784077864 -0 -0)
(1480.45874444208 -0 -0)
(1529.20051178476 -0 -0)
(1580.34154297427 -0 -0)
(1634.03191295337 -0 -0)
(1690.43469983137 -0 -0)
(1749.72749820716 -0 -0)
(1812.10414778608 -0 -0)
(1877.77671367507 -0 -0)
(1946.97776155516 -0 -0)
(2019.96297947029 -0 -0)
(2097.01420869581 -0 -0)
(2178.44295836039 -0 -0)
(2264.59449476933 -0 -0)
(2355.85261516248 -0 -0)
(2452.64523980765 -0 -0)
(2555.45098571564 -0 -0)
(2664.80692195453 -0 -0)
(2781.31775201 -0 -0)
(2905.66672584038 -0 -0)
(3038.62865460244 -0 -0)
(3181.08549072664 -0 -0)
(3334.04504136048 -0 -0)
(3498.66352355526 -0 -0)
(3676.27291223176 -0 -0)
(3868.41389642166 -0 -0)
(4076.87646068523 -0 -0)
(4303.74924722714 -0 -0)
(4551.48247234851 -0 -0)
(4822.95987791102 -0 -0)
(5121.60011517299 -0 -0)
(5451.64024986546 -0 -0)
(5818.4674430558 -0 -0)
(6230.52876804827 -0 -0)
(6699.07508269103 -0 -0)
(7234.53183348598 -0 -0)
(7848.17291729277 -0 -0)
(8554.80132660421 -0 -0)
(9373.32637597437 -0 -0)
(10322.054409349 -0 -0)
(11413.6577214954 -0 -0)
(12665.6345482438 -0 -0)
(14094.0090406078 -0 -0)
(15713.4235113004 -0 -0)
(17538.8132076385 -0 -0)
(19566.8264981522 -0 -0)
(21792.7805154085 -0 -0)
(24205.9327308042 -0 -0)
(26788.0985730571 -0 -0)
(29526.6204082825 -0 -0)
(32388.509246669 -0 -0)
(35338.852961852 -0 -0)
(38356.351641377 -0 -0)
(41405.3813926267 -0 -0)
(44457.3610709383 -0 -0)
(47501.2685194482 -0 -0)
(50521.624596409 -0 -0)
(53497.9439801847 -0 -0)
(56418.9466372463 -0 -0)
(59292.9063795419 -0 -0)
(62134.1148892336 -0 -0)
(64957.966157045 -0 -0)
(67778.6541092046 -0 -0)
(70598.5083716334 -0 -0)
(73413.0016007566 -0 -0)
(76216.9825249458 -0 -0)
(79006.4182284317 -0 -0)
(81779.950987794 -0 -0)
(84532.4043049887 -0 -0)
(87257.4323879326 -0 -0)
(89954.8450401972 -0 -0)
(92627.5676560389 -0 -0)
(95278.4745586543 -0 -0)
(97910.3126350161 -0 -0)
(100525.746740629 -0 -0)
(103127.381220602 -0 -0)
(105717.568918666 -0 -0)
(108296.6089438 -0 -0)
(110860.495543725 -0 -0)
(113406.934433678 -0 -0)
(115937.687415184 -0 -0)
(118454.358468151 -0 -0)
(120958.440391363 -0 -0)
(123451.309750971 -0 -0)
(125934.2595562 -0 -0)
(128408.532190175 -0 -0)
(130875.183636097 -0 -0)
(133335.261543857 -0 -0)
(135789.63584789 -0 -0)
(138239.214500419 -0 -0)
(140683.264812641 -0 -0)
(143118.225419941 -0 -0)
(145542.144301495 -0 -0)
(147955.441804215 -0 -0)
(150358.735955523 -0 -0)
(152752.479963513 -0 -0)
(155137.272922983 -0 -0)
(157513.722293233 -0 -0)
(159882.395998856 -0 -0)
(162243.950383518 -0 -0)
(164598.874759686 -0 -0)
(166947.625492211 -0 -0)
(169290.575173607 -0 -0)
(171627.957561421 -0 -0)
(173960.051541054 -0 -0)
(176287.058743349 -0 -0)
(178609.221304062 -0 -0)
(180926.77541931 -0 -0)
(183238.045745148 -0 -0)
(185540.487311848 -0 -0)
(187833.529247866 -0 -0)
(190117.600700373 -0 -0)
(192393.062913732 -0 -0)
(194660.161710184 -0 -0)
(196919.02216592 -0 -0)
(199169.715404715 -0 -0)
(201412.254789573 -0 -0)
(203646.703696597 -0 -0)
(205873.150651808 -0 -0)
(208091.730748956 -0 -0)
(210302.610606786 -0 -0)
(212505.994749183 -0 -0)
(214702.034885907 -0 -0)
(216890.887583491 -0 -0)
(219072.716776625 -0 -0)
(221247.742395948 -0 -0)
(223416.194040962 -0 -0)
(225578.354802059 -0 -0)
(227734.520617383 -0 -0)
(229885.000729954 -0 -0)
(232030.108297163 -0 -0)
(234170.148006491 -0 -0)
(236305.360529609 -0 -0)
(238433.956764273 -0 -0)
(240554.250960358 -0 -0)
(242666.24638432 -0 -0)
(244769.959214943 -0 -0)
(246865.378010734 -0 -0)
(248952.5224653 -0 -0)
(251031.447876262 -0 -0)
(253102.201653142 -0 -0)
(255164.902115252 -0 -0)
(257219.723602909 -0 -0)
(259266.914829895 -0 -0)
(261306.844840279 -0 -0)
(263339.862779898 -0 -0)
(265366.395510958 -0 -0)
(267386.71597969 -0 -0)
(269401.183760555 -0 -0)
(271409.889112996 -0 -0)
(273413.058825773 -0 -0)
(275410.693731237 -0 -0)
(277402.857153681 -0 -0)
(279389.560087789 -0 -0)
(281370.771541174 -0 -0)
(283346.517088311 -0 -0)
(285316.804988711 -0 -0)
(287281.69299241 -0 -0)
(289241.30494132 -0 -0)
(291195.796180454 -0 -0)
(293145.367268545 -0 -0)
(295090.201243081 -0 -0)
(297030.606829318 -0 -0)
(298966.751334934 -0 -0)
(300898.984251805 -0 -0)
(302826.99354538 -0 -0)
)
;

boundaryField
{
    electrode
    {
        type            calculated;
        value           uniform (2.44788766622151 -0 -0);
    }
    ground
    {
        type            calculated;
        value           uniform (303789.511331558 -0 -0);
    }
    otherfaces
    {
        type            empty;
    }
}


// ************************************************************************* //
