/*--------------------------------*- C++ -*----------------------------------*\
| =========                 |                                                 |
| \\      /  F ield         | foam-extend: Open Source CFD                    |
|  \\    /   O peration     | Version:     4.0                                |
|   \\  /    A nd           | Web:         http://www.foam-extend.org         |
|    \\/     M anipulation  |                                                 |
\*---------------------------------------------------------------------------*/
FoamFile
{
    version     2.0;
    format      ascii;
    class       volVectorField;
    location    "1.9e-06";
    object      J_Arp1;
}
// * * * * * * * * * * * * * * * * * * * * * * * * * * * * * * * * * * * * * //

dimensions      [1 -1 -1 0 0 0 0];

internalField   nonuniform List<vector> 
300
(
(1.64045951418804e+16 -0 -0)
(5.37621047480113e+16 -0 -0)
(9.35318936292973e+16 -0 -0)
(1.30712471512664e+17 -0 -0)
(1.67800411950988e+17 -0 -0)
(2.04982052235481e+17 -0 -0)
(2.4209899274492e+17 -0 -0)
(2.79132487059224e+17 -0 -0)
(3.16083912817699e+17 -0 -0)
(3.52941370500659e+17 -0 -0)
(3.8969371807696e+17 -0 -0)
(4.26330723291218e+17 -0 -0)
(4.62842016886141e+17 -0 -0)
(4.99217248549721e+17 -0 -0)
(5.35446152733216e+17 -0 -0)
(5.71518541691178e+17 -0 -0)
(6.07424314515888e+17 -0 -0)
(6.43153471106204e+17 -0 -0)
(6.78696124876098e+17 -0 -0)
(7.14042516165685e+17 -0 -0)
(7.49183026798087e+17 -0 -0)
(7.84108195428933e+17 -0 -0)
(8.1880873329556e+17 -0 -0)
(8.53275541152858e+17 -0 -0)
(8.87499726918472e+17 -0 -0)
(9.21472623886369e+17 -0 -0)
(9.55185809730933e+17 -0 -0)
(9.88631126301257e+17 -0 -0)
(1.02180069977533e+18 -0 -0)
(1.05468696173042e+18 -0 -0)
(1.08728267027574e+18 -0 -0)
(1.11958093215181e+18 -0 -0)
(1.15157522464957e+18 -0 -0)
(1.18325941858811e+18 -0 -0)
(1.21462780072863e+18 -0 -0)
(1.2456750968684e+18 -0 -0)
(1.27639649514959e+18 -0 -0)
(1.3067876689689e+18 -0 -0)
(1.33684480020043e+18 -0 -0)
(1.36656460227342e+18 -0 -0)
(1.39594434300051e+18 -0 -0)
(1.42498186717891e+18 -0 -0)
(1.45367561906873e+18 -0 -0)
(1.48202466425109e+18 -0 -0)
(1.51002871139715e+18 -0 -0)
(1.53768813342031e+18 -0 -0)
(1.56500398813043e+18 -0 -0)
(1.59197803830247e+18 -0 -0)
(1.6186127712654e+18 -0 -0)
(1.64491141789136e+18 -0 -0)
(1.67087797075553e+18 -0 -0)
(1.69651720189332e+18 -0 -0)
(1.72183467956779e+18 -0 -0)
(1.74683678439399e+18 -0 -0)
(1.77153072497049e+18 -0 -0)
(1.79592455234256e+18 -0 -0)
(1.82002717401997e+18 -0 -0)
(1.84384836697637e+18 -0 -0)
(1.86739878996622e+18 -0 -0)
(1.89068999499872e+18 -0 -0)
(1.91373443809935e+18 -0 -0)
(1.93654548884522e+18 -0 -0)
(1.95913743959497e+18 -0 -0)
(1.98152551351622e+18 -0 -0)
(2.00372587164982e+18 -0 -0)
(2.02575561932119e+18 -0 -0)
(2.04763281159903e+18 -0 -0)
(2.06937645744446e+18 -0 -0)
(2.0910065234472e+18 -0 -0)
(2.11254393604412e+18 -0 -0)
(2.13401058295383e+18 -0 -0)
(2.1554293134752e+18 -0 -0)
(2.17682393741949e+18 -0 -0)
(2.19821922322478e+18 -0 -0)
(2.21964089449655e+18 -0 -0)
(2.24111562530012e+18 -0 -0)
(2.26267103424573e+18 -0 -0)
(2.28433567681403e+18 -0 -0)
(2.30613903629724e+18 -0 -0)
(2.32811151326505e+18 -0 -0)
(2.35028441288955e+18 -0 -0)
(2.37268993111761e+18 -0 -0)
(2.39536113838604e+18 -0 -0)
(2.41833196149795e+18 -0 -0)
(2.44163716395908e+18 -0 -0)
(2.46531232327164e+18 -0 -0)
(2.48939380678241e+18 -0 -0)
(2.51391874467741e+18 -0 -0)
(2.53892500096217e+18 -0 -0)
(2.5644511415636e+18 -0 -0)
(2.590536400108e+18 -0 -0)
(2.61722064086344e+18 -0 -0)
(2.64454431915034e+18 -0 -0)
(2.67254843882847e+18 -0 -0)
(2.70127450704788e+18 -0 -0)
(2.73076448570865e+18 -0 -0)
(2.76106074056455e+18 -0 -0)
(2.79220598700551e+18 -0 -0)
(2.82424323264884e+18 -0 -0)
(2.85721571740274e+18 -0 -0)
(2.89116685004391e+18 -0 -0)
(2.92614014193277e+18 -0 -0)
(2.96217913760215e+18 -0 -0)
(2.99932734240211e+18 -0 -0)
(3.03762814709272e+18 -0 -0)
(3.07712474923143e+18 -0 -0)
(3.11786007188493e+18 -0 -0)
(3.15987667889441e+18 -0 -0)
(3.20321668775007e+18 -0 -0)
(3.24792167903157e+18 -0 -0)
(3.29403260295309e+18 -0 -0)
(3.3415896832715e+18 -0 -0)
(3.39063231760748e+18 -0 -0)
(3.44119897562818e+18 -0 -0)
(3.49332709320793e+18 -0 -0)
(3.5470529642339e+18 -0 -0)
(3.60241162872777e+18 -0 -0)
(3.65943675800502e+18 -0 -0)
(3.71816053616605e+18 -0 -0)
(3.77861353812615e+18 -0 -0)
(3.84082460381447e+18 -0 -0)
(3.90482070826875e+18 -0 -0)
(3.97062682780827e+18 -0 -0)
(4.03826580129979e+18 -0 -0)
(4.10775818696546e+18 -0 -0)
(4.17912211386636e+18 -0 -0)
(4.25237312793479e+18 -0 -0)
(4.32752403212815e+18 -0 -0)
(4.40458472056106e+18 -0 -0)
(4.48356200572919e+18 -0 -0)
(4.56445943875452e+18 -0 -0)
(4.64727712232725e+18 -0 -0)
(4.7320115156858e+18 -0 -0)
(4.81865523120437e+18 -0 -0)
(4.90719682268072e+18 -0 -0)
(4.99762056418367e+18 -0 -0)
(5.08990621989813e+18 -0 -0)
(5.18402880397545e+18 -0 -0)
(5.27995833043505e+18 -0 -0)
(5.37765955279429e+18 -0 -0)
(5.47709169297016e+18 -0 -0)
(5.57820815912387e+18 -0 -0)
(5.68095625241033e+18 -0 -0)
(5.78527686167327e+18 -0 -0)
(5.89110414576215e+18 -0 -0)
(5.99836520340899e+18 -0 -0)
(6.10697972819671e+18 -0 -0)
(6.2168596492932e+18 -0 -0)
(6.32790875493541e+18 -0 -0)
(6.44002229692536e+18 -0 -0)
(6.55308657367031e+18 -0 -0)
(6.66697848836673e+18 -0 -0)
(6.78156507557283e+18 -0 -0)
(6.89670299612508e+18 -0 -0)
(7.01223798436641e+18 -0 -0)
(7.12800425102776e+18 -0 -0)
(7.24382384568849e+18 -0 -0)
(7.35950571617228e+18 -0 -0)
(7.47484580316307e+18 -0 -0)
(7.58962368808082e+18 -0 -0)
(7.70360615553806e+18 -0 -0)
(7.81653960131949e+18 -0 -0)
(7.92816196121283e+18 -0 -0)
(8.03820410114384e+18 -0 -0)
(8.14612924247077e+18 -0 -0)
(8.25254108659625e+18 -0 -0)
(8.35597720066129e+18 -0 -0)
(8.45353631300483e+18 -0 -0)
(8.54777039195255e+18 -0 -0)
(8.63806337837746e+18 -0 -0)
(8.72717000173422e+18 -0 -0)
(8.80538106546226e+18 -0 -0)
(8.88536826596485e+18 -0 -0)
(8.95433032649017e+18 -0 -0)
(9.02230113925505e+18 -0 -0)
(9.0799759238673e+18 -0 -0)
(9.12908532733515e+18 -0 -0)
(9.19874231516738e+18 -0 -0)
(9.24324997268424e+18 -0 -0)
(9.29341341580793e+18 -0 -0)
(9.3145207845139e+18 -0 -0)
(9.34781442784441e+18 -0 -0)
(9.38002131915035e+18 -0 -0)
(9.40651023173274e+18 -0 -0)
(9.44148248633104e+18 -0 -0)
(9.45595135389173e+18 -0 -0)
(9.4773361698601e+18 -0 -0)
(9.49249048569773e+18 -0 -0)
(9.52225809961587e+18 -0 -0)
(9.53036878770997e+18 -0 -0)
(9.55311619550123e+18 -0 -0)
(9.55871873308238e+18 -0 -0)
(9.57990228207477e+18 -0 -0)
(9.58841932223523e+18 -0 -0)
(9.6719989840711e+18 -0 -0)
(9.8442542247802e+18 -0 -0)
(1.00690263642596e+19 -0 -0)
(1.02763758813666e+19 -0 -0)
(1.04498941249518e+19 -0 -0)
(1.05857644853153e+19 -0 -0)
(1.07007229708624e+19 -0 -0)
(1.07941302254073e+19 -0 -0)
(1.08815667252521e+19 -0 -0)
(1.09618506557352e+19 -0 -0)
(1.10405239978595e+19 -0 -0)
(1.11156771228243e+19 -0 -0)
(1.11914878694034e+19 -0 -0)
(1.12649945366098e+19 -0 -0)
(1.13405556282266e+19 -0 -0)
(1.14150314085373e+19 -0 -0)
(1.1491052707028e+19 -0 -0)
(1.15649870199844e+19 -0 -0)
(1.16407033646549e+19 -0 -0)
(1.17144931729131e+19 -0 -0)
(1.17899407707056e+19 -0 -0)
(1.18632904845816e+19 -0 -0)
(1.1938356940227e+19 -0 -0)
(1.20111150082918e+19 -0 -0)
(1.20856592147581e+19 -0 -0)
(1.21581096459e+19 -0 -0)
(1.22312017922844e+19 -0 -0)
(1.23026517563591e+19 -0 -0)
(1.23734805800646e+19 -0 -0)
(1.24435092276551e+19 -0 -0)
(1.25122102873077e+19 -0 -0)
(1.25785320311635e+19 -0 -0)
(1.26446354384297e+19 -0 -0)
(1.27058930237697e+19 -0 -0)
(1.27695040545768e+19 -0 -0)
(1.28268277528759e+19 -0 -0)
(1.28884856745639e+19 -0 -0)
(1.29442200253601e+19 -0 -0)
(1.3004277548365e+19 -0 -0)
(1.30596296400072e+19 -0 -0)
(1.31178295912235e+19 -0 -0)
(1.31711532734927e+19 -0 -0)
(1.3226662860596e+19 -0 -0)
(1.32758606473627e+19 -0 -0)
(1.33279644090023e+19 -0 -0)
(1.33729633116898e+19 -0 -0)
(1.34215232594671e+19 -0 -0)
(1.34630299525211e+19 -0 -0)
(1.35080230932813e+19 -0 -0)
(1.35473828611733e+19 -0 -0)
(1.35913894612122e+19 -0 -0)
(1.36299882517391e+19 -0 -0)
(1.36727427328777e+19 -0 -0)
(1.37088245960666e+19 -0 -0)
(1.37478175999037e+19 -0 -0)
(1.3779531013403e+19 -0 -0)
(1.38136026716013e+19 -0 -0)
(1.38410405794368e+19 -0 -0)
(1.38712993380379e+19 -0 -0)
(1.38955566492195e+19 -0 -0)
(1.39231926127708e+19 -0 -0)
(1.39453761856787e+19 -0 -0)
(1.39704284072202e+19 -0 -0)
(1.3990159591818e+19 -0 -0)
(1.40129938497428e+19 -0 -0)
(1.40312909786582e+19 -0 -0)
(1.40529703736734e+19 -0 -0)
(1.40708822563179e+19 -0 -0)
(1.40924949657513e+19 -0 -0)
(1.41105996895428e+19 -0 -0)
(1.41326002628862e+19 -0 -0)
(1.4151062226814e+19 -0 -0)
(1.41734772245279e+19 -0 -0)
(1.41897912511915e+19 -0 -0)
(1.42106255969759e+19 -0 -0)
(1.42233359252863e+19 -0 -0)
(1.42408970995809e+19 -0 -0)
(1.42499453259819e+19 -0 -0)
(1.42643834342373e+19 -0 -0)
(1.42707870564533e+19 -0 -0)
(1.42825963048554e+19 -0 -0)
(1.42873548813936e+19 -0 -0)
(1.42984331679563e+19 -0 -0)
(1.43035324033607e+19 -0 -0)
(1.43168020037627e+19 -0 -0)
(1.43238786940213e+19 -0 -0)
(1.43404071075413e+19 -0 -0)
(1.43486179891073e+19 -0 -0)
(1.43676844422332e+19 -0 -0)
(1.43745997135401e+19 -0 -0)
(1.43944761159108e+19 -0 -0)
(1.43989164404739e+19 -0 -0)
(1.441735465586e+19 -0 -0)
(1.44195327321649e+19 -0 -0)
(1.44352302340138e+19 -0 -0)
(1.4435415873942e+19 -0 -0)
(1.44489950826323e+19 -0 -0)
(1.44477289777748e+19 -0 -0)
(1.44609600768793e+19 -0 -0)
(1.44597705379722e+19 -0 -0)
(1.44738950757125e+19 -0 -0)
(1.44733066424805e+19 -0 -0)
(1.44900643600584e+19 -0 -0)
(1.44899647662432e+19 -0 -0)
(1.45100616773858e+19 -0 -0)
(1.45032844145302e+19 -0 -0)
)
;

boundaryField
{
    electrode
    {
        type            calculated;
        value           uniform (112381454858.759 -0 -0);
    }
    ground
    {
        type            calculated;
        value           uniform (1.45219142976218e+19 -0 -0);
    }
    otherfaces
    {
        type            empty;
    }
}


// ************************************************************************* //
