/*--------------------------------*- C++ -*----------------------------------*\
| =========                 |                                                 |
| \\      /  F ield         | foam-extend: Open Source CFD                    |
|  \\    /   O peration     | Version:     4.0                                |
|   \\  /    A nd           | Web:         http://www.foam-extend.org         |
|    \\/     M anipulation  |                                                 |
\*---------------------------------------------------------------------------*/
FoamFile
{
    version     2.0;
    format      ascii;
    class       volVectorField;
    location    "1.9e-06";
    object      J_electron;
}
// * * * * * * * * * * * * * * * * * * * * * * * * * * * * * * * * * * * * * //

dimensions      [1 -1 -1 0 0 0 0];

internalField   nonuniform List<vector> 
300
(
(-1.29232428319136e+19 0 0)
(-1.28821340649758e+19 0 0)
(-1.49003493280454e+19 0 0)
(-1.48600964103939e+19 0 0)
(-1.47557489837116e+19 0 0)
(-1.47323422539001e+19 0 0)
(-1.4700187475552e+19 0 0)
(-1.46638206445934e+19 0 0)
(-1.46289602921458e+19 0 0)
(-1.45942827582403e+19 0 0)
(-1.45595840894889e+19 0 0)
(-1.45250049943341e+19 0 0)
(-1.44905504142608e+19 0 0)
(-1.44562192736992e+19 0 0)
(-1.44220208149141e+19 0 0)
(-1.43879633261156e+19 0 0)
(-1.43540538983823e+19 0 0)
(-1.43202995910682e+19 0 0)
(-1.42867071878808e+19 0 0)
(-1.42532830484731e+19 0 0)
(-1.42200331936934e+19 0 0)
(-1.41869633576239e+19 0 0)
(-1.41540787933459e+19 0 0)
(-1.41213843772771e+19 0 0)
(-1.40888846031108e+19 0 0)
(-1.40565835110097e+19 0 0)
(-1.40244846882938e+19 0 0)
(-1.39925913504982e+19 0 0)
(-1.39609061536152e+19 0 0)
(-1.39294314023631e+19 0 0)
(-1.38981688150833e+19 0 0)
(-1.38671197729396e+19 0 0)
(-1.38362849695274e+19 0 0)
(-1.38056648303727e+19 0 0)
(-1.37752591400918e+19 0 0)
(-1.3745067147188e+19 0 0)
(-1.37150877126518e+19 0 0)
(-1.36853190819827e+19 0 0)
(-1.36557589874635e+19 0 0)
(-1.36264046349475e+19 0 0)
(-1.35972526873651e+19 0 0)
(-1.35682992181996e+19 0 0)
(-1.35395398127387e+19 0 0)
(-1.35109694007534e+19 0 0)
(-1.34825823535904e+19 0 0)
(-1.34543724682299e+19 0 0)
(-1.34263329481409e+19 0 0)
(-1.33984563451666e+19 0 0)
(-1.33707345973519e+19 0 0)
(-1.33431590192349e+19 0 0)
(-1.33157202249476e+19 0 0)
(-1.32884082530583e+19 0 0)
(-1.32612124172975e+19 0 0)
(-1.32341212830813e+19 0 0)
(-1.32071228288771e+19 0 0)
(-1.31802042244934e+19 0 0)
(-1.31533519875578e+19 0 0)
(-1.31265518705369e+19 0 0)
(-1.30997888453307e+19 0 0)
(-1.3073047123809e+19 0 0)
(-1.30463102612519e+19 0 0)
(-1.30195608570097e+19 0 0)
(-1.29927808362954e+19 0 0)
(-1.29659513503204e+19 0 0)
(-1.29390526641052e+19 0 0)
(-1.29120642539402e+19 0 0)
(-1.28849648942307e+19 0 0)
(-1.28577323920264e+19 0 0)
(-1.28303438591898e+19 0 0)
(-1.28027755378314e+19 0 0)
(-1.27750028660813e+19 0 0)
(-1.27470005476616e+19 0 0)
(-1.27187423929788e+19 0 0)
(-1.26902014792562e+19 0 0)
(-1.26613500945257e+19 0 0)
(-1.26321597333386e+19 0 0)
(-1.26026011890661e+19 0 0)
(-1.25726444844197e+19 0 0)
(-1.25422588575466e+19 0 0)
(-1.25114129811552e+19 0 0)
(-1.24800746656576e+19 0 0)
(-1.2448211175816e+19 0 0)
(-1.2415789125497e+19 0 0)
(-1.23827743444372e+19 0 0)
(-1.23491322961629e+19 0 0)
(-1.23148276487621e+19 0 0)
(-1.22798246424389e+19 0 0)
(-1.22440869042722e+19 0 0)
(-1.22075775784494e+19 0 0)
(-1.2170259296219e+19 0 0)
(-1.21320942688975e+19 0 0)
(-1.20930441494523e+19 0 0)
(-1.20530702200241e+19 0 0)
(-1.2012133333508e+19 0 0)
(-1.19701940052422e+19 0 0)
(-1.19272122277807e+19 0 0)
(-1.18831476965607e+19 0 0)
(-1.18379597596994e+19 0 0)
(-1.17916073042473e+19 0 0)
(-1.17440489468991e+19 0 0)
(-1.16952428762334e+19 0 0)
(-1.16451469287458e+19 0 0)
(-1.15937185406879e+19 0 0)
(-1.15409147580021e+19 0 0)
(-1.14866922438567e+19 0 0)
(-1.14310071449037e+19 0 0)
(-1.13738152498115e+19 0 0)
(-1.13150716624026e+19 0 0)
(-1.12547310871406e+19 0 0)
(-1.11927476123903e+19 0 0)
(-1.11290745397806e+19 0 0)
(-1.10636646629386e+19 0 0)
(-1.09964697209872e+19 0 0)
(-1.09274407909825e+19 0 0)
(-1.08565278177173e+19 0 0)
(-1.07836797448429e+19 0 0)
(-1.07088442177183e+19 0 0)
(-1.063196755254e+19 0 0)
(-1.05529945058328e+19 0 0)
(-1.04718681114285e+19 0 0)
(-1.03885294982964e+19 0 0)
(-1.03029174800042e+19 0 0)
(-1.02149685081654e+19 0 0)
(-1.01246161062084e+19 0 0)
(-1.00317905997828e+19 0 0)
(-9.93641864698528e+18 0 0)
(-9.83842273068948e+18 0 0)
(-9.73772042267735e+18 0 0)
(-9.63422388844967e+18 0 0)
(-9.52783890765631e+18 0 0)
(-9.41846393288602e+18 0 0)
(-9.30598901125847e+18 0 0)
(-9.19029454408673e+18 0 0)
(-9.07124959482793e+18 0 0)
(-8.9487104058023e+18 0 0)
(-8.82251813147692e+18 0 0)
(-8.69249663997103e+18 0 0)
(-8.55844971605918e+18 0 0)
(-8.42015792165814e+18 0 0)
(-8.27737487330981e+18 0 0)
(-8.12982310322412e+18 0 0)
(-7.97718903678042e+18 0 0)
(-7.81911737596956e+18 0 0)
(-7.65520461691775e+18 0 0)
(-7.48499132212262e+18 0 0)
(-7.3079536930951e+18 0 0)
(-7.12349340694636e+18 0 0)
(-6.93092642588302e+18 0 0)
(-6.72947001534343e+18 0 0)
(-6.51822822614735e+18 0 0)
(-6.29617561367269e+18 0 0)
(-6.06213942048457e+18 0 0)
(-5.81478007082634e+18 0 0)
(-5.55257098445573e+18 0 0)
(-5.27377827079756e+18 0 0)
(-4.97644082162041e+18 0 0)
(-4.65836433535297e+18 0 0)
(-4.31705776648408e+18 0 0)
(-3.94988777758733e+18 0 0)
(-3.55372399673108e+18 0 0)
(-3.12519755964088e+18 0 0)
(-2.65974386423706e+18 0 0)
(-2.150251837092e+18 0 0)
(-1.58863097780293e+18 0 0)
(-8.84504429437387e+17 0 0)
(-4.75211342702182e+15 0 0)
(1.52222457634226e+18 0 0)
(3.40649770447746e+18 0 0)
(4.41021004793145e+18 0 0)
(5.05613729234577e+18 0 0)
(5.87145485110529e+18 0 0)
(6.73465351560548e+18 0 0)
(6.55288516347324e+18 0 0)
(4.45875458687579e+18 0 0)
(3.04304685273055e+18 0 0)
(1.20865877930279e+18 0 0)
(-5.13053494588998e+17 0 0)
(-1.1886813195786e+18 0 0)
(-2.4752779332084e+18 0 0)
(-5.87870081383399e+17 0 0)
(2.8303413771554e+18 0 0)
(8.13137766321855e+18 0 0)
(1.57621806539966e+19 0 0)
(2.29867731305481e+19 0 0)
(2.96746295567319e+19 0 0)
(3.48379291044461e+19 0 0)
(3.63958709678957e+19 0 0)
(3.67923793934732e+19 0 0)
(3.16739416282948e+19 0 0)
(2.73934680129675e+19 0 0)
(1.92551034508775e+19 0 0)
(1.30923457834494e+19 0 0)
(6.77681703112196e+18 0 0)
(6.93945990852669e+18 0 0)
(-1.96061594101748e+18 0 0)
(-1.71787899053966e+18 0 0)
(-3.36406359368123e+18 0 0)
(-2.95571590796587e+18 0 0)
(-3.10872569417236e+18 0 0)
(-3.35390009069982e+18 0 0)
(-3.5656432117547e+18 0 0)
(-3.67297304038299e+18 0 0)
(-3.71154477391129e+18 0 0)
(-3.70099119602929e+18 0 0)
(-3.67307354155462e+18 0 0)
(-3.62469943275413e+18 0 0)
(-3.57598544325197e+18 0 0)
(-3.51928823934846e+18 0 0)
(-3.46070522969254e+18 0 0)
(-3.39915824062511e+18 0 0)
(-3.33744224619479e+18 0 0)
(-3.27465591333127e+18 0 0)
(-3.21086361285015e+18 0 0)
(-3.14665679190037e+18 0 0)
(-3.08219295761128e+18 0 0)
(-3.01766803893306e+18 0 0)
(-2.95323953271592e+18 0 0)
(-2.88906037785824e+18 0 0)
(-2.82525302012614e+18 0 0)
(-2.7619932742785e+18 0 0)
(-2.6990912342073e+18 0 0)
(-2.63730584331176e+18 0 0)
(-2.57641609633973e+18 0 0)
(-2.51630139265145e+18 0 0)
(-2.45724140632878e+18 0 0)
(-2.39928204438212e+18 0 0)
(-2.34249230370691e+18 0 0)
(-2.2869259696026e+18 0 0)
(-2.23262086698609e+18 0 0)
(-2.17960285082875e+18 0 0)
(-2.12789079378401e+18 0 0)
(-2.07749548429381e+18 0 0)
(-2.02842026568408e+18 0 0)
(-1.98066359631359e+18 0 0)
(-1.93421711544207e+18 0 0)
(-1.88906834184242e+18 0 0)
(-1.84520059112707e+18 0 0)
(-1.80259296110262e+18 0 0)
(-1.76122246486522e+18 0 0)
(-1.72106311761006e+18 0 0)
(-1.68208699860295e+18 0 0)
(-1.6442687738351e+18 0 0)
(-1.60757425578619e+18 0 0)
(-1.57196645341004e+18 0 0)
(-1.53741092466127e+18 0 0)
(-1.50389212528006e+18 0 0)
(-1.47127932719275e+18 0 0)
(-1.43977821597816e+18 0 0)
(-1.40917052826028e+18 0 0)
(-1.37943347022655e+18 0 0)
(-1.35056272165624e+18 0 0)
(-1.32252852910889e+18 0 0)
(-1.29530267360342e+18 0 0)
(-1.26885839891493e+18 0 0)
(-1.24316215297401e+18 0 0)
(-1.21822222052755e+18 0 0)
(-1.19388896540061e+18 0 0)
(-1.17030401294018e+18 0 0)
(-1.14741096131758e+18 0 0)
(-1.12505529078369e+18 0 0)
(-1.10333811752848e+18 0 0)
(-1.08219706015674e+18 0 0)
(-1.06161823975718e+18 0 0)
(-1.04157907878426e+18 0 0)
(-1.0220614101464e+18 0 0)
(-1.00304257832496e+18 0 0)
(-9.84515946184305e+17 0 0)
(-9.66385284501268e+17 0 0)
(-9.4881398940227e+17 0 0)
(-9.31672324020822e+17 0 0)
(-9.14925754860562e+17 0 0)
(-8.98587570997166e+17 0 0)
(-8.82644633603164e+17 0 0)
(-8.67086220201282e+17 0 0)
(-8.51900322119095e+17 0 0)
(-8.37075555171675e+17 0 0)
(-8.22600766864391e+17 0 0)
(-8.08465224781874e+17 0 0)
(-7.9465813563829e+17 0 0)
(-7.8117030155855e+17 0 0)
(-7.67982283338964e+17 0 0)
(-7.55102510268535e+17 0 0)
(-7.42333085434252e+17 0 0)
(-7.30168021770685e+17 0 0)
(-7.18288906071106e+17 0 0)
(-7.06602027344891e+17 0 0)
(-6.9517774931061e+17 0 0)
(-6.84028261646744e+17 0 0)
(-6.72900418086851e+17 0 0)
(-6.62443574504273e+17 0 0)
(-6.52319368445943e+17 0 0)
(-6.4232489356779e+17 0 0)
(-6.3208529742504e+17 0 0)
(-6.23317954031381e+17 0 0)
(-6.13936772407149e+17 0 0)
(-6.0557548211678e+17 0 0)
(-5.97380748734302e+17 0 0)
(-5.90709818515643e+17 0 0)
(-5.84497482279695e+17 0 0)
(-5.7432228580833e+17 0 0)
)
;

boundaryField
{
    electrode
    {
        type            calculated;
        value           uniform (-1.49285102892677e+19 0 0);
    }
    ground
    {
        type            calculated;
        value           uniform (-5.71741534238665e+17 0 0);
    }
    otherfaces
    {
        type            empty;
    }
}


// ************************************************************************* //
