/*--------------------------------*- C++ -*----------------------------------*\
| =========                 |                                                 |
| \\      /  F ield         | foam-extend: Open Source CFD                    |
|  \\    /   O peration     | Version:     4.0                                |
|   \\  /    A nd           | Web:         http://www.foam-extend.org         |
|    \\/     M anipulation  |                                                 |
\*---------------------------------------------------------------------------*/
FoamFile
{
    version     2.0;
    format      ascii;
    class       volScalarField;
    location    "1.9e-06";
    object      N_electronMean;
}
// * * * * * * * * * * * * * * * * * * * * * * * * * * * * * * * * * * * * * //

dimensions      [0 0 0 1 0 0 0];

internalField   nonuniform List<scalar> 
300
(
6.07392161257361e+16
6.07382384241328e+16
6.07346681251257e+16
6.07277877920696e+16
6.07176026056223e+16
6.0704025719983e+16
6.06869973250585e+16
6.06664752359934e+16
6.06424223961325e+16
6.06148094421505e+16
6.05836134592162e+16
6.05488174203745e+16
6.05104096713096e+16
6.04683834437967e+16
6.04227365198837e+16
6.03734708979266e+16
6.03205925145812e+16
6.02641110104285e+16
6.02040395044006e+16
6.01403943833657e+16
6.00731951208543e+16
6.00024641086491e+16
5.99282264969465e+16
5.98505100315555e+16
5.97693449457063e+16
5.96847638843894e+16
5.95968017368071e+16
5.95054954715246e+16
5.94108840108814e+16
5.93130080488727e+16
5.9211909949938e+16
5.91076337556886e+16
5.90002250275461e+16
5.88897305662049e+16
5.87761982253324e+16
5.86596767741661e+16
5.85402157646764e+16
5.84178654159867e+16
5.82926764844388e+16
5.81647001321962e+16
5.80339878308959e+16
5.79005912621899e+16
5.77645621877101e+16
5.76259523349145e+16
5.74848133068032e+16
5.73411964961513e+16
5.71951530102985e+16
5.70467336116919e+16
5.68959886872899e+16
5.67429682462579e+16
5.65877219834726e+16
5.64302993459303e+16
5.62707494950765e+16
5.61091211814245e+16
5.59454625373466e+16
5.57798208618093e+16
5.56122424441215e+16
5.54427724379442e+16
5.52714547780795e+16
5.50983321012869e+16
5.49234456813571e+16
5.47468353730467e+16
5.45685395431554e+16
5.43885950997952e+16
5.42070376394616e+16
5.40239013795409e+16
5.38392188896552e+16
5.36530209497906e+16
5.34653365046568e+16
5.32761926138381e+16
5.30856143986715e+16
5.28936250395737e+16
5.27002458709542e+16
5.25054963677155e+16
5.2309394006744e+16
5.21119543048071e+16
5.19131909205466e+16
5.17131155943501e+16
5.15117379347589e+16
5.13090652924254e+16
5.11051027587932e+16
5.08998529350783e+16
5.06933157070927e+16
5.04854881727955e+16
5.02763646106323e+16
5.00659365193759e+16
4.98541925065404e+16
4.96411180512469e+16
4.94266953898961e+16
4.92109034907556e+16
4.89937179433821e+16
4.87751109853659e+16
4.85550515638821e+16
4.83335050191286e+16
4.81104327800947e+16
4.78857922547063e+16
4.76595367127097e+16
4.74316151659394e+16
4.72019722448796e+16
4.69705481103063e+16
4.67372783568454e+16
4.65020938347279e+16
4.62649205830323e+16
4.60256798312452e+16
4.5784287781746e+16
4.55406554348374e+16
4.52946884909077e+16
4.50462872027082e+16
4.47953462857206e+16
4.45417547276402e+16
4.42853955589057e+16
4.40261457052947e+16
4.3763875877982e+16
4.34984505233802e+16
4.32297277086992e+16
4.29575590049153e+16
4.26817895423377e+16
4.24022579583579e+16
4.21187961146759e+16
4.1831228846226e+16
4.1539373916833e+16
4.1243042042777e+16
4.09420368860457e+16
4.06361550844242e+16
4.03251860664024e+16
4.00089117160703e+16
3.96871062728204e+16
3.93595363300882e+16
3.90259607038546e+16
3.86861303435002e+16
3.8339788348094e+16
3.79866699865446e+16
3.76265026889277e+16
3.72590060395025e+16
3.68838920084062e+16
3.65008652723278e+16
3.61096231702041e+16
3.57098555960573e+16
3.53012452310184e+16
3.48834678011491e+16
3.44561921066136e+16
3.40190800915778e+16
3.3571787083092e+16
3.3113962123185e+16
3.26452484862696e+16
3.21652841423679e+16
3.16737019384366e+16
3.11701297541103e+16
3.06541906824002e+16
3.01255034919267e+16
2.95836833646195e+16
2.90283423024967e+16
2.84590896183464e+16
2.78755326340132e+16
2.72772771041833e+16
2.66639278224424e+16
2.6035089537991e+16
2.53903678707603e+16
2.47293700429988e+16
2.40517056902736e+16
2.335698798748e+16
2.26448341973609e+16
2.19148656345403e+16
2.1166707059759e+16
2.03999821171659e+16
1.96143002843833e+16
1.88092403284702e+16
1.79843374643822e+16
1.71390660275328e+16
1.62728400368035e+16
1.53850571015144e+16
1.44751854809011e+16
1.35429782114697e+16
1.25888173873733e+16
1.16141078669416e+16
1.06216927508187e+16
9.61633284137801e+15
8.60521342207897e+15
7.59818758473271e+15
6.60773335583507e+15
5.64856787069464e+15
4.73678447575658e+15
3.88861123683101e+15
3.11884764821186e+15
2.43924521525878e+15
1.85712331434911e+15
1.37451220864595e+15
988043090752537
689604832242706
467626421475618
308671746399636
199047793972810
126148939768880
79372584259008.9
49922870856069.9
31540518179214.6
20156147002953.5
13219708396613.2
9091673800953
6667194305129.25
5272787333097.88
4485984842631.03
4027467724418.59
3737503484299.58
3536511592296.54
3385372664846.41
3264052391459.43
3161546407185.07
3071354644978.35
2989391359290.67
2913102619282.19
2840815610651.09
2771394109804.59
2704028486452.76
2638158866482.22
2573390790620.83
2509457644431.31
2446186326392.05
2383471191975.54
2321259828304.98
2259538790402.44
2198301825867.27
2137571365138.79
2077403041986.3
2017864080158.21
1959029257433.26
1900976223068.92
1843780361014.28
1787513896869.84
1732243522772.93
1678028951594.22
1624924465685.7
1572975939982.6
1522221928744.3
1472694669905.59
1424418961711.59
1377412190323.3
1331686731445.23
1287247853034.49
1244095360208.23
1202225145247.48
1161627850761.29
1122291667363.56
1084201201888.96
1047337698502.46
1011679854032.24
977201199393.832
943873409898.797
911669102110.078
880561381744.178
850522509102.72
821523311324.894
793534148508.887
766524471887.907
740464129621.868
715323758150.571
691074955805.472
667688505826.235
645134210072.362
623384505569.811
602413722997.335
582195012215.067
562702186278.843
543908966539.156
525789883554.427
508321035187.883
491479541370.206
475243822878.729
459592255544.814
444501989355.525
429949198068.535
415912816883.953
402374415481.464
389317834373.718
376727811756.379
364590005425.915
352890690777.896
341616375952.939
330754552692.162
320293728937.075
310222988002.848
300530651161.371
291205613907.117
282231936962.248
273586008537.886
265254910785.011
257239186298.258
249540165944.287
242159369335.425
235086291058.225
228301796231.482
221809104533.796
215633537098.521
209773486339.425
204246792758.446
199110698905.187
194453041622.833
190455096806.703
187418967364.104
185878566662.848
)
;

boundaryField
{
    electrode
    {
        type            calculated;
        value           uniform 6.07392161263568e+16;
    }
    ground
    {
        type            calculated;
        value           uniform 186248341097.476;
    }
    otherfaces
    {
        type            empty;
    }
}


// ************************************************************************* //
