/*--------------------------------*- C++ -*----------------------------------*\
| =========                 |                                                 |
| \\      /  F ield         | foam-extend: Open Source CFD                    |
|  \\    /   O peration     | Version:     4.0                                |
|   \\  /    A nd           | Web:         http://www.foam-extend.org         |
|    \\/     M anipulation  |                                                 |
\*---------------------------------------------------------------------------*/
FoamFile
{
    version     2.0;
    format      ascii;
    class       volScalarField;
    location    "1.9e-06";
    object      Phi;
}
// * * * * * * * * * * * * * * * * * * * * * * * * * * * * * * * * * * * * * //

dimensions      [0 0 0 1 0 0 0];

internalField   nonuniform List<scalar> 
300
(
699.999959201872
699.999767639478
699.999362747938
699.998744319663
699.997921109331
699.99689269471
699.995658855161
699.994219811097
699.992575722836
699.990726759634
699.988673125431
699.986415049536
699.983952786245
699.981286615679
699.978416843752
699.975343802148
699.972067848304
699.968589365364
699.964908762072
699.961026472631
699.956942956504
699.952658698148
699.948174206696
699.943490015562
699.93860668197
699.933524786399
699.928244931944
699.922767743578
699.917093867314
699.911223969262
699.905158734573
699.898898866262
699.892445083916
699.885798122259
699.878958729592
699.871927666095
699.864705701976
699.857293615476
699.849692190722
699.841902215414
699.833924478359
699.825759766829
699.817408863758
699.808872544756
699.800151574953
699.791246705655
699.78215867082
699.772888183348
699.763435931171
699.753802573164
699.743988734842
699.733995003871
699.723821925369
699.713469997003
699.702939663874
699.692231313195
699.681345268748
699.670281785125
699.659041041746
699.647623136647
699.63602808005
699.624255787681
699.612306073869
699.600178644387
699.587873089059
699.575388874105
699.562725334239
699.549881664498
699.536856911812
699.52364996629
699.510259552241
699.496684218901
699.482922330872
699.468972058263
699.454831366525
699.440498005973
699.425969500989
699.411243138892
699.396315958472
699.381184738174
699.365845983929
699.350295916606
699.334530459089
699.318545222964
699.302335494789
699.285896221945
699.269221998051
699.252307047922
699.235145212046
699.217729930564
699.20005422674
699.182110689867
699.163891457613
699.145388197748
699.126592089241
699.107493802668
699.088083479897
699.068350713012
699.048284522404
699.027873333989
699.007104955475
698.985966551622
698.964444618399
698.942524955966
698.920192640374
698.89743199389
698.87422655381
698.850559039651
698.826411318566
698.801764368824
698.776598241192
698.750892018013
698.724623769773
698.697770508927
698.670308140714
698.64221141069
698.613453848644
698.584007708565
698.553843904263
698.522931940212
698.491239837153
698.458734051905
698.425379390824
698.39113891623
698.355973845086
698.319843439109
698.282704885392
698.24451316652
698.205220919022
698.164778278853
698.123132712455
698.080228831714
698.036008190937
697.990409063712
697.94336619719
697.894810540994
697.84466894756
697.792863840208
697.739312844695
697.683928379344
697.62661719804
697.567279879464
697.505810254854
697.442094765219
697.376011737417
697.307430566587
697.236210790171
697.16220103603
697.085237823853
697.005144195019
696.921728141199
696.834780795971
696.744074346402
696.649359612504
696.550363231346
696.446784368864
696.338290865297
696.22451469944
696.105046630394
695.979429838625
695.847152370632
695.707638074579
695.560235754151
695.404205909756
695.238705095623
695.062765902077
694.875262412299
694.67486807254
694.459893827762
694.228263067028
693.97759170553
693.705051539208
693.40727161709
693.080163114143
692.719134656467
692.319252599376
691.874759019918
691.379651996669
690.827197452498
690.210397782826
689.522742352621
688.757545748466
687.9090135039
686.971672510262
685.940572143348
684.812438560484
683.584648612558
682.255348451059
680.824289853049
679.291524379664
677.657538618419
675.923416073236
674.09100901974
672.162152964086
670.138148594438
668.019878638138
665.807617517301
663.501301697523
661.101050292526
658.607101590806
656.019918124196
653.340007042244
650.567921391677
647.704513421912
644.750759232481
641.707523752565
638.575588055411
635.355625448655
632.048233879744
628.65390899928
625.173075131703
621.606071071368
617.953301202117
614.215371368454
610.392838906539
606.486192207442
602.495881675329
598.42229618135
594.265794358597
590.026678877604
585.705225545919
581.301666635197
576.816208109662
572.249024245338
567.600260476301
562.870139924495
558.059045448305
553.167330304395
548.195349328024
543.143414574027
538.011850663789
532.800929712495
527.510935844241
522.14210331257
516.69467248534
511.168844995258
505.564830785859
499.88280665035
494.122966948431
488.285469880946
482.370496365542
476.378188460676
470.308711337587
464.162318744333
457.939345516797
451.640083461141
445.26483880344
438.813879266892
432.287494689428
425.685944455831
419.009513662447
412.258460803193
405.43306674934
398.533584093073
391.560284699409
384.513410052619
377.393218382798
370.199941060225
362.933825877232
355.595093275116
348.183976384168
340.700680339054
333.145419397365
325.518378964561
317.819752682035
310.049705078084
302.208409481601
294.29601437611
286.312812363984
278.259064312086
270.135062605029
261.94106703109
253.677370737645
245.344232200067
236.941940879227
228.47075208986
219.930947404878
211.322770516332
202.646486416219
193.902314193648
185.090495564226
176.211221159583
167.264714498914
158.251142242213
149.17072189138
140.023604987162
130.810008975964
121.530081176916
112.184038303446
102.772029740837
93.2942704975559
83.7509094082581
74.1421576313969
64.4681557455024
54.7291045527007
44.9251312609344
35.0564244698286
25.1230908056458
15.1253077141643
5.06315852219102
)
;

boundaryField
{
    electrode
    {
        type            fixedValue;
        value           uniform 700;
    }
    ground
    {
        type            fixedValue;
        value           uniform 0;
    }
    otherfaces
    {
        type            empty;
    }
}


// ************************************************************************* //
