/*--------------------------------*- C++ -*----------------------------------*\
| =========                 |                                                 |
| \\      /  F ield         | foam-extend: Open Source CFD                    |
|  \\    /   O peration     | Version:     4.0                                |
|   \\  /    A nd           | Web:         http://www.foam-extend.org         |
|    \\/     M anipulation  |                                                 |
\*---------------------------------------------------------------------------*/
FoamFile
{
    version     2.0;
    format      ascii;
    class       volScalarField;
    location    "1.9e-06";
    object      PhiMean;
}
// * * * * * * * * * * * * * * * * * * * * * * * * * * * * * * * * * * * * * //

dimensions      [0 0 0 1 0 0 0];

internalField   nonuniform List<scalar> 
300
(
699.961378798727
699.95793698041
699.954244957423
699.95032237887
699.946178551231
699.941801354688
699.937187545029
699.932333748089
699.92723694709
699.921894815526
699.91630543314
699.910467328836
699.904379381452
699.898040795265
699.891451068974
699.884609965116
699.877517486008
699.870173858191
699.862579512515
699.854735065515
699.84664130735
699.838299188919
699.829709810469
699.820874409863
699.811794349627
699.80247113707
699.792906394258
699.783101848981
699.773059334475
699.762780768191
699.752268137326
699.741523537434
699.730549152922
699.719347215904
699.707920000544
699.696269815247
699.684398993251
699.672309890854
699.66000487811
699.647486327449
699.634756611542
699.621818101803
699.608673153484
699.595324100576
699.581773250973
699.568022881707
699.554075234328
699.539932513574
699.525596886221
699.511070490102
699.49635544005
699.481453864724
699.46636788576
699.451099628421
699.435651179387
699.420024574387
699.404221771098
699.388244642216
699.372094970812
699.355774442555
699.339284642728
699.322627051491
699.305803037145
699.288813848773
699.271660672942
699.25434462531
699.236866685378
699.21922769361
699.201428348561
699.183469201203
699.165350649444
699.147072929081
699.128636144092
699.110040273245
699.091285120811
699.072370337638
699.053295456171
699.034059864891
699.014662796074
698.99510326068
698.975380132353
698.955492051265
698.935437407065
698.91521433939
698.894820715078
698.87425416728
698.853512068378
698.832591479745
698.811489136295
698.790201459756
698.768724530067
698.747054064503
698.725185512632
698.703113922818
698.680833913646
698.658339661704
698.63562487603
698.61268278249
698.589506090154
698.566086980441
698.542417088655
698.518487461944
698.494288517097
698.469810094213
698.445041352634
698.419970745101
698.39458600979
698.368874091509
698.342821154581
698.316412506822
698.289632535954
698.262464670638
698.23489132209
698.206893857926
698.17845255163
698.149546492682
698.120153591198
698.090250535214
698.059812657241
698.028813840373
697.99722643577
697.965021244619
697.93216738361
697.898632274878
697.8643814923
697.82937858493
697.793584949019
697.756959751682
697.719459725846
697.681039024496
697.64164905577
697.601238314187
697.559752173281
697.517132650251
697.473318191226
697.428243544894
697.381839393557
697.334031984716
697.284742831648
697.233888397942
697.18137960666
697.12712135727
697.071012019882
697.012942865653
696.952797481719
696.890451134481
696.82576985499
696.758609515603
696.688814715736
696.616217562708
696.540636496315
696.46187463364
696.37971792801
696.293933275517
696.204265914027
696.110436669839
696.012138719483
695.909033766804
695.800747422979
695.68686361105
695.566918181823
695.440390855897
695.306695100188
695.165166238867
695.015045797428
694.855459305537
694.685385809512
694.503624580948
694.308746603557
694.09902718016
693.872387792356
693.626308008372
693.357738967617
693.063064029838
692.738014238279
692.3776358151
691.976199454574
691.52730597479
691.02394076514
690.45848747341
689.823050391109
689.109496906659
688.309867655236
687.416628296819
686.42292525567
685.322971060958
684.112112049628
682.786979995933
681.345423596417
679.786542593892
678.110437213323
676.317717198892
674.409790175848
672.388680434534
670.256275466511
668.014343894107
665.664250057801
663.207324779828
660.644876306454
657.978106997697
655.20819050401
652.336265587682
649.363470098434
646.291044450268
643.120416675678
639.852903378715
636.489731740366
633.032027475556
629.480848318856
625.837167383257
622.101910050596
618.275932990811
614.360129885001
610.35551072766
606.263036802788
602.083604618711
597.818074418138
593.467251413218
589.031915014092
584.512797458621
579.910614181899
575.226040480959
570.459742888771
565.612355875649
560.684515391776
555.676911500093
550.590294693131
545.42537840552
540.182865559541
534.863424746852
529.467718099674
523.996375282417
518.450026345506
512.829278349588
507.134743614174
501.36700853356
495.526666779877
489.614286666423
483.630446637655
477.575700834588
471.450617047069
465.25574154621
458.991645666787
452.658946019328
446.258287574912
439.790269494114
433.25551391378
426.654596523592
419.98811859753
413.256633882332
406.460724487987
399.600923323064
392.677794839304
385.691851977647
378.643642932605
371.533661571576
364.362441039249
357.130457101331
349.838228790521
342.486214824092
335.074920878078
327.604789626021
320.076314318056
312.489922100455
304.846094772597
297.145255631716
289.387905177168
281.574485477338
273.705552249395
265.781558865557
257.803052314465
249.770469070247
241.68434558487
233.545101416843
225.353263116647
217.109233568363
208.813530045245
200.466539177591
192.068769616029
183.620592300747
175.122508023803
166.574872502449
157.978179544066
149.332770020542
140.6391316751
131.897590813363
123.108629880941
114.27256075789
105.389861183391
96.4608287598305
87.485936965475
78.4654694508174
69.3998960820374
60.2894868203601
51.1347084301078
41.9358176604586
32.6932790929582
23.4073366801451
14.0784540455647
4.70686299013473
)
;

boundaryField
{
    electrode
    {
        type            calculated;
        value           uniform 699.999999999949;
    }
    ground
    {
        type            calculated;
        value           uniform 0;
    }
    otherfaces
    {
        type            empty;
    }
}


// ************************************************************************* //
