/*--------------------------------*- C++ -*----------------------------------*\
| =========                 |                                                 |
| \\      /  F ield         | foam-extend: Open Source CFD                    |
|  \\    /   O peration     | Version:     4.0                                |
|   \\  /    A nd           | Web:         http://www.foam-extend.org         |
|    \\/     M anipulation  |                                                 |
\*---------------------------------------------------------------------------*/
FoamFile
{
    version     2.0;
    format      ascii;
    class       volScalarField;
    location    "1.9e-06";
    object      Sy_electron;
}
// * * * * * * * * * * * * * * * * * * * * * * * * * * * * * * * * * * * * * //

dimensions      [1 -3 -1 0 0 0 0];

internalField   nonuniform List<scalar> 
300
(
4.71991663963346e-15
4.72385631916323e-15
4.72770973346022e-15
4.73015942386507e-15
4.73173329480973e-15
4.7325241700639e-15
4.73260442479455e-15
4.73203319641231e-15
4.73085806702038e-15
4.72911954750884e-15
4.72684706409495e-15
4.72406709283122e-15
4.72080247295013e-15
4.71707348268142e-15
4.71289838826669e-15
4.70829387140484e-15
4.70326985930272e-15
4.69784325435504e-15
4.69203055414516e-15
4.68584489869354e-15
4.67929897224554e-15
4.67240499156095e-15
4.66517478946821e-15
4.65761983530104e-15
4.64972228708905e-15
4.64151606563903e-15
4.63300951887764e-15
4.62420798392802e-15
4.61513776737292e-15
4.60580941433015e-15
4.59619989575247e-15
4.58633157683258e-15
4.57623878600721e-15
4.56593289299475e-15
4.55542475358852e-15
4.54472470973887e-15
4.53383482904212e-15
4.5227684982872e-15
4.51154002794058e-15
4.5001574116047e-15
4.48862857551182e-15
4.4769645557779e-15
4.46517388259005e-15
4.45326472802165e-15
4.44124489975469e-15
4.42912176873128e-15
4.41689863153934e-15
4.40457969589699e-15
4.39215315293309e-15
4.37961839222609e-15
4.36695541573676e-15
4.35418781218197e-15
4.34130806997627e-15
4.32834850762105e-15
4.31532466809497e-15
4.30226608500711e-15
4.28917973538274e-15
4.27607191824303e-15
4.26294830019639e-15
4.24981084572317e-15
4.23666808245591e-15
4.2235247477363e-15
4.21037642156753e-15
4.19719423834714e-15
4.18398621001232e-15
4.17079619934221e-15
4.15762856061589e-15
4.14448722332542e-15
4.13137563427295e-15
4.11829681079323e-15
4.10525010720504e-15
4.09222452940076e-15
4.07921832314575e-15
4.06624436610203e-15
4.05328124812338e-15
4.04033141199573e-15
4.02740573578031e-15
4.01449800577842e-15
4.0016408237425e-15
3.98878534732876e-15
3.97598725869842e-15
3.9632497850073e-15
3.95056784777381e-15
3.93794483635911e-15
3.92535705044986e-15
3.91281641908458e-15
3.90034079528601e-15
3.88792996477236e-15
3.87556456119491e-15
3.8632558759129e-15
3.85099370308042e-15
3.83870749325307e-15
3.82648169374135e-15
3.81431721612658e-15
3.80221247250418e-15
3.79016572457535e-15
3.77817470746584e-15
3.76623669994787e-15
3.75433298176977e-15
3.74246120171035e-15
3.73062827108791e-15
3.71883342223801e-15
3.70702644247991e-15
3.69524802034765e-15
3.68348117527337e-15
3.67170874121054e-15
3.65994930377352e-15
3.64817020176882e-15
3.63638273240111e-15
3.62459046463084e-15
3.61278602746873e-15
3.60096124747788e-15
3.58909988153045e-15
3.57719347243883e-15
3.56523332092174e-15
3.55318856879807e-15
3.54102660034394e-15
3.52877646597337e-15
3.51643270139503e-15
3.50397705339186e-15
3.49136551662963e-15
3.47860900404912e-15
3.4656596294625e-15
3.45252403849251e-15
3.43920960930227e-15
3.42570449458208e-15
3.41196117213758e-15
3.39799408251735e-15
3.38377859735311e-15
3.36930174574626e-15
3.35453189584737e-15
3.33945297341016e-15
3.32404700462112e-15
3.30826782754227e-15
3.29205568455125e-15
3.2754234543053e-15
3.25836351906467e-15
3.24083013809898e-15
3.22278557093758e-15
3.20422780079597e-15
3.1851219188104e-15
3.1654320356228e-15
3.14510256107727e-15
3.12407822222952e-15
3.10231324058178e-15
3.07981689599719e-15
3.05655450653992e-15
3.03248943239866e-15
3.00756771110095e-15
2.98171349796439e-15
2.95492542293576e-15
2.92715689295192e-15
2.89831733593007e-15
2.86838947742602e-15
2.83733582947049e-15
2.80508308821755e-15
2.77156707669165e-15
2.73677364320567e-15
2.70066797268164e-15
2.66318787430882e-15
2.62428419452117e-15
2.58393320557092e-15
2.54209014785571e-15
2.49877129164351e-15
2.45400392582156e-15
2.40782680981736e-15
2.36057615940688e-15
2.31272425008609e-15
2.25163575664971e-15
2.1862388779677e-15
2.11888840963449e-15
2.04959732121677e-15
1.97802296679435e-15
1.90313541868057e-15
1.82453046892592e-15
1.74252701716187e-15
1.65736950229675e-15
1.5701981167672e-15
1.48221999221869e-15
1.39595691982765e-15
1.31608922717735e-15
1.24794827450657e-15
1.20016397127085e-15
1.18646215734025e-15
1.23354309290602e-15
1.41352598694011e-15
1.96676509529625e-15
3.83891319189372e-15
9.31182994730184e-15
3.99991683739482e-14
2.31202385395527e-13
2.181673163537e-12
1.30920461835491e-10
1.00431060812255e-09
3.30235129235968e-09
5.19662678063415e-09
5.68609975478135e-09
5.01525661649493e-09
4.06510768402221e-09
3.26863546481226e-09
2.69489255642875e-09
2.32093172530496e-09
2.07828226142682e-09
1.93507748686416e-09
1.84919384179413e-09
1.80489291517137e-09
1.77704723275125e-09
1.76654037128959e-09
1.76626817422612e-09
1.77152076227076e-09
1.77669498868194e-09
1.77971395915867e-09
1.78176568782171e-09
1.78189820317232e-09
1.77950799113137e-09
1.77424196368397e-09
1.76592689209142e-09
1.75452107077508e-09
1.74007907566329e-09
1.72272368672539e-09
1.70262894294961e-09
1.67997227802566e-09
1.65493665950993e-09
1.62748466507153e-09
1.59716014785887e-09
1.56529999761287e-09
1.53216883692694e-09
1.49802113654521e-09
1.46309708160236e-09
1.4276205403113e-09
1.39179786355905e-09
1.35581721922448e-09
1.31984845725708e-09
1.28404329153322e-09
1.24853580851328e-09
1.21344322315578e-09
1.1788667491807e-09
1.14489261278021e-09
1.11159308802187e-09
1.07902755927115e-09
1.04724362848623e-09
1.01627819600054e-09
9.86158972598791e-10
9.56906001109023e-10
9.28532159288603e-10
9.01042815130142e-10
8.74437219190606e-10
8.48700789490144e-10
8.23813208420919e-10
7.99761000115488e-10
7.76530813241847e-10
7.54106843213934e-10
7.32471028369e-10
7.11603325149542e-10
6.91482275168841e-10
6.72085084947073e-10
6.53390925404157e-10
6.35373980634007e-10
6.18005255915869e-10
6.01260524017859e-10
5.85118702648386e-10
5.69555842508906e-10
5.54548589666377e-10
5.40073969854279e-10
5.26109661569044e-10
5.12634086336043e-10
4.99626122423878e-10
4.87065627379483e-10
4.74926449999887e-10
4.63180438631798e-10
4.51807999915264e-10
4.40794068961741e-10
4.30124966677151e-10
4.1978809141662e-10
4.09771724435145e-10
4.00065010080165e-10
3.90657944032425e-10
3.81541379520138e-10
3.72707042910366e-10
3.64147522280227e-10
3.55856351682559e-10
3.47827057517154e-10
3.39580211764799e-10
3.31435618777421e-10
3.23477148460212e-10
3.15700145907126e-10
3.08116207053274e-10
3.00738877578615e-10
2.93582198765451e-10
2.85776946903264e-10
2.77799292982904e-10
2.70000926813623e-10
2.62434585211896e-10
2.53510452436408e-10
2.44356986192605e-10
2.34672084384865e-10
2.23068961208259e-10
2.09478400968362e-10
1.92417119346902e-10
1.6839146296858e-10
)
;

boundaryField
{
    electrode
    {
        type            zeroGradient;
    }
    ground
    {
        type            zeroGradient;
    }
    otherfaces
    {
        type            empty;
    }
}


// ************************************************************************* //
