/*--------------------------------*- C++ -*----------------------------------*\
| =========                 |                                                 |
| \\      /  F ield         | foam-extend: Open Source CFD                    |
|  \\    /   O peration     | Version:     4.0                                |
|   \\  /    A nd           | Web:         http://www.foam-extend.org         |
|    \\/     M anipulation  |                                                 |
\*---------------------------------------------------------------------------*/
FoamFile
{
    version     2.0;
    format      ascii;
    class       volScalarField;
    location    "1.9e-06";
    object      Te;
}
// * * * * * * * * * * * * * * * * * * * * * * * * * * * * * * * * * * * * * //

dimensions      [0 0 0 1 0 0 0];

internalField   nonuniform List<scalar> 
300
(
27139.6711736504
27139.8226298675
27139.9343215975
27140.0061778592
27140.1054964591
27140.2317221356
27140.3825448971
27140.5583598393
27140.7592398846
27140.9851214393
27141.2359924724
27141.5118460166
27141.8126735104
27142.138469294
27142.4892304611
27142.8649565497
27143.2656495985
27143.6913141728
27144.1419573626
27144.6175887916
27145.1182206285
27145.6438675945
27146.1945469736
27146.7702786275
27147.3710850061
27147.9969911606
27148.6480247589
27149.3242160994
27150.0255981267
27150.7522064484
27151.5040793518
27152.2812578212
27153.0837855588
27153.9117090033
27154.7650773483
27155.6439425691
27156.5483594426
27157.4783855706
27158.4340814084
27159.4155102906
27160.4227384593
27161.4558350967
27162.5148723565
27163.5999253991
27164.7110724313
27165.8483947439
27167.0119767551
27168.2019060566
27169.418273464
27170.661173068
27171.9307022929
27173.2269619556
27174.55005633
27175.9000932191
27177.2771840285
27178.6814438452
27180.1129915235
27181.5719497752
27183.0584452678
27184.572608729
27186.1145750546
27187.6844834274
27189.2824774445
27190.9087052466
27192.5633196609
27194.2464783535
27195.9583439851
27197.6990843811
27199.4688727123
27201.2678876816
27203.0963137266
27204.9543412295
27206.8421667425
27208.7599932249
27210.7080302929
27212.6864944843
27214.6956095369
27216.7356066828
27218.8067249613
27220.9092115445
27223.0433220857
27225.2093210856
27227.4074822741
27229.6380890234
27231.9014347753
27234.197823494
27236.5275701488
27238.8910012197
27241.2884552337
27243.7202833308
27246.1868498631
27248.6885330297
27251.2257255491
27253.7988353695
27256.4082864191
27259.0545194075
27261.7379926747
27264.4591830857
27267.2185869882
27270.0167212269
27272.8541242198
27275.7313571071
27278.6490049717
27281.6076781401
27284.6080135665
27287.6506763126
27290.7363611232
27293.8657941139
27297.0397345722
27300.2589768796
27303.5243525793
27306.8367325819
27310.1970295386
27313.6062003849
27317.0652490718
27320.5752295087
27324.1372487286
27327.7524703031
27331.4221180251
27335.1474798918
27338.9299124109
27342.7708452725
27346.671786415
27350.6343275332
27354.6601500754
27358.7510317829
27362.908853833
27367.1356086618
27371.4334085402
27375.8044949944
27380.2512491869
27384.7762033707
27389.3820535546
27394.071673552
27398.8481305919
27403.7147027121
27408.6748981937
27413.7324773263
27418.8914768599
27424.1562375504
27429.5314352789
27435.0221163208
27440.6337374431
27446.3722116302
27452.2439604152
27458.2559739637
27464.4158803006
27470.7320253603
27477.2135658778
27483.8705775827
27490.7141816772
27497.756693224
27505.0117958838
27512.4947484008
27520.2226294216
27528.2146287787
27536.4923943045
27545.0804506687
27554.0066931881
27563.3030017307
27573.0059962751
27583.1580298116
27593.8086502203
27605.0163985855
27616.8598868791
27629.4453145543
27642.9590150672
27657.6478611732
27673.6018878142
27690.8219723348
27709.4708003926
27729.8201215045
27751.9985524469
27775.7787458436
27801.1834447655
27828.589625479
27858.3168734645
27891.1890773077
27928.1239196565
27971.1406503895
28024.4371559453
28093.940064589
28189.8763619682
28327.6105201058
28529.3733206283
28830.155461107
29281.2622032194
29964.0605759614
31000.5837381181
32579.0734479673
35010.0438892526
38767.8054955913
44713.9076375791
54547.3484908591
69523.3486654627
89435.9897217161
117339.431182358
153204.057230065
198634.453266541
251595.340672563
308341.465191679
364748.989979956
417822.623209185
465982.313147467
508724.666168726
546255.724450044
579094.762441451
607826.333476927
633116.946348086
655535.78815074
675556.30636489
693564.225726973
709902.249056043
724856.246704355
738658.103311782
751498.560968298
763534.727880002
774896.52471535
785691.805601647
796009.947198709
805927.723270212
815504.345787557
824784.451607652
833811.476534491
842622.486399854
851245.461561876
859702.694247143
868011.246117444
876183.69420372
884228.759163509
892151.770479589
899955.034279111
907638.170996386
915198.389315333
922630.733575815
929928.313459197
937082.492804163
944083.07867924
950918.482628
957575.864926035
964041.280483931
970299.738568812
976335.370383418
982131.721671008
987671.870910223
992938.131359858
997913.939036986
1002579.31970967
1006912.77630298
1010896.94481215
1014513.76767535
1017744.42233088
1020569.90850264
1022971.04453455
1024928.65711728
1026422.7778955
1027435.07285997
1027932.62269004
1027923.52015782
1027373.30224023
1026263.9948186
1024575.02000612
1022286.67623778
1019378.93761058
1015831.59319635
1011624.24488655
1006735.91938412
1001147.54590651
994837.06674965
987779.92640226
979955.178687298
971340.459903161
961911.445705041
951642.700198245
940507.528757939
928477.888469717
915524.212206229
901615.213325518
886717.668960786
870796.10959282
853812.914940228
835727.164255066
816502.467120595
796092.364155254
774440.119411112
751492.746688382
727185.491244624
701440.711308404
674182.731137945
645323.021534011
614750.187100873
582338.10625172
547950.262159845
511399.155583462
472458.516462179
430846.002761508
386160.137729437
337849.540480956
285105.543740767
226868.142835445
)
;

boundaryField
{
    electrode
    {
        type            electronTemperature;
        seec            0.05;
        Tse             1000;
        Edepend         1;
        TFN             1000;
        field_emission  0;
        field_enhancement_factor 55;
        work_function   5;
        value           uniform 27139.6711736504;
    }
    ground
    {
        type            electronTemperature;
        seec            0.05;
        Tse             1000;
        Edepend         1;
        TFN             1000;
        field_emission  0;
        field_enhancement_factor 55;
        work_function   5;
        value           uniform 193811.695738715;
    }
    otherfaces
    {
        type            empty;
    }
}


// ************************************************************************* //
