/*--------------------------------*- C++ -*----------------------------------*\
| =========                 |                                                 |
| \\      /  F ield         | foam-extend: Open Source CFD                    |
|  \\    /   O peration     | Version:     4.0                                |
|   \\  /    A nd           | Web:         http://www.foam-extend.org         |
|    \\/     M anipulation  |                                                 |
\*---------------------------------------------------------------------------*/
FoamFile
{
    version     2.0;
    format      ascii;
    class       volScalarField;
    location    "4.8e-06";
    object      Arm;
}
// * * * * * * * * * * * * * * * * * * * * * * * * * * * * * * * * * * * * * //

dimensions      [0 0 0 1 0 0 0];

internalField   nonuniform List<scalar> 
300
(
3.57413682149252e+15
3.57601375319296e+15
3.57796241772826e+15
3.57926841696688e+15
3.58008464543037e+15
3.58046317497636e+15
3.58044821220245e+15
3.58007119565314e+15
3.57935778378876e+15
3.5783299607206e+15
3.57700350043641e+15
3.57539248905741e+15
3.5735089797964e+15
3.57136357526432e+15
3.56896573249519e+15
3.56632399654173e+15
3.56344319002057e+15
3.5603319000061e+15
3.55699846813207e+15
3.55344937374123e+15
3.54969081829271e+15
3.54572872347218e+15
3.54156877930374e+15
3.53721643452803e+15
3.53266100976619e+15
3.52792024635827e+15
3.52299784656701e+15
3.51789582455498e+15
3.51262777480385e+15
3.50719857941598e+15
3.50159447545576e+15
3.49582683903379e+15
3.48991377864685e+15
3.48386067626517e+15
3.47767261814596e+15
3.47135440623912e+15
3.46490621339592e+15
3.45833455638514e+15
3.45164650461225e+15
3.44484559316883e+15
3.43793532554698e+15
3.43092097827378e+15
3.42380643214148e+15
3.41659537873503e+15
3.40929131825153e+15
3.40189751460082e+15
3.39441491215097e+15
3.38684496011058e+15
3.37917989352558e+15
3.37141830407812e+15
3.36354758481532e+15
3.35558024533556e+15
3.34751088805766e+15
3.33935723547446e+15
3.33112741911535e+15
3.32283781216101e+15
3.31449171422206e+15
3.30609204145001e+15
3.29764136608984e+15
3.2891401054647e+15
3.28059257566894e+15
3.272000888189e+15
3.2633616990571e+15
3.25465704103518e+15
3.24589089244144e+15
3.23708884448902e+15
3.22825298782188e+15
3.21938516218003e+15
3.21048695339462e+15
3.20155972125212e+15
3.19260262072128e+15
3.18360849905485e+15
3.17457581892757e+15
3.16551203022294e+15
3.15640358557003e+15
3.14725154498897e+15
3.13806225418125e+15
3.12883157819266e+15
3.11957950744523e+15
3.11027546488623e+15
3.100954051543e+15
3.09161738971488e+15
3.082262393743e+15
3.07289132746539e+15
3.06348936544664e+15
3.05406425232053e+15
3.04462769598315e+15
3.03518001688325e+15
3.02570929966188e+15
3.01622330367948e+15
3.00671601793023e+15
2.99714236619539e+15
2.98755764494493e+15
2.97796348460711e+15
2.96835991388271e+15
2.95874695893773e+15
2.94912440146677e+15
2.939491810453e+15
2.92983824642188e+15
2.92016364901574e+15
2.91047428318609e+15
2.90077143318052e+15
2.89102331875878e+15
2.88125918295886e+15
2.87146980025987e+15
2.86164582157202e+15
2.85180227971288e+15
2.8419195509232e+15
2.8320080652947e+15
2.82207327490307e+15
2.81211330852094e+15
2.80212588046803e+15
2.79210324839832e+15
2.78204320097726e+15
2.77194352010848e+15
2.76178655125113e+15
2.75155340037681e+15
2.74126887852691e+15
2.73093385658859e+15
2.72054025636402e+15
2.710061679785e+15
2.69951110262398e+15
2.68885952283757e+15
2.67811734102616e+15
2.66729599060838e+15
2.65639327284019e+15
2.6453810644516e+15
2.63427681270171e+15
2.62306968376595e+15
2.61175764026574e+15
2.60032503476016e+15
2.58876799939574e+15
2.57708153954077e+15
2.56523956640818e+15
2.55320560526995e+15
2.54099852279959e+15
2.52862224462542e+15
2.51605172183804e+15
2.5032680925692e+15
2.49028048656966e+15
2.47707291295647e+15
2.46362871899215e+15
2.44991575701462e+15
2.43590192711549e+15
2.42156261047811e+15
2.40691762000332e+15
2.39195208300832e+15
2.37664963763367e+15
2.36097974722241e+15
2.34489350884465e+15
2.3284033679888e+15
2.31148457649176e+15
2.29407485066725e+15
2.27617301529927e+15
2.25776081628335e+15
2.23878851821907e+15
2.21921286474208e+15
2.19903331409572e+15
2.17823072186096e+15
2.15676012217288e+15
2.13458590690801e+15
2.11169299187852e+15
2.08804311263428e+15
2.06364882494033e+15
2.03849713663144e+15
2.01253345954678e+15
1.98577862321188e+15
1.95827720287751e+15
1.93005816180739e+15
1.90116346707897e+15
1.87166173061977e+15
1.84158626411489e+15
1.81102944729727e+15
1.78016280081625e+15
1.74918028001866e+15
1.71825172748054e+15
1.68755632709849e+15
1.65729307503706e+15
1.62770079302509e+15
1.59893503870097e+15
1.57115008948985e+15
1.54449299687594e+15
1.51904509752614e+15
1.49492119895494e+15
1.47212115536946e+15
1.45055468099207e+15
1.43026155042674e+15
1.41119104491208e+15
1.39325681001147e+15
1.37637701058653e+15
1.36045413909935e+15
1.34552928656774e+15
1.33205943019437e+15
1.32501299632452e+15
1.35039193388832e+15
1.41471219132473e+15
1.48992455543849e+15
1.54284798934822e+15
1.5733341834136e+15
1.58684510166125e+15
1.58129179821656e+15
1.55945610142164e+15
1.52909749188486e+15
1.49733272411613e+15
1.46945186302324e+15
1.44740119304438e+15
1.43069736555553e+15
1.4186848936662e+15
1.41023303024707e+15
1.40427426580303e+15
1.3993859685601e+15
1.39530936941329e+15
1.3917862695707e+15
1.38822383301811e+15
1.38469006852698e+15
1.38114648901188e+15
1.37743884390737e+15
1.37351324476718e+15
1.36930231160116e+15
1.36477540689294e+15
1.35992836077586e+15
1.35470278986803e+15
1.34900430592471e+15
1.3428351573591e+15
1.33628729724691e+15
1.32952222498802e+15
1.32258129787855e+15
1.31548416243754e+15
1.30826519369877e+15
1.30096378628453e+15
1.29359576530401e+15
1.28619174522504e+15
1.27878603959226e+15
1.27139494918998e+15
1.26403694413818e+15
1.25674578787562e+15
1.24952087165551e+15
1.24239470175096e+15
1.23536774836626e+15
1.22846056463521e+15
1.22168204629344e+15
1.21503142237775e+15
1.2085291928366e+15
1.20216566348971e+15
1.19595013995787e+15
1.18990020183157e+15
1.18400323300744e+15
1.17826731174936e+15
1.17269466584791e+15
1.16727653058139e+15
1.16201889539509e+15
1.15691645942158e+15
1.15196500978012e+15
1.14716823480517e+15
1.14251795477079e+15
1.13801193212413e+15
1.13364856983498e+15
1.12941229690442e+15
1.12531167734121e+15
1.12133882421763e+15
1.11749932314244e+15
1.11378038763391e+15
1.11018468271675e+15
1.10670380470178e+15
1.10333536354417e+15
1.10007549480925e+15
1.09691645836722e+15
1.09385501091387e+15
1.09088044329791e+15
1.08799862290812e+15
1.08520200542183e+15
1.08249625803667e+15
1.07986854083545e+15
1.07732480480604e+15
1.07485312188921e+15
1.07245217157926e+15
1.07012032139498e+15
1.0678576393764e+15
1.06566613621919e+15
1.06353943797301e+15
1.06147636076091e+15
1.05943655811187e+15
1.05729974468519e+15
1.05518365099025e+15
1.053120976861e+15
1.0511024086866e+15
1.04913580096569e+15
1.0472225008039e+15
1.04535195777384e+15
1.04322687478288e+15
1.0410838393846e+15
1.0389950079552e+15
1.03696287962456e+15
1.03455616931415e+15
1.03215197598634e+15
1.02961825544293e+15
1.02674848800702e+15
1.02354132415924e+15
1.01986287260939e+15
1.01540657185208e+15
)
;

boundaryField
{
    electrode
    {
        type            zeroGradient;
    }
    ground
    {
        type            zeroGradient;
    }
    otherfaces
    {
        type            empty;
    }
}


// ************************************************************************* //
