/*--------------------------------*- C++ -*----------------------------------*\
| =========                 |                                                 |
| \\      /  F ield         | foam-extend: Open Source CFD                    |
|  \\    /   O peration     | Version:     4.0                                |
|   \\  /    A nd           | Web:         http://www.foam-extend.org         |
|    \\/     M anipulation  |                                                 |
\*---------------------------------------------------------------------------*/
FoamFile
{
    version     2.0;
    format      ascii;
    class       volScalarField;
    location    "4.8e-06";
    object      electron;
}
// * * * * * * * * * * * * * * * * * * * * * * * * * * * * * * * * * * * * * //

dimensions      [0 0 0 1 0 0 0];

internalField   nonuniform List<scalar> 
300
(
6.07651360700926e+16
6.07636240736882e+16
6.07596197915557e+16
6.07527479874747e+16
6.07430664720694e+16
6.0730553265987e+16
6.07152042299086e+16
6.06970200479266e+16
6.06759992576701e+16
6.06521410194784e+16
6.0625444499588e+16
6.05959088186525e+16
6.05635331037957e+16
6.05283164630663e+16
6.04902579799846e+16
6.04493567067669e+16
6.04056116556623e+16
6.03590217903424e+16
6.03095860166987e+16
6.02573031731356e+16
6.02021720204199e+16
6.01441912310884e+16
6.00833593784307e+16
6.00196749250812e+16
5.99531362112436e+16
5.98837414425804e+16
5.9811488677816e+16
5.97363758160875e+16
5.96584005840259e+16
5.9577560522418e+16
5.94938529721523e+16
5.9407275059376e+16
5.9317823681262e+16
5.922549549682e+16
5.91302869285889e+16
5.90321941692862e+16
5.89312131476157e+16
5.88273393604571e+16
5.87205675499174e+16
5.86108915351034e+16
5.84983044204882e+16
5.8382798858243e+16
5.82643671378626e+16
5.81430011966534e+16
5.80186926093576e+16
5.78914325714781e+16
5.77612118811596e+16
5.76280209211926e+16
5.74918496416604e+16
5.73526875434212e+16
5.72105236625059e+16
5.70653465554746e+16
5.69171442857667e+16
5.6765904411063e+16
5.66116139716896e+16
5.64542594800768e+16
5.62938269113011e+16
5.61303016947265e+16
5.59636687067655e+16
5.57939122647856e+16
5.56210161221648e+16
5.54449634645419e+16
5.52657369072671e+16
5.50833184940684e+16
5.48976896969747e+16
5.47088314175065e+16
5.45167239891493e+16
5.43213471811419e+16
5.41226802035962e+16
5.39207017139691e+16
5.37153898248997e+16
5.35067221134383e+16
5.32946756316817e+16
5.30792269188277e+16
5.28603520146579e+16
5.26380264744652e+16
5.24122253854395e+16
5.21829233845072e+16
5.19500946776349e+16
5.1713713060593e+16
5.14737519411814e+16
5.12301843629124e+16
5.09829830301312e+16
5.07321203345675e+16
5.04775683833027e+16
5.02192990281239e+16
4.99572838962488e+16
4.96914944223738e+16
4.94219018820224e+16
4.91484774261517e+16
4.8871192116961e+16
4.85900169648612e+16
4.83049229665416e+16
4.80158811440703e+16
4.77228625849585e+16
4.74258384831219e+16
4.71247801806433e+16
4.68196592102509e+16
4.65104473384293e+16
4.61971166090463e+16
4.58796393873933e+16
4.55579884045269e+16
4.52321368017809e+16
4.49020581753238e+16
4.45677266206297e+16
4.42291167767068e+16
4.38862038699348e+16
4.35389637573606e+16
4.31873729692764e+16
4.28314087509072e+16
4.247104910303e+16
4.2106272821329e+16
4.17370595342941e+16
4.13633897394594e+16
4.09852448377611e+16
4.06026071657981e+16
4.02154600257726e+16
3.98237877128674e+16
3.94275755398147e+16
3.9026809858405e+16
3.86214780776764e+16
3.82115686785116e+16
3.77970712243641e+16
3.73779763678204e+16
3.69542758527005e+16
3.65259625113956e+16
3.60930302571052e+16
3.56554740706649e+16
3.5213289981571e+16
3.47664750428735e+16
3.43150272998671e+16
3.38589457507959e+16
3.33982303020846e+16
3.29328817150261e+16
3.24629015419102e+16
3.19882920565795e+16
3.15090561771176e+16
3.10251973842759e+16
3.05367195997536e+16
3.0043627028681e+16
2.9545924201122e+16
2.90436157251381e+16
2.85367049034849e+16
2.80251928120542e+16
2.75090790849851e+16
2.69883626123799e+16
2.64630414625715e+16
2.59331126728703e+16
2.53985720137197e+16
2.48594137362771e+16
2.43156303277619e+16
2.37672121861739e+16
2.32141474190881e+16
2.26564214775754e+16
2.20940168129853e+16
2.1526913007379e+16
2.09550854851148e+16
2.03785070716998e+16
1.97971454566897e+16
1.92109643407555e+16
1.86199230727015e+16
1.80239657151489e+16
1.74230123871702e+16
1.68168537972813e+16
1.62050560837665e+16
1.55871180614088e+16
1.49626493557607e+16
1.43313563648807e+16
1.36929612751281e+16
1.30471441173028e+16
1.23935688949498e+16
1.17319698369269e+16
1.10623353654057e+16
1.03851810335698e+16
9.7015331419034e+15
9.01270191615146e+15
8.32073633652269e+15
7.62878332745786e+15
6.94056985033152e+15
6.26052820871686e+15
5.59414024386459e+15
4.94737520392856e+15
4.32650550080134e+15
3.73807027517275e+15
3.18817918191256e+15
2.68212257844892e+15
2.22417978248237e+15
1.81713916953418e+15
1.46207154443537e+15
1.15839150610133e+15
903907890018316
695065156891685
526973230270941
394313454998270
291772914355087
213917882135825
155644994627182
111660408108332
78116716560331.5
53605384965409.4
35995294327408.1
23236496034100
14427344394934.8
8792346202856.52
5454773418621.07
3577782374941.31
2537973921879.88
1954816341482.89
1619480312026.68
1421886563864.41
1303811774701.64
1233086108123.56
1191283396157.31
1167539209362.29
1154989493232.63
1149189331531.39
1147185364563.65
1146972524328.27
1147335167985.52
1147435172025.81
1146627127943.54
1144460229831.76
1140699663810.76
1135219249154.16
1127976063820.02
1118986639874.05
1108311996184.4
1096044038635.75
1082295551091.94
1067193162720.37
1050871858387.41
1033470708046.06
1015129494843.3
995986078064.902
976174338980.947
955822609853.717
935052508708.995
913978100524.984
892705342911.829
871331742628.279
849946187910.403
828628665922.278
807449763995.708
786464524608.211
765724389446.691
745282901823.268
725186036672.638
705473140363.647
686176878500.63
667323802919.036
648934862855.617
631025942712.081
613608384012.02
596689536585.498
580273399950.085
564362144981.53
548952311949.895
534035659839.005
519606602664.183
505658896814.631
492183023617.767
479168403877.014
466603483544.494
454476061434.453
442773476160.434
431482770145.066
420590930197.237
410084819003.17
399951385896.516
390170772348.625
380720710691.034
371586636755.318
362757737170.626
354224133757.88
345976591188.299
338006395361.635
330305387411.217
322866010164.557
315681369794.618
308745276260.543
302052311935.938
295597323839.653
289375118820.215
283368113106.995
277546106005.144
271898192643.033
266434663884.286
261168556649.423
256113779042.04
251260223772.339
246580979177.421
242089058550.792
237837553922.065
233824277153.873
230075011904.82
226685345117.468
223792819271.155
221676287275.081
220790488348.348
221957778757.159
)
;

boundaryField
{
    electrode
    {
        type            driftDiffusionElectronDensity;
        seec            0.05;
        Edepend         1;
        field_emission  0;
        field_enhancement_factor 55;
        work_function   5;
        value           uniform 6.07651360700926e+16;
    }
    ground
    {
        type            driftDiffusionElectronDensity;
        seec            0.05;
        Edepend         1;
        field_emission  0;
        field_enhancement_factor 55;
        work_function   5;
        value           uniform 224149253364.941;
    }
    otherfaces
    {
        type            empty;
    }
}


// ************************************************************************* //
