/*--------------------------------*- C++ -*----------------------------------*\
| =========                 |                                                 |
| \\      /  F ield         | foam-extend: Open Source CFD                    |
|  \\    /   O peration     | Version:     4.0                                |
|   \\  /    A nd           | Web:         http://www.foam-extend.org         |
|    \\/     M anipulation  |                                                 |
\*---------------------------------------------------------------------------*/
FoamFile
{
    version     2.0;
    format      ascii;
    class       volScalarField;
    location    "4.8e-06";
    object      Phi;
}
// * * * * * * * * * * * * * * * * * * * * * * * * * * * * * * * * * * * * * //

dimensions      [0 0 0 1 0 0 0];

internalField   nonuniform List<scalar> 
300
(
699.999924538346
699.999710594451
699.999203303383
699.998436450558
699.99741876264
699.996144859861
699.99461574565
699.992831108553
699.990790528915
699.988493679552
699.985940154985
699.983129515977
699.980061286543
699.976734950238
699.973149950478
699.969305689376
699.965201526661
699.960836778589
699.956210716751
699.951322566806
699.946171507146
699.940756667494
699.935077127428
699.929131914823
699.922920004245
699.916440315252
699.909691710641
699.902672994631
699.895382910977
699.88782014101
699.879983301555
699.871870942661
699.863481545177
699.854813518615
699.845865200393
699.836634857356
699.827120686316
699.817320800218
699.807233183156
699.796855647425
699.786185884696
699.775221493376
699.763959979516
699.752398753933
699.740535128803
699.728366313942
699.71588941299
699.703101419522
699.689999213118
699.676579555392
699.662839085978
699.648774318476
699.634381636348
699.619657288774
699.604597386446
699.589197897321
699.5734546423
699.557363290861
699.540919356614
699.524118192792
699.506954987668
699.489424759884
699.471522353712
699.45324243421
699.434579482291
699.415527789696
699.396081453853
699.376234372631
699.355980238968
699.335312535384
699.314224528351
699.292709262525
699.270759554829
699.248367988379
699.225526906232
699.202228404963
699.178464328049
699.154226259038
699.129505514519
699.10429313684
699.07857988659
699.052356234811
699.025612354928
698.998338114371
698.970523065878
698.942156438443
698.913227127896
698.883723687077
698.853634315586
698.822946849061
698.791648747974
698.759727085885
698.727168537119
698.69395936384
698.660085402452
698.625532049287
698.590284245533
698.554326461321
698.517642678935
698.480216375052
698.442030501947
698.403067467583
698.363309114491
698.322736697349
698.281330859154
698.239071605875
698.195938279455
698.151909529039
698.106963280276
698.061076702538
698.01422617387
697.966387243498
697.917534591675
697.867641986639
697.816682238433
697.764627149313
697.711447460447
697.657112794562
697.601591594187
697.544851055084
697.486857054421
697.427574073199
697.366965112393
697.304991602197
697.241613303709
697.176788202314
697.110472391931
697.042619949208
696.97318279663
696.90211055333
696.829350372499
696.754846763706
696.67854139784
696.600372896539
696.520276595139
696.438184289487
696.354023951403
696.267719422471
696.179190072784
696.088350388115
695.995109579552
695.899371287467
695.801032642893
695.699983216186
695.596104929763
695.489271452272
695.379347353253
695.266187174807
695.149634399222
695.02952026158
694.905662440631
694.777863534918
694.645909300563
694.509566870048
694.368582067575
694.222677492339
694.071548976853
693.914861532349
693.752249096511
693.583300169186
693.40757009696
693.224549182425
693.03368102907
692.834320017566
692.625584464952
692.406448834225
692.17584536952
691.932578489423
691.675288833668
691.402344973385
691.111816489286
690.80144364268
690.468591424799
690.110455986871
689.724181446519
689.306022262858
688.851753399752
688.357626627108
687.819064312329
687.230620793442
686.587711329112
685.88508255584
685.116863793089
684.278375710562
683.364590954293
682.370248001822
681.291410883567
680.124452869431
678.865737519849
677.512815375609
676.063961231814
674.517881095266
672.873248258533
671.129992400032
669.288369986575
667.348888133757
665.311790075241
663.177315135723
660.945458296427
658.616933739457
656.191133881794
653.667313712076
651.04481836836
648.322871924607
645.501512187992
642.581179698453
639.562747792083
636.447176157621
633.235456573408
629.928524213376
626.527263324388
623.03246196369
619.44483538583
615.765253502463
611.994726836519
608.134162910242
604.184410934707
600.146224525124
596.020308231598
591.807279681649
587.507717634557
583.122123500522
578.650968643313
574.094655155554
569.453561838695
564.728089407182
559.918838019429
555.026341146533
550.051126216246
544.993658235471
539.85440319735
534.633767180248
529.332165748697
523.949954179757
518.487506238609
512.945132827146
507.323171285341
501.62189411088
495.841606162609
489.982546949595
484.044992588877
478.029153045617
471.935277785914
465.763741282622
459.51495936714
453.189284767617
446.787107402737
440.308753852188
433.754591397824
427.124923377166
420.420096811844
413.640394291443
406.786144532531
399.85761020108
392.855102951087
385.778866432404
378.629195635516
371.406316100588
364.110507465992
356.741978272122
349.300993709608
341.787746581549
334.202488738783
326.545397705455
318.81671206804
311.016594058255
303.14526895829
295.202940855482
287.18994491871
279.106537234643
270.953038803686
262.729690074019
254.436799132121
246.074591939873
237.643365041049
229.143331217894
220.574776667722
211.937901904518
203.232983623072
194.460211006027
185.619852023278
176.712085247774
167.737170376917
158.695275662185
149.58665300948
140.411460862208
131.169943746177
121.862250316885
112.48861782072
103.049185312598
93.5441831449257
83.9737417102255
74.3380854940671
64.6373369363317
54.8717150430895
45.0413352011717
35.146411987342
25.187054743354
15.1634748439396
5.07577696779423
)
;

boundaryField
{
    electrode
    {
        type            fixedValue;
        value           uniform 700;
    }
    ground
    {
        type            fixedValue;
        value           uniform 0;
    }
    otherfaces
    {
        type            empty;
    }
}


// ************************************************************************* //
