/*--------------------------------*- C++ -*----------------------------------*\
| =========                 |                                                 |
| \\      /  F ield         | foam-extend: Open Source CFD                    |
|  \\    /   O peration     | Version:     4.0                                |
|   \\  /    A nd           | Web:         http://www.foam-extend.org         |
|    \\/     M anipulation  |                                                 |
\*---------------------------------------------------------------------------*/
FoamFile
{
    version     2.0;
    format      ascii;
    class       volScalarField;
    location    "4.8e-06";
    object      PhiMean;
}
// * * * * * * * * * * * * * * * * * * * * * * * * * * * * * * * * * * * * * //

dimensions      [0 0 0 1 0 0 0];

internalField   nonuniform List<scalar> 
300
(
699.984673375637
699.983181517428
699.981426084945
699.979427379752
699.977194942705
699.974721670914
699.972006624299
699.969048499638
699.965846035799
699.962398298362
699.958704503048
699.954764041744
699.950576444357
699.946141367494
699.941458581892
699.936527959812
699.931349464815
699.925923144967
699.920249124241
699.914327594459
699.908158809541
699.901743079712
699.895080765904
699.888172274336
699.881018050135
699.873618584358
699.865974400933
699.858086051777
699.849954115504
699.841579187658
699.832961873514
699.824102801954
699.815002616111
699.805661955535
699.796081452139
699.786261725397
699.776203376563
699.765906986016
699.755373107613
699.744602262534
699.73359493684
699.722351578776
699.710872590528
699.699158323967
699.687209076103
699.675025084813
699.662606524244
699.64995350174
699.637066054381
699.623944149896
699.610587685834
699.596996501188
699.583170364961
699.569108977102
699.554811948436
699.540278792378
699.525508910532
699.510501586503
699.495255980001
699.479771120184
699.464045900362
699.448079072068
699.431869238181
699.415414845808
699.398714204125
699.381765476782
699.364566651126
699.347115532507
699.329409738115
699.311446689753
699.293223606468
699.274737495623
699.255985159571
699.236963192479
699.217667955253
699.19809557787
699.178241967219
699.158102790712
699.137673465035
699.116949123834
699.095924644101
699.074594601154
699.052953254767
699.030994541742
699.008712059516
698.986099073571
698.963148498517
698.939852869985
698.916204329518
698.892194621043
698.867815070025
698.843056565534
698.8179095878
698.792364144815
698.766409750172
698.740035406832
698.713229585128
698.685980204284
698.658274606002
698.630099536821
698.60144112642
698.57228485615
698.542615526601
698.512417262398
698.481673453573
698.450366727003
698.418478923874
698.38599104796
698.352883248936
698.319134769318
698.284723894675
698.249627912136
698.213823059544
698.177284485394
698.139986197213
698.101900991991
698.06300042182
698.023254737994
697.982632796325
697.941101975001
697.898628093435
697.855175352838
697.810706226478
697.765181394603
697.718559617442
697.670797593478
697.621849830805
697.571668532162
697.52020342113
697.46740158374
697.413207292748
697.357561820256
697.300403223129
697.241666104545
697.181281368704
697.119175995362
697.055272695677
696.989489560923
696.921739663263
696.851930664155
696.779964332703
696.705736020224
696.629134080037
696.550039240042
696.468323916293
696.383851436334
696.29647508313
696.206037057466
696.112367273992
696.015282009202
695.914582446508
695.810052879477
695.701458690319
695.588544073542
695.471029307852
695.34860758612
695.220941489201
695.08765854448
694.948346535467
694.802546573622
694.649747750504
694.489371351523
694.320740449034
694.143057722757
693.955406779117
693.756747172841
693.545880370539
693.32139856262
693.081636999614
692.824615748075
692.547997223512
692.249061774419
691.924718100807
691.571378408573
691.184890835359
690.760672613135
690.293613393201
689.77805676376
689.208064026426
688.577335484088
687.879374191207
687.107770279098
686.256330749731
685.319114449868
684.290994716319
683.16751182032
681.945007616689
680.620815033129
679.193255141484
677.661401491888
676.024975664968
674.284279961784
672.440230921689
670.494146094807
668.447163144799
666.300212837031
664.054005663111
661.708975073487
659.265575525582
656.724101859424
654.084780906502
651.347913582674
648.513882062445
645.583406816747
642.557469260777
639.437095944798
636.223318319421
632.917098328737
629.519348033216
626.030890437663
622.452494916786
618.784842467816
615.028677548063
611.184886496369
607.254318138395
603.237742231316
599.135887442658
594.949412513275
590.678945543483
586.325052313181
581.888276957138
577.369107677515
572.768018891503
568.085435125162
563.321775298758
558.477522091751
553.553269529969
548.549562394052
543.466942475399
538.305905190393
533.066947649002
527.750522626841
522.357089871298
516.887069391387
511.340892326791
505.71894934978
500.021645081911
494.249344032218
488.402427621184
482.481237499112
476.486135259398
470.417443575311
464.275511068726
458.060737083064
451.773597480004
445.414519033251
438.983955510773
432.482310965747
425.910018914606
419.267462277277
412.555055944847
405.77316301677
398.922181193765
392.002454840861
385.014365721946
377.958240434983
370.834445860969
363.643291726168
356.385130913466
349.060257136449
341.669010018997
334.211668042455
326.68855830461
319.099944565446
311.44614208861
303.727404798967
295.944048328621
288.09632874332
280.184607721065
272.209206308217
264.170518317521
256.068851385344
247.904588544873
239.678023166189
231.389528182297
223.039383169671
214.62795159015
206.155499716863
197.622382113956
189.028852231959
180.37525627225
171.661835251396
162.88892754809
154.056762121517
145.165670189948
136.215869100023
127.207683442354
118.141319254322
109.017094978009
99.8352056247793
90.5959638971269
81.2995543079993
71.9462845269295
62.5363288664041
53.0699903126202
43.5474336375052
33.9689580117196
24.334719148893
14.6450135372226
4.89998876249279
)
;

boundaryField
{
    electrode
    {
        type            calculated;
        value           uniform 700.00000000023;
    }
    ground
    {
        type            calculated;
        value           uniform 0;
    }
    otherfaces
    {
        type            empty;
    }
}


// ************************************************************************* //
