/*--------------------------------*- C++ -*----------------------------------*\
| =========                 |                                                 |
| \\      /  F ield         | foam-extend: Open Source CFD                    |
|  \\    /   O peration     | Version:     4.0                                |
|   \\  /    A nd           | Web:         http://www.foam-extend.org         |
|    \\/     M anipulation  |                                                 |
\*---------------------------------------------------------------------------*/
FoamFile
{
    version     2.0;
    format      ascii;
    class       volScalarField;
    location    "4.8e-06";
    object      Te;
}
// * * * * * * * * * * * * * * * * * * * * * * * * * * * * * * * * * * * * * //

dimensions      [0 0 0 1 0 0 0];

internalField   nonuniform List<scalar> 
300
(
40304.3572727127
40304.6606697282
40304.8472411348
40304.9625128216
40305.1424054221
40305.3610029916
40305.621729249
40305.9264131831
40306.274305449
40306.6655607646
40307.1001895674
40307.5781804508
40308.099548323
40308.6643084716
40309.2724822765
40309.9240973901
40310.6191872532
40311.3577913029
40312.1399549899
40312.9657298071
40313.8351733372
40314.7483493022
40315.7053276111
40316.7061844152
40317.7510021654
40318.8398696696
40319.9728821577
40321.1501413667
40322.3717556648
40323.637840222
40324.948517124
40326.3039150938
40327.7041683851
40329.1494152832
40330.6397998002
40332.1754843
40333.7566751801
40335.3836293885
40337.05656998
40338.7756287295
40340.5409356625
40342.3526759918
40344.2110649744
40346.1163322056
40348.0687178466
40350.0684715035
40352.115852014
40354.2111275272
40356.3545756803
40358.5464838146
40360.7871492099
40363.0768793299
40365.415992081
40367.8048160778
40370.2436909225
40372.7329674913
40375.273008234
40377.8641874832
40380.5068917762
40383.2015201934
40385.9484846987
40388.7482105044
40391.6011364475
40394.5077153727
40397.4684145405
40400.4837160501
40403.5541172742
40406.6801313157
40409.8622874821
40413.1011317808
40416.3972274326
40419.7511554074
40423.1635149853
40426.6349243411
40430.1660211511
40433.7574632271
40437.4099291835
40441.1241191279
40444.9007553868
40448.7405832614
40452.644371818
40456.6129147205
40460.6470310937
40464.7475664311
40468.9153935465
40473.1514135681
40477.4565569875
40481.8317847513
40486.2780894107
40490.796496332
40495.3880649609
40500.0538901574
40504.7951035963
40509.6128752421
40514.508414898
40519.4829738448
40524.5378465628
40529.6743725448
40534.8939382169
40540.1979789616
40545.587981254
40551.0654849246
40556.6320855501
40562.2894369826
40568.0392540355
40573.8833153271
40579.8234662935
40585.861622396
40591.9997725244
40598.2399826169
40604.5843995152
40611.0352550685
40617.5948705114
40624.2656611382
40631.0501412942
40637.9509297104
40644.9707552183
40652.1124628736
40659.379020521
40666.773525844
40674.2992139478
40681.9594655161
40689.7578156068
40697.6979631357
40705.7837811222
40714.0193277825
40722.4088585302
40730.9568390267
40739.6679593236
40748.5471491243
40757.5995952161
40766.830758454
40776.2463949699
40785.8525789995
40795.6557242948
40805.662611402
40815.8804146941
40826.3167527161
40836.9797231801
40847.8778163525
40859.0202124767
40870.4173275052
40882.0800291575
40894.0189760362
40906.2456060924
40918.7726477039
40931.6138509765
40944.7840275085
40958.2991588615
40972.1765103094
40986.434836818
41001.0944226937
41016.1774620057
41031.7081828461
41047.7127624291
41064.2210196195
41081.2636968688
41098.8778875699
41117.1021366976
41135.9802454535
41155.5710532706
41175.9390305699
41197.247579672
41219.6816812169
41243.2005177198
41267.7238976163
41293.3699916054
41320.3592736177
41348.9300888862
41379.2674115347
41411.514452854
41445.713643453
41481.768773775
41519.9841169791
41561.123530506
41604.9727839111
41651.2188424991
41701.3074340244
41755.8217110944
41814.5411868062
41879.5627779617
41952.8080856359
42035.7432162164
42132.9342019832
42249.885601386
42392.7501671151
42572.2114613456
42802.7444581601
43102.4889024193
43497.7504714881
44024.8298353263
44740.3862012805
45711.7099428262
47023.8241729114
48841.9919203973
51380.7467072368
55024.759669647
60052.4993757015
66347.496283868
75239.1573418846
88642.0302923406
106674.298525045
131453.562126338
165263.219582027
209579.752624275
263807.824184587
324746.736397934
387903.618318649
449194.549313576
505908.130579673
556841.107627118
601753.322495674
640976.942821404
675187.209509847
705010.491120187
731105.32985216
754106.903887511
774539.029304996
792818.726310926
809290.498575426
824226.094386315
837854.330653335
850384.943237764
861982.457361768
872783.432344935
882900.457080522
892427.154061582
901441.12753864
910006.618191718
918176.779094332
925995.403519743
933498.336027758
940714.611624627
947667.392151631
954374.737361443
960850.243308744
967103.580819194
973140.943639493
978965.437819551
984577.409856396
989974.780126953
995153.314544167
1000107.797846
1004827.2009938
1009300.04614841
1013517.61926351
1017467.50401554
1021136.29401563
1024509.33482739
1027571.00139983
1030304.78591233
1032693.40703097
1034718.8880768
1036362.61822306
1037605.19465972
1038426.01938919
1038798.62339751
1038721.02718091
1038161.77875833
1037100.97195976
1035516.71438955
1033387.57332823
1030691.74916577
1027407.2077752
1023511.61927511
1018982.29331226
1013796.28473845
1007930.14485505
1001362.80881871
994069.564071946
986023.007529459
977200.06358278
967575.836978607
957123.320452225
945814.319370508
933619.303937633
920507.305011116
906445.71447406
891400.073844543
875333.785504939
858208.070565487
839981.243261515
820613.715655446
800061.494991004
778267.606661655
755175.795429599
730723.836229066
704833.429537735
677426.432021732
648415.517120252
617689.774409426
585121.588611373
550574.932715613
513862.324474203
474756.65259146
432975.215044276
388118.35576271
339633.333920148
286711.899423548
228295.268655855
)
;

boundaryField
{
    electrode
    {
        type            electronTemperature;
        seec            0.05;
        Tse             1000;
        Edepend         1;
        TFN             1000;
        field_emission  0;
        field_enhancement_factor 55;
        work_function   5;
        value           uniform 40304.3572727127;
    }
    ground
    {
        type            electronTemperature;
        seec            0.05;
        Tse             1000;
        Edepend         1;
        TFN             1000;
        field_emission  0;
        field_enhancement_factor 55;
        work_function   5;
        value           uniform 195152.513201196;
    }
    otherfaces
    {
        type            empty;
    }
}


// ************************************************************************* //
