/*--------------------------------*- C++ -*----------------------------------*\
| =========                 |                                                 |
| \\      /  F ield         | foam-extend: Open Source CFD                    |
|  \\    /   O peration     | Version:     4.0                                |
|   \\  /    A nd           | Web:         http://www.foam-extend.org         |
|    \\/     M anipulation  |                                                 |
\*---------------------------------------------------------------------------*/
FoamFile
{
    version     2.0;
    format      ascii;
    class       volScalarField;
    location    "4.8e-06";
    object      TeMean;
}
// * * * * * * * * * * * * * * * * * * * * * * * * * * * * * * * * * * * * * //

dimensions      [0 0 0 1 0 0 0];

internalField   nonuniform List<scalar> 
300
(
33591.1844373942
33591.4747687856
33591.5835956921
33591.5412198432
33591.502104173
33591.4473490191
33591.3796601428
33591.3021918323
33591.2152382856
33591.1196232341
33591.0160968185
33590.9053709543
33590.7881394221
33590.6650531879
33590.536741358
33590.4038092026
33590.2668365233
33590.1263839457
33589.9829923049
33589.8371823966
33589.6894586709
33589.5403064178
33589.3901949542
33589.2395766376
33589.0888863248
33588.9385560193
33588.7890051317
33588.640636944
33588.4938500526
33588.3490228669
33588.2065118789
33588.066684332
33587.929914952
33587.7965598164
33587.666963839
33587.5414553853
33587.420356797
33587.3039957896
33587.1926936815
33587.0867599451
33586.9864954705
33586.8922076074
33586.80419895
33586.7227634343
33586.6481909529
33586.580766972
33586.5207718795
33586.4684796969
33586.4241537412
33586.3880465378
33586.3604001895
33586.3414659957
33586.3315155076
33586.3308160355
33586.3396370393
33586.3582580865
33586.3869477923
33586.4259664562
33586.4755832598
33586.5360677852
33586.6076879242
33586.6907219924
33586.7854264866
33586.8920497923
33587.0108793198
33587.1422217213
33587.2863780769
33587.4436466003
33587.6143276809
33587.7987303581
33587.997161481
33588.20991404
33588.4373018254
33588.6796544976
33588.9372890977
33589.2105133985
33589.4996630995
33589.8051119159
33590.1272204786
33590.4663444351
33590.8228802707
33591.197238235
33591.5898132745
33592.0009950997
33592.4311812442
33592.880807387
33593.3503415411
33593.8402472451
33594.3509866289
33594.8830465366
33595.4369093251
33596.0130683618
33596.6120925224
33597.2345448622
33597.8809882053
33598.5520310879
33599.2482892705
33599.970400057
33600.7190153795
33601.4948137024
33602.2985203778
33603.1308476114
33603.9925295761
33604.8843736886
33605.8072092769
33606.7618866398
33607.7492816761
33608.7703069693
33609.8259281308
33610.9171452726
33612.0449989367
33613.2105687462
33614.4149672562
33615.6593814809
33616.945033833
33618.2731800467
33619.6451246174
33621.0622589388
33622.5260649214
33624.0380364124
33625.599726997
33627.2127799293
33628.8789079465
33630.5999289544
33632.3777798576
33634.214467542
33636.1120643894
33638.0727739956
33640.098933333
33642.1929684702
33644.357428331
33646.5950254105
33648.9086378979
33651.3012466435
33653.7759901571
33656.3362831778
33658.9857706858
33661.728301777
33664.5679680762
33667.5091417315
33670.5565038683
33673.7150412897
33676.9900609652
33680.3872467414
33683.9127703411
33687.5733643589
33691.3763400598
33695.3296584473
33699.4419083529
33703.7224524779
33708.1816606409
33712.8309051515
33717.6827157351
33722.7510759284
33728.0514607191
33733.6011909721
33739.4196841378
33745.5293747549
33751.9561356407
33758.7329154177
33765.9129556268
33773.5675636109
33781.7526294622
33790.4950012059
33799.8324736226
33809.8516445126
33820.6739502823
33832.4289203995
33845.2388785343
33859.1977936979
33874.3466806236
33890.738410316
33908.5309252634
33927.8000365653
33948.5096534084
33970.8094784761
33994.8878698885
34020.9838175708
34049.8436197121
34082.7333745615
34121.684181027
34170.3436370081
34234.4347429162
34322.5449659735
34447.9984497239
34630.5722043837
34899.1364339187
35296.675153338
35887.5682203098
36769.7366853844
38094.7757534597
40102.9174839192
43185.1222824457
48103.7370498911
55618.149571995
66219.8271508673
81668.6970516985
102720.603464156
130989.256459738
166964.377065741
210148.853671323
258993.964048737
311611.331721152
365726.267340883
419204.572832318
470270.75566386
517640.076353584
560560.254596211
598820.097832022
632606.458874687
662312.843415073
688424.045212367
711453.257552801
731872.008086248
750092.34645153
766479.369066793
781338.909671691
794922.017375643
807433.476587548
819041.902026126
829884.183269275
840071.31402254
849699.640497849
858851.132243903
867592.029198407
875976.501562205
884048.928733872
891845.354631711
899394.758675175
906720.126339522
913839.289390173
920765.62439017
927508.627341774
934074.294047138
940465.582022681
946682.837347765
952724.012138271
958584.941757109
964259.56652728
969740.139806758
975017.403435419
980080.701959136
984918.288131647
989517.3383898
993863.975447441
997943.757078793
1001741.31981909
1005240.70410455
1008425.60632247
1011278.95556138
1013783.89751278
1015923.52965602
1017680.31053604
1019036.46546783
1019973.83512986
1020473.92117662
1020515.05079899
1020082.98891022
1019163.82378707
1017734.36330998
1015775.85061814
1013269.09492236
1010195.03569414
1006534.42229153
1002267.79690524
997375.957431059
991838.8961781
985635.927632192
978746.834357193
971150.41486874
962824.826666215
953747.966155953
943896.796122168
933247.060898046
921773.249072342
909448.558089015
896244.764341238
882132.022546333
867078.707523225
851051.125274363
834013.462728501
815927.46390747
796757.466538558
776457.737177428
754975.326331629
732259.206571153
708246.514607137
682863.852204553
656039.75802598
627687.724596683
597700.820483097
565961.096863729
532332.130487123
496634.096218644
458650.445509361
418106.086332003
374612.437671729
327639.404574703
276411.784720965
219904.013561913
)
;

boundaryField
{
    electrode
    {
        type            calculated;
        value           uniform 33591.1844373968;
    }
    ground
    {
        type            calculated;
        value           uniform 187862.780698558;
    }
    otherfaces
    {
        type            empty;
    }
}


// ************************************************************************* //
