/*--------------------------------*- C++ -*----------------------------------*\
| =========                 |                                                 |
| \\      /  F ield         | foam-extend: Open Source CFD                    |
|  \\    /   O peration     | Version:     4.0                                |
|   \\  /    A nd           | Web:         http://www.foam-extend.org         |
|    \\/     M anipulation  |                                                 |
\*---------------------------------------------------------------------------*/
FoamFile
{
    version     2.0;
    format      ascii;
    class       volScalarField;
    location    "6.9e-06";
    object      Ar;
}
// * * * * * * * * * * * * * * * * * * * * * * * * * * * * * * * * * * * * * //

dimensions      [0 0 0 1 0 0 0];

internalField   nonuniform List<scalar> 
300
(
3.21880242334757e+22
3.21880241906428e+22
3.21880242193599e+22
3.21880242306076e+22
3.21880242499346e+22
3.2188024276771e+22
3.21880243094778e+22
3.21880243487006e+22
3.21880243943171e+22
3.21880244462948e+22
3.21880245046386e+22
3.2188024569337e+22
3.21880246403848e+22
3.2188024717779e+22
3.21880248015177e+22
3.21880248916005e+22
3.2188024988031e+22
3.21880250908096e+22
3.21880251999374e+22
3.21880253154175e+22
3.21880254372541e+22
3.21880255654518e+22
3.2188025700016e+22
3.21880258409527e+22
3.21880259882846e+22
3.21880261420061e+22
3.21880263021264e+22
3.21880264686565e+22
3.21880266415966e+22
3.21880268209557e+22
3.21880270067619e+22
3.21880271990188e+22
3.21880273977236e+22
3.21880276028865e+22
3.21880278145184e+22
3.21880280326312e+22
3.21880282572414e+22
3.218802848836e+22
3.21880287259974e+22
3.21880289701683e+22
3.21880292208877e+22
3.21880294781691e+22
3.21880297420279e+22
3.21880300124801e+22
3.2188030289542e+22
3.2188030573231e+22
3.21880308635666e+22
3.21880311605686e+22
3.21880314642662e+22
3.21880317746825e+22
3.21880320918521e+22
3.21880324157851e+22
3.21880327465096e+22
3.21880330840308e+22
3.2188033428364e+22
3.21880337795164e+22
3.21880341375086e+22
3.2188034502362e+22
3.21880348740982e+22
3.21880352527416e+22
3.21880356383127e+22
3.21880360308346e+22
3.21880364303359e+22
3.21880368368599e+22
3.21880372504285e+22
3.2188037671042e+22
3.21880380987241e+22
3.21880385334992e+22
3.2188038975392e+22
3.21880394244273e+22
3.21880398806326e+22
3.21880403440414e+22
3.21880408146818e+22
3.21880412925729e+22
3.2188041777755e+22
3.21880422702535e+22
3.21880427700886e+22
3.21880432772912e+22
3.21880437918676e+22
3.21880443138743e+22
3.21880448433027e+22
3.21880453801795e+22
3.21880459245386e+22
3.21880464764e+22
3.21880470357763e+22
3.21880476027028e+22
3.21880481772171e+22
3.21880487593466e+22
3.21880493491348e+22
3.21880499466052e+22
3.21880505517953e+22
3.21880511647807e+22
3.21880517855366e+22
3.21880524140913e+22
3.21880530504741e+22
3.21880536947139e+22
3.21880543468393e+22
3.21880550068787e+22
3.21880556748703e+22
3.21880563508411e+22
3.21880570348112e+22
3.21880577268052e+22
3.218805842688e+22
3.21880591350313e+22
3.21880598512924e+22
3.21880605756964e+22
3.21880613082513e+22
3.21880620489994e+22
3.21880627979521e+22
3.21880635551255e+22
3.21880643205425e+22
3.21880650942254e+22
3.21880658762021e+22
3.21880666664938e+22
3.21880674651214e+22
3.21880682721208e+22
3.21880690875285e+22
3.21880699113367e+22
3.21880707435612e+22
3.2188071584226e+22
3.2188072433373e+22
3.21880732910045e+22
3.21880741571638e+22
3.21880750318547e+22
3.21880759150794e+22
3.21880768068535e+22
3.21880777072176e+22
3.2188078616167e+22
3.21880795337243e+22
3.21880804599034e+22
3.21880813947311e+22
3.21880823382223e+22
3.21880832903928e+22
3.21880842512791e+22
3.21880852209276e+22
3.21880861993296e+22
3.21880871864906e+22
3.21880881824452e+22
3.21880891872213e+22
3.21880902008186e+22
3.21880912232619e+22
3.2188092254576e+22
3.2188093294801e+22
3.21880943439763e+22
3.21880954021336e+22
3.21880964692591e+22
3.21880975453732e+22
3.21880986304964e+22
3.21880997246618e+22
3.21881008279182e+22
3.21881019402547e+22
3.21881030616916e+22
3.21881041922651e+22
3.21881053320043e+22
3.21881064808916e+22
3.218810763889e+22
3.21881088059825e+22
3.21881099823067e+22
3.21881111675654e+22
3.21881123621172e+22
3.21881135653178e+22
3.2188114777875e+22
3.21881159986507e+22
3.21881172286394e+22
3.21881184676583e+22
3.21881197045236e+22
3.21881209451412e+22
3.21881222007348e+22
3.21881234646148e+22
3.21881247365915e+22
3.21881260088208e+22
3.21881272840152e+22
3.21881285572459e+22
3.21881298293853e+22
3.21881311134185e+22
3.21881324132812e+22
3.21881336708636e+22
3.21881349218018e+22
3.21881362117603e+22
3.21881374342847e+22
3.21881386209469e+22
3.2188139843036e+22
3.21881409674045e+22
3.21881420496654e+22
3.2188143120611e+22
3.21881440918438e+22
3.21881449859659e+22
3.21881458600525e+22
3.21881466095967e+22
3.21881472714848e+22
3.21881479058223e+22
3.21881484432024e+22
3.21881488851485e+22
3.21881492571107e+22
3.21881495715166e+22
3.21881497743161e+22
3.21881499108198e+22
3.2188150002801e+22
3.21881500857371e+22
3.21881501389658e+22
3.21881501638176e+22
3.2188150149213e+22
3.21881501476925e+22
3.21881501501536e+22
3.21881502056586e+22
3.21881502774312e+22
3.218815036276e+22
3.21881504430857e+22
3.21881505148717e+22
3.21881505774585e+22
3.21881506320045e+22
3.21881506794611e+22
3.218815071988e+22
3.2188150774812e+22
3.21881508285206e+22
3.21881508785019e+22
3.21881509230782e+22
3.21881509649604e+22
3.21881510023911e+22
3.21881510380033e+22
3.21881510697914e+22
3.21881511006721e+22
3.21881511284988e+22
3.21881511557757e+22
3.21881511800553e+22
3.21881512192954e+22
3.21881512557045e+22
3.21881512923804e+22
3.21881513256599e+22
3.2188151359446e+22
3.21881513899569e+22
3.21881514211813e+22
3.21881514491946e+22
3.21881514780742e+22
3.21881515038086e+22
3.21881515305333e+22
3.21881515541478e+22
3.21881515788587e+22
3.21881516004536e+22
3.21881516232398e+22
3.21881516429031e+22
3.21881516659678e+22
3.21881516943141e+22
3.21881517238322e+22
3.21881517503621e+22
3.21881517781392e+22
3.21881518029378e+22
3.21881518290787e+22
3.21881518522483e+22
3.21881518768512e+22
3.21881518984907e+22
3.21881519216373e+22
3.2188151941822e+22
3.21881519635809e+22
3.21881519823728e+22
3.21881520028158e+22
3.21881520202839e+22
3.21881520394907e+22
3.21881520557219e+22
3.21881520737547e+22
3.2188152088803e+22
3.21881521057159e+22
3.21881521196373e+22
3.21881521354801e+22
3.21881521483254e+22
3.21881521667932e+22
3.21881521853039e+22
3.21881522058686e+22
3.21881522233596e+22
3.21881522429695e+22
3.21881522595017e+22
3.21881522782144e+22
3.21881522938469e+22
3.21881523117242e+22
3.21881523265126e+22
3.21881523436077e+22
3.21881523576007e+22
3.21881523739465e+22
3.21881523871719e+22
3.21881524027954e+22
3.21881524152891e+22
3.21881524302609e+22
3.21881524422684e+22
3.2188152456903e+22
3.21881524683942e+22
3.21881524824355e+22
3.21881524933142e+22
3.21881525067764e+22
3.21881525170651e+22
3.2188152530368e+22
3.21881525406795e+22
3.21881525536699e+22
3.21881525634366e+22
3.21881525765003e+22
3.21881525865106e+22
3.21881525994827e+22
3.2188152609907e+22
3.21881526236959e+22
3.21881526350645e+22
3.2188152658342e+22
)
;

boundaryField
{
    electrode
    {
        type            zeroGradient;
    }
    ground
    {
        type            zeroGradient;
    }
    otherfaces
    {
        type            empty;
    }
}


// ************************************************************************* //
