/*--------------------------------*- C++ -*----------------------------------*\
| =========                 |                                                 |
| \\      /  F ield         | foam-extend: Open Source CFD                    |
|  \\    /   O peration     | Version:     4.0                                |
|   \\  /    A nd           | Web:         http://www.foam-extend.org         |
|    \\/     M anipulation  |                                                 |
\*---------------------------------------------------------------------------*/
FoamFile
{
    version     2.0;
    format      ascii;
    class       volScalarField;
    location    "6.9e-06";
    object      Arp1;
}
// * * * * * * * * * * * * * * * * * * * * * * * * * * * * * * * * * * * * * //

dimensions      [0 0 0 1 0 0 0];

internalField   nonuniform List<scalar> 
300
(
6.45800220883155e+16
6.46226308133053e+16
6.45962835143986e+16
6.4591101899408e+16
6.45813251731781e+16
6.45674949258107e+16
6.45512115043766e+16
6.4531798570417e+16
6.45093558831996e+16
6.44838967947459e+16
6.44554036403927e+16
6.44238770737053e+16
6.4389313495242e+16
6.43517090446426e+16
6.43110600041049e+16
6.42673623244664e+16
6.4220611760245e+16
6.41708038595381e+16
6.41179339566723e+16
6.40619971756349e+16
6.4002988428969e+16
6.3940902418194e+16
6.38757336338498e+16
6.38074763552984e+16
6.37361246512168e+16
6.36616723799665e+16
6.35841131893754e+16
6.35034405176491e+16
6.34196475938231e+16
6.33327274380478e+16
6.32426728623635e+16
6.31494764718936e+16
6.30531306651865e+16
6.29536276354079e+16
6.2850959371841e+16
6.27451176605787e+16
6.26360940862702e+16
6.25238800338651e+16
6.24084666897582e+16
6.22898450440532e+16
6.21680058927297e+16
6.20429398392792e+16
6.19146372975206e+16
6.17830884941705e+16
6.16482834711524e+16
6.15102120888653e+16
6.13688640294216e+16
6.12242287994146e+16
6.10762957338972e+16
6.09250540002115e+16
6.07704926013081e+16
6.06126003804894e+16
6.04513660257062e+16
6.02867780738117e+16
6.01188249156158e+16
5.99474948011056e+16
5.97727758443902e+16
5.959465602925e+16
5.94131232152636e+16
5.92281651431745e+16
5.90397694414361e+16
5.88479236328026e+16
5.86526151404893e+16
5.84538312953593e+16
5.82515593432016e+16
5.8045786451543e+16
5.78364997175137e+16
5.76236861758277e+16
5.74073328062153e+16
5.71874265417786e+16
5.69639542776512e+16
5.67369028782705e+16
5.65062591876858e+16
5.62720100418533e+16
5.60341422763679e+16
5.57926427226668e+16
5.5547498191854e+16
5.529869550316e+16
5.50462216938807e+16
5.47900642415807e+16
5.45302103289065e+16
5.42666446142921e+16
5.39993492914524e+16
5.37283150842088e+16
5.3453557885171e+16
5.31750494508292e+16
5.28927567423779e+16
5.26066682146848e+16
5.23167688753863e+16
5.20230433214476e+16
5.17254762700275e+16
5.14240526388341e+16
5.1118757584189e+16
5.08095765141123e+16
5.04964950957626e+16
5.01794992603668e+16
4.98585752082467e+16
4.95337094138287e+16
4.92048886300991e+16
4.88720998935133e+16
4.85353305289719e+16
4.81945681543348e+16
4.78498006850634e+16
4.75010163392705e+16
4.71482036420371e+16
4.67913514298875e+16
4.64304488555832e+16
4.60654853922961e+16
4.56964508377581e+16
4.5323335318897e+16
4.49461292956631e+16
4.45648235650199e+16
4.41794092653173e+16
4.3789877879969e+16
4.33962212413371e+16
4.29984315350315e+16
4.25965013036787e+16
4.21904234510024e+16
4.17801912464614e+16
4.13657983294555e+16
4.0947238714394e+16
4.05245067961591e+16
4.00975973558551e+16
3.96665055675687e+16
3.9231227006209e+16
3.87917576560714e+16
3.83480939211152e+16
3.79002326371915e+16
3.74481710858278e+16
3.6991907011081e+16
3.65314386393914e+16
3.60667647028899e+16
3.55978844674044e+16
3.51247977658902e+16
3.4647505037841e+16
3.41660073768477e+16
3.36803065869237e+16
3.31904052494451e+16
3.26963068053035e+16
3.21980156475475e+16
3.16955372384404e+16
3.11888782504645e+16
3.06780467208664e+16
3.01630522539684e+16
2.96439062396111e+16
2.91206222465628e+16
2.85932161174147e+16
2.80617064447586e+16
2.75261156022771e+16
2.69864703633002e+16
2.64427984123129e+16
2.58951357664211e+16
2.53435426864281e+16
2.47880288936929e+16
2.42286703184211e+16
2.36655984124295e+16
2.3098923619385e+16
2.25285647785933e+16
2.19548989280805e+16
2.13776775613899e+16
2.07976504311876e+16
2.02141998195616e+16
1.9628583487006e+16
1.90398888548084e+16
1.8448433602802e+16
1.78657042662589e+16
1.7286248433677e+16
1.66993663102111e+16
1.61121885320917e+16
1.55252285473759e+16
1.49466155056329e+16
1.4374002307045e+16
1.38126394709374e+16
1.3261815330641e+16
1.27083713743943e+16
1.2147609613277e+16
1.16363408822086e+16
1.11372580134395e+16
1.06021133109151e+16
1.01338032171029e+16
9.69656950632542e+15
9.21396550441589e+15
8.81294238609971e+15
8.43116072525791e+15
8.03082497402902e+15
7.69327375605094e+15
7.38927716258359e+15
7.05612354813998e+15
6.79398638884897e+15
6.56342788545667e+15
6.30368752584996e+15
6.08519417011754e+15
5.90880070761222e+15
5.74828745078451e+15
5.57066043701223e+15
5.42882413205182e+15
5.30975396476167e+15
5.22644693865263e+15
5.14401546463883e+15
5.0835822689532e+15
5.04676110051109e+15
5.05220299022344e+15
5.06777090208282e+15
5.10298212062406e+15
5.09792344427611e+15
5.07647071952103e+15
5.03328695243445e+15
4.98462598850941e+15
4.93477971573557e+15
4.8866027833423e+15
4.84182744274365e+15
4.80101719835011e+15
4.76498698589246e+15
4.71299604580531e+15
4.66210626245586e+15
4.61462412290481e+15
4.57239290844548e+15
4.53296091745671e+15
4.49827740137116e+15
4.46582229598438e+15
4.43767185082248e+15
4.41121802407931e+15
4.38864952074564e+15
4.3673151221025e+15
4.34957646645878e+15
4.31731363434878e+15
4.28827106395577e+15
4.25932204339548e+15
4.23408378874082e+15
4.20860052315594e+15
4.18662406041441e+15
4.16411983030319e+15
4.14496310935808e+15
4.12504491625609e+15
4.10834347940225e+15
4.09067515427728e+15
4.07612736420396e+15
4.06044779907275e+15
4.04783633886048e+15
4.0339535793012e+15
4.02309474669527e+15
4.00872748603146e+15
3.98894313295068e+15
3.96785284257616e+15
3.9495998185935e+15
3.92992418198202e+15
3.91305825719421e+15
3.89466790968518e+15
3.87905996034861e+15
3.86183466920389e+15
3.84737962344118e+15
3.83122708793355e+15
3.81784801941653e+15
3.80270103941741e+15
3.79033436480812e+15
3.77613113939145e+15
3.764718832977e+15
3.75139906422635e+15
3.74087775951032e+15
3.72838587195449e+15
3.71870410770049e+15
3.70699701027973e+15
3.69811850956675e+15
3.68716504958541e+15
3.67905896420134e+15
3.66518489200863e+15
3.65113129267103e+15
3.63489126114525e+15
3.62160413678818e+15
3.60607277623061e+15
3.59350275489111e+15
3.57863244355573e+15
3.56673688353242e+15
3.55248607480738e+15
3.54122628591226e+15
3.52756397474434e+15
3.51691029198563e+15
3.50381075739774e+15
3.49373728802199e+15
3.48117803833558e+15
3.47166289466657e+15
3.4596245103322e+15
3.45064875316358e+15
3.43910818151775e+15
3.43064214369411e+15
3.41956593356079e+15
3.41158340906779e+15
3.40094597305906e+15
3.39342032484426e+15
3.38319517799264e+15
3.37609482046108e+15
3.36623954662113e+15
3.35952562985074e+15
3.35002204480686e+15
3.34366243950914e+15
3.33446331030095e+15
3.32842736467532e+15
3.3194770837123e+15
3.31368498564148e+15
3.29719567572754e+15
)
;

boundaryField
{
    electrode
    {
        type            driftDiffusionPositiveIonDensity;
        seec            0;
        fieldName       Arp1;
        value           uniform 6.4398039451381e+16;
    }
    ground
    {
        type            driftDiffusionPositiveIonDensity;
        seec            0;
        fieldName       Arp1;
        value           uniform 3.29719567572754e+15;
    }
    otherfaces
    {
        type            empty;
    }
}


// ************************************************************************* //
