/*--------------------------------*- C++ -*----------------------------------*\
| =========                 |                                                 |
| \\      /  F ield         | foam-extend: Open Source CFD                    |
|  \\    /   O peration     | Version:     4.0                                |
|   \\  /    A nd           | Web:         http://www.foam-extend.org         |
|    \\/     M anipulation  |                                                 |
\*---------------------------------------------------------------------------*/
FoamFile
{
    version     2.0;
    format      ascii;
    class       volVectorField;
    location    "6.9e-06";
    object      E;
}
// * * * * * * * * * * * * * * * * * * * * * * * * * * * * * * * * * * * * * //

dimensions      [0 0 0 1 0 0 0];

internalField   nonuniform List<vector> 
300
(
(5.4114120517923 -0 -0)
(10.8281926550213 -0 -0)
(19.1076771155485 -0 -0)
(26.7630022393609 -0 -0)
(34.3724314386111 -0 -0)
(42.0490566782621 -0 -0)
(49.7190186229962 -0 -0)
(57.4039157583128 -0 -0)
(65.1045516705813 -0 -0)
(72.8212975129046 -0 -0)
(80.5563809658223 -0 -0)
(88.3114034275221 -0 -0)
(96.0880536929341 -0 -0)
(103.888057764732 -0 -0)
(111.713139747117 -0 -0)
(119.565041430127 -0 -0)
(127.445519895739 -0 -0)
(135.356348150708 -0 -0)
(143.299316525404 -0 -0)
(151.276233543992 -0 -0)
(159.288926940284 -0 -0)
(167.339244661059 -0 -0)
(175.42905591111 -0 -0)
(183.560252152439 -0 -0)
(191.734748199171 -0 -0)
(199.954483258431 -0 -0)
(208.221421987844 -0 -0)
(216.537555665366 -0 -0)
(224.904903213525 -0 -0)
(233.325512360996 -0 -0)
(241.801460849925 -0 -0)
(250.334857530792 -0 -0)
(258.927843595239 -0 -0)
(267.582593815901 -0 -0)
(276.301317771121 -0 -0)
(285.086261118979 -0 -0)
(293.939706945441 -0 -0)
(302.863977064077 -0 -0)
(311.861433414972 -0 -0)
(320.934479483591 -0 -0)
(330.085561746285 -0 -0)
(339.317171177446 -0 -0)
(348.631844789039 -0 -0)
(358.032167242713 -0 -0)
(367.520772486009 -0 -0)
(377.100345445898 -0 -0)
(386.773623819924 -0 -0)
(396.543399866539 -0 -0)
(406.412522352447 -0 -0)
(416.383898468792 -0 -0)
(426.460495892056 -0 -0)
(436.645344947847 -0 -0)
(446.941540764489 -0 -0)
(457.352245625311 -0 -0)
(467.880691361379 -0 -0)
(478.530181842369 -0 -0)
(489.304095616142 -0 -0)
(500.20588868443 -0 -0)
(511.23909728935 -0 -0)
(522.407340973525 -0 -0)
(533.71432569704 -0 -0)
(545.163847156972 -0 -0)
(556.759794197232 -0 -0)
(568.506152491599 -0 -0)
(580.407008267275 -0 -0)
(592.466552384931 -0 -0)
(604.689084500523 -0 -0)
(617.079017454933 -0 -0)
(629.640881999519 -0 -0)
(642.379331652958 -0 -0)
(655.299147778047 -0 -0)
(668.405245031552 -0 -0)
(681.702677136975 -0 -0)
(695.196643426958 -0 -0)
(708.892495438001 -0 -0)
(722.795741658966 -0 -0)
(736.912049989355 -0 -0)
(751.247256557189 -0 -0)
(765.807401859128 -0 -0)
(780.598781063685 -0 -0)
(795.627872755921 -0 -0)
(810.900997196078 -0 -0)
(826.424158635434 -0 -0)
(842.204595388833 -0 -0)
(858.253739918852 -0 -0)
(874.584975836354 -0 -0)
(891.208818980348 -0 -0)
(908.133654467602 -0 -0)
(925.367877162111 -0 -0)
(942.920212272749 -0 -0)
(960.799723515135 -0 -0)
(979.01584030483 -0 -0)
(997.578378478344 -0 -0)
(1016.49756069088 -0 -0)
(1035.78403771017 -0 -0)
(1055.44891106934 -0 -0)
(1075.50375724059 -0 -0)
(1095.96065346306 -0 -0)
(1116.83220530856 -0 -0)
(1138.13157618808 -0 -0)
(1159.87251888388 -0 -0)
(1182.06940934742 -0 -0)
(1204.73728287979 -0 -0)
(1227.8918729414 -0 -0)
(1251.54965273112 -0 -0)
(1275.7278799015 -0 -0)
(1300.44464452366 -0 -0)
(1325.71892067513 -0 -0)
(1351.57062196314 -0 -0)
(1378.02066130482 -0 -0)
(1405.09101528449 -0 -0)
(1432.80479369002 -0 -0)
(1461.1863144606 -0 -0)
(1490.26118475574 -0 -0)
(1520.05638857659 -0 -0)
(1550.6003816734 -0 -0)
(1581.92319433415 -0 -0)
(1614.0565430077 -0 -0)
(1647.03395138627 -0 -0)
(1680.89088216656 -0 -0)
(1715.66488041 -0 -0)
(1751.39572980951 -0 -0)
(1788.1256231618 -0 -0)
(1825.89934863858 -0 -0)
(1864.76449354451 -0 -0)
(1904.77166746049 -0 -0)
(1945.97474717106 -0 -0)
(1988.43114548836 -0 -0)
(2032.20210720244 -0 -0)
(2077.35303496571 -0 -0)
(2123.95384909343 -0 -0)
(2172.07938505455 -0 -0)
(2221.80983369706 -0 -0)
(2273.23122939614 -0 -0)
(2326.43599235469 -0 -0)
(2381.52353229261 -0 -0)
(2438.60092146531 -0 -0)
(2497.78364670744 -0 -0)
(2559.19645141573 -0 -0)
(2622.97427986255 -0 -0)
(2689.26333878867 -0 -0)
(2758.22229405978 -0 -0)
(2830.02362113037 -0 -0)
(2904.85513272686 -0 -0)
(2982.92171304782 -0 -0)
(3064.44729838367 -0 -0)
(3149.67711430612 -0 -0)
(3238.88022492921 -0 -0)
(3332.35254960867 -0 -0)
(3430.42029881006 -0 -0)
(3533.44343101453 -0 -0)
(3641.82054510893 -0 -0)
(3755.99587788163 -0 -0)
(3876.46024770689 -0 -0)
(4003.760249991 -0 -0)
(4138.5224804004 -0 -0)
(4281.46083669737 -0 -0)
(4433.35787162128 -0 -0)
(4595.10004906563 -0 -0)
(4767.67749305104 -0 -0)
(4952.23661030092 -0 -0)
(5150.05813005922 -0 -0)
(5362.64921830092 -0 -0)
(5591.72499828585 -0 -0)
(5839.48932998466 -0 -0)
(6110.62697395466 -0 -0)
(6411.03826285609 -0 -0)
(6744.11042147435 -0 -0)
(7112.56752242917 -0 -0)
(7520.99986300041 -0 -0)
(7976.46509158095 -0 -0)
(8487.90382178933 -0 -0)
(9065.53171140201 -0 -0)
(9720.41952057816 -0 -0)
(10460.5512449323 -0 -0)
(11291.1297533245 -0 -0)
(12228.0211622942 -0 -0)
(13289.7693723668 -0 -0)
(14477.2605555858 -0 -0)
(15801.3452667471 -0 -0)
(17284.4731682309 -0 -0)
(18923.4843324774 -0 -0)
(20722.7362865133 -0 -0)
(22697.3011594642 -0 -0)
(24836.020142121 -0 -0)
(27133.1391278731 -0 -0)
(29591.6262034665 -0 -0)
(32187.926186253 -0 -0)
(34904.8003822735 -0 -0)
(37738.8405304119 -0 -0)
(40658.6399435802 -0 -0)
(43635.1196131667 -0 -0)
(46659.9797065168 -0 -0)
(49721.2964405614 -0 -0)
(52792.4514191825 -0 -0)
(55854.3798741549 -0 -0)
(58905.6508371477 -0 -0)
(61945.2675674058 -0 -0)
(64976.8211422222 -0 -0)
(67996.0192047042 -0 -0)
(70999.6488199947 -0 -0)
(74010.7218455929 -0 -0)
(77043.1341809621 -0 -0)
(80097.0918998117 -0 -0)
(83164.6411112206 -0 -0)
(86227.6286352166 -0 -0)
(89273.303729029 -0 -0)
(92292.5940204691 -0 -0)
(95282.8240023056 -0 -0)
(98243.7933675495 -0 -0)
(101176.874996033 -0 -0)
(104084.22385475 -0 -0)
(106968.448901027 -0 -0)
(109826.156272811 -0 -0)
(112652.852490724 -0 -0)
(115449.892100494 -0 -0)
(118219.883354879 -0 -0)
(120965.250492947 -0 -0)
(123688.264462881 -0 -0)
(126391.028723817 -0 -0)
(129075.515192347 -0 -0)
(131743.532370383 -0 -0)
(134396.764800545 -0 -0)
(137036.758342052 -0 -0)
(139664.969873369 -0 -0)
(142278.104716351 -0 -0)
(144872.754835744 -0 -0)
(147449.920598105 -0 -0)
(150010.750327604 -0 -0)
(152556.29019774 -0 -0)
(155087.524802724 -0 -0)
(157605.353391074 -0 -0)
(160110.627088477 -0 -0)
(162604.126462275 -0 -0)
(165086.592565103 -0 -0)
(167558.704420272 -0 -0)
(170021.111944038 -0 -0)
(172474.415268421 -0 -0)
(174919.198563418 -0 -0)
(177356.003942183 -0 -0)
(179785.36019562 -0 -0)
(182207.121158833 -0 -0)
(184618.595092978 -0 -0)
(187017.754481802 -0 -0)
(189405.061042124 -0 -0)
(191780.941309361 -0 -0)
(194145.813465403 -0 -0)
(196500.064962232 -0 -0)
(198844.074986715 -0 -0)
(201178.194678366 -0 -0)
(203502.771490033 -0 -0)
(205818.128686041 -0 -0)
(208124.590485045 -0 -0)
(210422.459869219 -0 -0)
(212712.041818802 -0 -0)
(214993.620848548 -0 -0)
(217267.484242932 -0 -0)
(219533.898161595 -0 -0)
(221793.131255518 -0 -0)
(224045.432714601 -0 -0)
(226291.055505254 -0 -0)
(228530.236012274 -0 -0)
(230763.216210263 -0 -0)
(232990.22311082 -0 -0)
(235211.489385228 -0 -0)
(237426.133947145 -0 -0)
(239632.362879367 -0 -0)
(241829.462402418 -0 -0)
(244017.66344692 -0 -0)
(246197.17948918 -0 -0)
(248368.226572732 -0 -0)
(250531.003895277 -0 -0)
(252685.714636994 -0 -0)
(254832.545422197 -0 -0)
(256971.687835956 -0 -0)
(259103.319185286 -0 -0)
(261227.622087997 -0 -0)
(263344.766103332 -0 -0)
(265454.926051826 -0 -0)
(267558.264718246 -0 -0)
(269654.950326692 -0 -0)
(271745.139835746 -0 -0)
(273828.99572047 -0 -0)
(275906.667959929 -0 -0)
(277978.310225937 -0 -0)
(280044.06237487 -0 -0)
(282104.070106908 -0 -0)
(284158.465727062 -0 -0)
(286207.38681548 -0 -0)
(288250.957559502 -0 -0)
(290289.30621036 -0 -0)
(292322.544087208 -0 -0)
(294350.78758554 -0 -0)
(296374.142707437 -0 -0)
(298392.71600064 -0 -0)
(300406.598974611 -0 -0)
(302415.888450522 -0 -0)
(304420.658802126 -0 -0)
(306420.992883835 -0 -0)
(308414.604755384 -0 -0)
)
;

boundaryField
{
    electrode
    {
        type            calculated;
        value           uniform (4.38331159784867 -0 -0);
    }
    ground
    {
        type            calculated;
        value           uniform (309408.918244476 -0 -0);
    }
    otherfaces
    {
        type            empty;
    }
}


// ************************************************************************* //
