/*--------------------------------*- C++ -*----------------------------------*\
| =========                 |                                                 |
| \\      /  F ield         | foam-extend: Open Source CFD                    |
|  \\    /   O peration     | Version:     4.0                                |
|   \\  /    A nd           | Web:         http://www.foam-extend.org         |
|    \\/     M anipulation  |                                                 |
\*---------------------------------------------------------------------------*/
FoamFile
{
    version     2.0;
    format      ascii;
    class       volVectorField;
    location    "6.9e-06";
    object      J_electron;
}
// * * * * * * * * * * * * * * * * * * * * * * * * * * * * * * * * * * * * * //

dimensions      [1 -1 -1 0 0 0 0];

internalField   nonuniform List<vector> 
300
(
(-1.32396163488981e+19 0 0)
(-1.35876893196301e+19 0 0)
(-1.60539861148689e+19 0 0)
(-1.55653881944392e+19 0 0)
(-1.55647388736825e+19 0 0)
(-1.5550701937216e+19 0 0)
(-1.54870921445598e+19 0 0)
(-1.54393525490907e+19 0 0)
(-1.53892025010415e+19 0 0)
(-1.53384147927769e+19 0 0)
(-1.528796516047e+19 0 0)
(-1.523737807443e+19 0 0)
(-1.51867445891773e+19 0 0)
(-1.51360669404761e+19 0 0)
(-1.50853317287427e+19 0 0)
(-1.50345382246827e+19 0 0)
(-1.49836824388292e+19 0 0)
(-1.49327604792679e+19 0 0)
(-1.48817687176735e+19 0 0)
(-1.48307034503161e+19 0 0)
(-1.47795610146982e+19 0 0)
(-1.47283377308653e+19 0 0)
(-1.46770299972012e+19 0 0)
(-1.46256341427373e+19 0 0)
(-1.45741465822656e+19 0 0)
(-1.45225637650264e+19 0 0)
(-1.4470882067163e+19 0 0)
(-1.44190980235676e+19 0 0)
(-1.43672081064639e+19 0 0)
(-1.43152087933132e+19 0 0)
(-1.42630966953864e+19 0 0)
(-1.42108683629635e+19 0 0)
(-1.41585203983079e+19 0 0)
(-1.41060494652696e+19 0 0)
(-1.40534522495723e+19 0 0)
(-1.40007254445043e+19 0 0)
(-1.39478658442612e+19 0 0)
(-1.38948702302454e+19 0 0)
(-1.38417354482095e+19 0 0)
(-1.37884583986667e+19 0 0)
(-1.37350360146052e+19 0 0)
(-1.36814652938678e+19 0 0)
(-1.36277432670091e+19 0 0)
(-1.35738670383523e+19 0 0)
(-1.35198337656865e+19 0 0)
(-1.34656406474132e+19 0 0)
(-1.34112849907839e+19 0 0)
(-1.33567640783359e+19 0 0)
(-1.33020753737346e+19 0 0)
(-1.32472163451868e+19 0 0)
(-1.31921844891673e+19 0 0)
(-1.31369774760793e+19 0 0)
(-1.30815929688368e+19 0 0)
(-1.30260287467406e+19 0 0)
(-1.29702826741405e+19 0 0)
(-1.29143526702588e+19 0 0)
(-1.28582367176321e+19 0 0)
(-1.28019329808217e+19 0 0)
(-1.27454396053476e+19 0 0)
(-1.26887548884909e+19 0 0)
(-1.2631877170522e+19 0 0)
(-1.25748049609608e+19 0 0)
(-1.25175367687012e+19 0 0)
(-1.2460071303846e+19 0 0)
(-1.24024072551169e+19 0 0)
(-1.23445435017619e+19 0 0)
(-1.22864790108197e+19 0 0)
(-1.22282127708652e+19 0 0)
(-1.21697439571916e+19 0 0)
(-1.21110718700879e+19 0 0)
(-1.20521958187333e+19 0 0)
(-1.19931152212474e+19 0 0)
(-1.19338293423875e+19 0 0)
(-1.18743377983245e+19 0 0)
(-1.18146415863372e+19 0 0)
(-1.17547428151797e+19 0 0)
(-1.16946395111149e+19 0 0)
(-1.16343156336299e+19 0 0)
(-1.15737532511434e+19 0 0)
(-1.15130070863582e+19 0 0)
(-1.14522592048274e+19 0 0)
(-1.13915214621678e+19 0 0)
(-1.13298571557538e+19 0 0)
(-1.12655010750115e+19 0 0)
(-1.11999035590967e+19 0 0)
(-1.11360694294854e+19 0 0)
(-1.10735375845063e+19 0 0)
(-1.10110486066857e+19 0 0)
(-1.09483757446538e+19 0 0)
(-1.08854566365917e+19 0 0)
(-1.08222745961221e+19 0 0)
(-1.07588270275455e+19 0 0)
(-1.06951148014849e+19 0 0)
(-1.06311397504073e+19 0 0)
(-1.05669038100767e+19 0 0)
(-1.05024088424862e+19 0 0)
(-1.04376565611128e+19 0 0)
(-1.03726485335378e+19 0 0)
(-1.03073861297399e+19 0 0)
(-1.02418705271284e+19 0 0)
(-1.01761026501441e+19 0 0)
(-1.01100831942876e+19 0 0)
(-1.0043812553912e+19 0 0)
(-9.97729086226144e+18 0 0)
(-9.91051787095926e+18 0 0)
(-9.84349299817421e+18 0 0)
(-9.77621525902026e+18 0 0)
(-9.70868322208737e+18 0 0)
(-9.64089496587783e+18 0 0)
(-9.57284808861837e+18 0 0)
(-9.50453953603987e+18 0 0)
(-9.43596569053207e+18 0 0)
(-9.3671221959679e+18 0 0)
(-9.29800397310761e+18 0 0)
(-9.22860507626157e+18 0 0)
(-9.15891869424183e+18 0 0)
(-9.08893695087267e+18 0 0)
(-9.01865094616764e+18 0 0)
(-8.94805051833215e+18 0 0)
(-8.87712421572982e+18 0 0)
(-8.80585911483865e+18 0 0)
(-8.73424070862334e+18 0 0)
(-8.66225272291852e+18 0 0)
(-8.5898769601963e+18 0 0)
(-8.51709311243203e+18 0 0)
(-8.44387843964928e+18 0 0)
(-8.37020772456779e+18 0 0)
(-8.29605277558322e+18 0 0)
(-8.22138232551925e+18 0 0)
(-8.14616150075245e+18 0 0)
(-8.07035163436384e+18 0 0)
(-7.99390967206196e+18 0 0)
(-7.91678779078161e+18 0 0)
(-7.83893284725404e+18 0 0)
(-7.76028571100879e+18 0 0)
(-7.68078069689431e+18 0 0)
(-7.6003446839931e+18 0 0)
(-7.51889625284398e+18 0 0)
(-7.43634481092755e+18 0 0)
(-7.35258940485193e+18 0 0)
(-7.26751722169591e+18 0 0)
(-7.18100266014527e+18 0 0)
(-7.09290553174812e+18 0 0)
(-7.0030690873036e+18 0 0)
(-6.91131514262284e+18 0 0)
(-6.8174503213982e+18 0 0)
(-6.72126030410416e+18 0 0)
(-6.62248030535575e+18 0 0)
(-6.52081519188771e+18 0 0)
(-6.41606520216014e+18 0 0)
(-6.30782755346789e+18 0 0)
(-6.19513307486224e+18 0 0)
(-6.07889967679747e+18 0 0)
(-5.95793242013303e+18 0 0)
(-5.82766710483426e+18 0 0)
(-5.6881748668496e+18 0 0)
(-5.54737672123947e+18 0 0)
(-5.39763951714016e+18 0 0)
(-5.24348704601355e+18 0 0)
(-5.07378036629622e+18 0 0)
(-4.89886033952584e+18 0 0)
(-4.69927819199434e+18 0 0)
(-4.46723077499886e+18 0 0)
(-4.16776000413421e+18 0 0)
(-3.44181285938266e+18 0 0)
(-2.60491436188028e+18 0 0)
(-2.38237370972792e+18 0 0)
(-2.35470514217393e+18 0 0)
(-2.09204640630178e+18 0 0)
(-1.54620967758961e+18 0 0)
(-8.85218339044983e+17 0 0)
(-2.95655651509535e+17 0 0)
(1.19905001847914e+17 0 0)
(-1.10822904116019e+17 0 0)
(-8.82137973911454e+17 0 0)
(-5.9137392377856e+17 0 0)
(-2.81142777170887e+17 0 0)
(-2.03456564602025e+18 0 0)
(-2.56075261172043e+18 0 0)
(-2.22709765545499e+18 0 0)
(-4.10167371819175e+18 0 0)
(-4.65552927424617e+18 0 0)
(-4.05640092598141e+18 0 0)
(-4.38215632653019e+18 0 0)
(-3.42575295104025e+18 0 0)
(-1.3459627229399e+18 0 0)
(4.11805480388657e+17 0 0)
(3.06070044007098e+18 0 0)
(6.21058523033659e+18 0 0)
(8.59186714176599e+18 0 0)
(1.06806797661566e+19 0 0)
(1.23740573987834e+19 0 0)
(1.26979838120614e+19 0 0)
(1.37151117374652e+19 0 0)
(1.09845411573204e+19 0 0)
(9.8550596559565e+18 0 0)
(7.93268660583268e+18 0 0)
(5.88992578252046e+18 0 0)
(8.77362654866797e+18 0 0)
(-4.26148952798681e+18 0 0)
(1.51864654803681e+18 0 0)
(7.18419863737467e+16 0 0)
(-2.16084228134318e+18 0 0)
(-2.15199698736754e+18 0 0)
(-2.08535197523413e+18 0 0)
(-2.16275619504784e+18 0 0)
(-2.41952408952575e+18 0 0)
(-2.69384438324458e+18 0 0)
(-2.87201671315363e+18 0 0)
(-2.96569456458548e+18 0 0)
(-2.99821818831282e+18 0 0)
(-2.99148800204473e+18 0 0)
(-2.97359063381054e+18 0 0)
(-2.93978079501485e+18 0 0)
(-2.90410045017629e+18 0 0)
(-2.86568355381344e+18 0 0)
(-2.82248631790122e+18 0 0)
(-2.77646541464402e+18 0 0)
(-2.73003088689888e+18 0 0)
(-2.68274108652553e+18 0 0)
(-2.63608288466182e+18 0 0)
(-2.58862914159719e+18 0 0)
(-2.54118633137048e+18 0 0)
(-2.49324689169418e+18 0 0)
(-2.44530005766715e+18 0 0)
(-2.39740199322178e+18 0 0)
(-2.34966237127107e+18 0 0)
(-2.30218769043202e+18 0 0)
(-2.25506684375141e+18 0 0)
(-2.20838094094892e+18 0 0)
(-2.16220368831852e+18 0 0)
(-2.11660154026472e+18 0 0)
(-2.07163417239655e+18 0 0)
(-2.02735418227567e+18 0 0)
(-1.9838077825225e+18 0 0)
(-1.941033881316e+18 0 0)
(-1.89906764932215e+18 0 0)
(-1.85792598031106e+18 0 0)
(-1.817662291365e+18 0 0)
(-1.77809721935727e+18 0 0)
(-1.7397564693999e+18 0 0)
(-1.70212640412206e+18 0 0)
(-1.66541088618781e+18 0 0)
(-1.62957688165777e+18 0 0)
(-1.59463980743608e+18 0 0)
(-1.56059172597036e+18 0 0)
(-1.52742492814882e+18 0 0)
(-1.49512799203e+18 0 0)
(-1.46368767221165e+18 0 0)
(-1.43308875988071e+18 0 0)
(-1.40331476685299e+18 0 0)
(-1.37434759313546e+18 0 0)
(-1.34616995764188e+18 0 0)
(-1.31875840097491e+18 0 0)
(-1.29212023097002e+18 0 0)
(-1.26613134935771e+18 0 0)
(-1.240916962998e+18 0 0)
(-1.21642482396719e+18 0 0)
(-1.19252248410846e+18 0 0)
(-1.16929698420595e+18 0 0)
(-1.14669258211424e+18 0 0)
(-1.12469531479247e+18 0 0)
(-1.10328363488158e+18 0 0)
(-1.08243865266222e+18 0 0)
(-1.06214278938847e+18 0 0)
(-1.04237738462425e+18 0 0)
(-1.02312203281875e+18 0 0)
(-1.00436069649551e+18 0 0)
(-9.8607221089105e+17 0 0)
(-9.68252519079248e+17 0 0)
(-9.50778282142007e+17 0 0)
(-9.33896891324076e+17 0 0)
(-9.17412662987871e+17 0 0)
(-9.01296160159513e+17 0 0)
(-8.85568890178451e+17 0 0)
(-8.70219333853547e+17 0 0)
(-8.55237823779827e+17 0 0)
(-8.40612942897451e+17 0 0)
(-8.26333817233427e+17 0 0)
(-8.12388904133212e+17 0 0)
(-7.9876924465471e+17 0 0)
(-7.85450846047435e+17 0 0)
(-7.72451206352284e+17 0 0)
(-7.59497445794037e+17 0 0)
(-7.47336079689428e+17 0 0)
(-7.35310715737772e+17 0 0)
(-7.23526207489671e+17 0 0)
(-7.11997538260237e+17 0 0)
(-7.00715353069139e+17 0 0)
(-6.89415620312953e+17 0 0)
(-6.79222725617737e+17 0 0)
(-6.68874715167329e+17 0 0)
(-6.58470525058715e+17 0 0)
(-6.48989581787969e+17 0 0)
(-6.39647521403518e+17 0 0)
(-6.30616558853226e+17 0 0)
(-6.22429031800847e+17 0 0)
(-6.15316484195672e+17 0 0)
(-6.08970501798118e+17 0 0)
(-5.98204456179885e+17 0 0)
)
;

boundaryField
{
    electrode
    {
        type            calculated;
        value           uniform (-1.5819492300463e+19 0 0);
    }
    ground
    {
        type            calculated;
        value           uniform (-5.95569881480098e+17 0 0);
    }
    otherfaces
    {
        type            empty;
    }
}


// ************************************************************************* //
