/*--------------------------------*- C++ -*----------------------------------*\
| =========                 |                                                 |
| \\      /  F ield         | foam-extend: Open Source CFD                    |
|  \\    /   O peration     | Version:     4.0                                |
|   \\  /    A nd           | Web:         http://www.foam-extend.org         |
|    \\/     M anipulation  |                                                 |
\*---------------------------------------------------------------------------*/
FoamFile
{
    version     2.0;
    format      ascii;
    class       volScalarField;
    location    "6.9e-06";
    object      N_electronMean;
}
// * * * * * * * * * * * * * * * * * * * * * * * * * * * * * * * * * * * * * //

dimensions      [0 0 0 1 0 0 0];

internalField   nonuniform List<scalar> 
300
(
6.07972627943858e+16
6.07957654221058e+16
6.07916578699332e+16
6.07844770891313e+16
6.07742621402658e+16
6.07609779770799e+16
6.07446057715455e+16
6.07251352972051e+16
6.07025566295414e+16
6.06768624090895e+16
6.06480472310011e+16
6.06161074351442e+16
6.05810409920623e+16
6.05428473553816e+16
6.0501527363926e+16
6.04570831441927e+16
6.04095180270364e+16
6.03588364761382e+16
6.0305044018419e+16
6.02481471781378e+16
6.01881534185771e+16
6.01250710867987e+16
6.00589093603078e+16
5.99896781924502e+16
5.99173882723928e+16
5.98420509936184e+16
5.97636783966749e+16
5.96822831122134e+16
5.95978783144174e+16
5.95104776584111e+16
5.94200952395377e+16
5.9326745581916e+16
5.92304435813804e+16
5.91312044140678e+16
5.90290434705282e+16
5.892397630284e+16
5.88160185725457e+16
5.87051860028764e+16
5.85914943265906e+16
5.84749592330179e+16
5.83555963244762e+16
5.82334210719191e+16
5.81084487623489e+16
5.79806944507214e+16
5.78501729183396e+16
5.7716898632331e+16
5.75808857078775e+16
5.74421478745597e+16
5.73006984503394e+16
5.71565503229576e+16
5.700971594923e+16
5.68602073552032e+16
5.67080361078658e+16
5.65532132629229e+16
5.63957492902218e+16
5.62356539970595e+16
5.60729364624168e+16
5.59076049853444e+16
5.57396670454131e+16
5.55691292644153e+16
5.53959973719816e+16
5.52202761736512e+16
5.50419695155164e+16
5.4861080276181e+16
5.46776103916437e+16
5.44915608218799e+16
5.43029314627727e+16
5.41117210936119e+16
5.39179273518305e+16
5.37215467075425e+16
5.35225744379673e+16
5.33210046163135e+16
5.31168301279941e+16
5.29100426575824e+16
5.27006326420755e+16
5.24885892734744e+16
5.22739005197759e+16
5.20565531020806e+16
5.1836532430231e+16
5.16138225634082e+16
5.13884062060814e+16
5.11602646415104e+16
5.09293776671904e+16
5.06957235731671e+16
5.04592791359836e+16
5.0220019640816e+16
4.99779188665066e+16
4.97329490322949e+16
4.94850807742062e+16
4.9234283145535e+16
4.89805235948099e+16
4.87237679828236e+16
4.84639806106309e+16
4.82011241448165e+16
4.79351595476335e+16
4.76660460620816e+16
4.73937411964875e+16
4.71182007098368e+16
4.68393785975865e+16
4.65572270886144e+16
4.62716966414701e+16
4.59827359195935e+16
4.56902917987264e+16
4.53943093946403e+16
4.5094732032017e+16
4.47915012265205e+16
4.44845566895481e+16
4.41738363206884e+16
4.38592762175759e+16
4.35408106593262e+16
4.32183720805891e+16
4.28918910694808e+16
4.25612963770766e+16
4.22265149445517e+16
4.18874719137384e+16
4.15440906380179e+16
4.11962927417222e+16
4.08439981507257e+16
4.04871250603478e+16
4.01255899126702e+16
3.97593074313421e+16
3.93881906755452e+16
3.90121510858965e+16
3.86310985406355e+16
3.82449413525546e+16
3.78535862244118e+16
3.74569382685841e+16
3.70549010534051e+16
3.66473766127591e+16
3.62342654662192e+16
3.58154666668513e+16
3.5390877848352e+16
3.49603952622989e+16
3.45239138131124e+16
3.40813271567495e+16
3.36325278174052e+16
3.31774072033536e+16
3.27158555785664e+16
3.22477620861296e+16
3.1773014808011e+16
3.12915007944795e+16
3.08031060875086e+16
3.03077157658881e+16
2.98052140039744e+16
2.92954841890266e+16
2.87784090242603e+16
2.82538705415086e+16
2.77217500981523e+16
2.71819283714041e+16
2.66342854187876e+16
2.60787008086235e+16
2.55150536635675e+16
2.49432227225636e+16
2.43630864745586e+16
2.37745231986287e+16
2.31774111197935e+16
2.25716286321256e+16
2.19570546777894e+16
2.13335687183902e+16
2.07010504123577e+16
2.00593767897256e+16
1.94084073830137e+16
1.87479614455559e+16
1.80778097881112e+16
1.73976747852902e+16
1.67072268951004e+16
1.60061055714549e+16
1.52939573130852e+16
1.4570450036425e+16
1.38352806860468e+16
1.3088221072382e+16
1.23292322586743e+16
1.15586233968949e+16
1.07772264133902e+16
9.98664301020052e+15
9.18945385756439e+15
8.38932434537014e+15
7.59121136297497e+15
6.8014884728988e+15
6.02776909396561e+15
5.27865493209564e+15
4.56335664596078e+15
3.89101010896917e+15
3.26995011044876e+15
2.70702810023772e+15
2.20693269477292e+15
1.7717904788732e+15
1.40109981786786e+15
1.09190383932574e+15
839255695980184
636851746518624
477686944482978
354663033278898
261069411056981
190529732311969
137824946213801
98835882026956.2
70205078345438.2
49245447585510.3
33952131891436.9
23081604764224.8
15498831423826.5
10261982095082.2
6801051346252.94
4653906017013.1
3396330514445.42
2682365046271.63
2275613969342.57
2036960672174.26
1890861705381.85
1797181345137.36
1734172735347.26
1689570059790.19
1656175794471.69
1629572845243.65
1606954226200
1586462679593.59
1566856085634.74
1547372451625.86
1527518516376.72
1506939759213.44
1485411405167.83
1462819932068.01
1439136265663.32
1414387424726.86
1388638421515.18
1361980382915.24
1334520265074.07
1306374255677.93
1277662801003.24
1248506890594.67
1219025945494.91
1189335042175.23
1159543721846.47
1129755152619.58
1100065013220.29
1070560942487.01
1041322853821.95
1012422126416.37
983922037778.489
955877271013.637
928333544520.698
901330654185.986
874903373047.354
849081101759.368
823887729411.161
799340913445.29
775453113986.748
752232144076.708
729681871793.536
707803686773.901
686596281221.191
666055374752.721
646173968308.312
626943000100.119
608352653109.026
590390300021.86
573039472220.714
556284675248.794
540111697529.075
524505077133.52
509448155706.537
494923966428.538
480915208658.589
467404580502.95
454375079883.7
441808977017.045
429688276466.312
417995493255.704
406713195112.889
395823548459.787
385308958511.377
375154330121.256
365347505692.085
355877255159.935
346733126104.037
337905287317.631
329384446263.239
321162087892.064
313230508793.761
305582700144.983
298211605842.026
291109423207.406
284257442847.058
277629224959.147
271215449793.966
265023400866.718
259062797194.329
253343934022.097
247854151372.624
242569083417.134
237501933199.081
232694707629.24
228147715318.924
223889184841.946
220000325045.383
216604860309.483
213958414785.302
212475997274.961
212903552370.951
)
;

boundaryField
{
    electrode
    {
        type            calculated;
        value           uniform 6.07972627945574e+16;
    }
    ground
    {
        type            calculated;
        value           uniform 214605095992.132;
    }
    otherfaces
    {
        type            empty;
    }
}


// ************************************************************************* //
