/*--------------------------------*- C++ -*----------------------------------*\
| =========                 |                                                 |
| \\      /  F ield         | foam-extend: Open Source CFD                    |
|  \\    /   O peration     | Version:     4.0                                |
|   \\  /    A nd           | Web:         http://www.foam-extend.org         |
|    \\/     M anipulation  |                                                 |
\*---------------------------------------------------------------------------*/
FoamFile
{
    version     2.0;
    format      ascii;
    class       volScalarField;
    location    "6.9e-06";
    object      PhiMean;
}
// * * * * * * * * * * * * * * * * * * * * * * * * * * * * * * * * * * * * * //

dimensions      [0 0 0 1 0 0 0];

internalField   nonuniform List<scalar> 
300
(
699.989315286847
699.988212756935
699.986838167051
699.985215851015
699.983355044217
699.981249176141
699.978897873795
699.976300110097
699.973454851719
699.97036131615
699.967018797803
699.963426699637
699.959584505656
699.955491772067
699.951148118702
699.94655321997
699.941706797534
699.936608615334
699.931258473371
699.925656201813
699.919801656801
699.913694715957
699.907335274369
699.900723240332
699.893858530739
699.886741075408
699.87937080785
699.871747661292
699.863871567503
699.855742449579
699.847360216413
699.838724772005
699.829836008453
699.820693793067
699.81129796504
699.801648331654
699.791744663745
699.781586693363
699.771174109183
699.760506551261
699.749583608324
699.73840481512
699.726969646031
699.715277511565
699.703327754465
699.691119646164
699.678652382873
699.665925082745
699.652936782731
699.639686438419
699.626172922552
699.612395032305
699.598351480433
699.584040895095
699.569461804921
699.554612632426
699.53949168303
699.524097139712
699.508427058088
699.492479360656
699.476251832122
699.459742114103
699.442947699151
699.425865924563
699.408493983561
699.390828918618
699.372867598907
699.354606714925
699.336042772871
699.31717208831
699.297990779557
699.27849476018
699.258679741953
699.238541231105
699.218074509196
699.197274632984
699.176136438008
699.154654525355
699.132823251741
699.110636704926
699.088088719907
699.065172845315
699.041882331184
699.0182101211
698.994148837885
698.969690787296
698.944827943901
698.919551929331
698.893853998592
698.867725034561
698.841155529945
698.814135571338
698.786654854651
698.758702636971
698.730267717155
698.701338420006
698.671902576475
698.641947505878
698.611459992351
698.580426267229
698.548831988088
698.516662210886
698.483901360734
698.450533228581
698.41654092305
698.381906842799
698.346612652703
698.310639239028
698.273966688586
698.236574241888
698.198440247779
698.159542123469
698.119856306943
698.07935821618
698.038022199513
697.995821472319
697.95272807741
697.908712828945
697.863745228449
697.817793387966
697.77082395248
697.722802035909
697.673691120215
697.623452983628
697.572047583904
697.5194329287
697.465564952772
697.410397401766
697.353881671957
697.295966657523
697.236598581741
697.175720816195
697.113273676231
697.049194195024
696.98341588693
696.915868518571
696.84647779021
696.775165004343
696.701846692392
696.62643423646
696.54883341699
696.468943919528
696.38665879069
696.301863823963
696.214436895839
696.124247227429
696.031154495137
695.935007858233
695.835644840327
695.732890068865
695.626553902128
695.516430774935
695.402297327414
695.283910300122
695.161004029263
695.033287537174
694.900441324757
694.762113308094
694.617914636887
694.467413464806
694.310129947252
694.145523577849
693.972969559111
693.791741594371
693.601002156046
693.399770564656
693.186904679613
692.961091422488
692.720806103522
692.464251629991
692.189304352861
691.893481765945
691.573939874184
691.227377764701
690.850047442447
690.437835448995
689.986069748042
689.489563014622
688.942920587177
688.340338246465
687.675710724755
686.943041039952
686.136381982104
685.249868833884
684.278361964297
683.217170105765
682.062179662201
680.810247350775
679.459033860386
678.00678147524
676.452513775803
674.795907548949
673.0371507375
671.176804883994
669.215633528054
667.154374597007
664.993645362115
662.733839347468
660.375329247735
657.918427651535
655.363434626046
652.710421338653
649.959432041774
647.110733356281
644.164869613739
641.122599043824
637.984811971454
634.752447332353
631.426435074587
628.007643512807
624.496889768712
620.894907114025
617.2024477351
613.420356647842
609.549547924252
605.59085249185
601.545053461932
597.412854213256
593.194921341505
588.891849938169
584.504207966611
580.032498841061
575.477207374141
570.838760214425
566.11757378909
561.314095923069
556.428934530588
551.46263948818
546.415759469234
541.288787848558
536.082222267222
530.796507418564
525.432097832692
519.989398944573
514.468830555019
508.870763299272
503.195585552798
497.443637031177
491.615278484707
485.710822352948
479.730605312719
473.674916307448
467.544080323986
461.338492822041
455.058613296992
448.704847260497
442.277630647564
435.777344893049
429.204404439369
422.559168465823
415.842031707369
409.053332598534
402.19344771321
395.262695998579
388.261437199172
381.189971872783
374.048644053578
366.837736895632
359.557579672871
352.208439033517
344.790630296239
337.304404416488
329.750063513054
322.127843438511
314.438033809844
306.680858979189
298.856612327974
290.965551550432
283.008030027954
274.984349682149
266.894882175449
258.739915663797
250.519810472965
242.234840627004
233.885355807093
225.47161644584
216.993962220105
208.452640507721
199.847981565237
191.180220229202
182.449677877931
173.656577241288
164.801231350409
155.883851241428
146.904742212129
137.86410411253
128.762235064957
119.599324080269
110.375662562513
101.091429002525
91.7469084802552
82.3422694796906
72.8777914748838
63.3536333305405
53.7700692434124
44.1272491175965
34.4254427623823
24.6647916535568
14.8455623713523
4.96788896438559
)
;

boundaryField
{
    electrode
    {
        type            calculated;
        value           uniform 699.999999999685;
    }
    ground
    {
        type            calculated;
        value           uniform 0;
    }
    otherfaces
    {
        type            empty;
    }
}


// ************************************************************************* //
