/*--------------------------------*- C++ -*----------------------------------*\
| =========                 |                                                 |
| \\      /  F ield         | foam-extend: Open Source CFD                    |
|  \\    /   O peration     | Version:     4.0                                |
|   \\  /    A nd           | Web:         http://www.foam-extend.org         |
|    \\/     M anipulation  |                                                 |
\*---------------------------------------------------------------------------*/
FoamFile
{
    version     2.0;
    format      ascii;
    class       volScalarField;
    location    "6.9e-06";
    object      Te;
}
// * * * * * * * * * * * * * * * * * * * * * * * * * * * * * * * * * * * * * //

dimensions      [0 0 0 1 0 0 0];

internalField   nonuniform List<scalar> 
300
(
40183.052767037
40183.3460163633
40183.5238052546
40183.6309076702
40183.7995102219
40184.0041433895
40184.2481548802
40184.5333310931
40184.8589340669
40185.2251165632
40185.6318891442
40186.0792407222
40186.5671860902
40187.0957402716
40187.6649241453
40188.2747646244
40188.9252941716
40189.6165509941
40190.3485790528
40191.1214280837
40191.9351536368
40192.7898171124
40193.6854858017
40194.6222329323
40195.6001377173
40196.6192854037
40197.6797673325
40198.7816809954
40199.9251300962
40201.1102246242
40202.337080921
40203.6058217555
40204.9165764076
40206.2694807498
40207.6646773352
40209.1023154932
40210.5825514256
40212.1055483093
40213.6714764056
40215.2805131715
40216.9328433782
40218.6286592346
40220.3681605169
40222.151554703
40223.9790571127
40225.8508910557
40227.7672879837
40229.7284876517
40231.7347382836
40233.7862967441
40235.8834287239
40238.0264089252
40240.215521258
40242.4510590464
40244.7333252396
40247.0626326344
40249.4393041087
40251.8636728579
40254.3360826464
40256.8568880704
40259.426454828
40262.0451600014
40264.7133923523
40267.431552627
40270.2000538775
40273.0193217952
40275.8897950534
40278.8119256735
40281.7861794009
40284.8130360915
40287.8929901245
40291.0265508341
40294.2142429707
40297.4566071654
40300.75420032
40304.1075959693
40307.5173850014
40310.9841773635
40314.5086036814
40318.091311434
40321.7329527909
40325.4341876736
40329.1957562014
40333.0185959115
40336.9036916395
40340.8517668833
40344.863414234
40348.9393615945
40353.0804603724
40357.2876088043
40361.5617393598
40365.90381594
40370.3148338803
40374.7958208745
40379.3478381818
40383.9719819689
40388.6693847398
40393.4412168447
40398.2886880724
40403.2130493308
40408.2155944211
40413.2976619125
40418.4606371226
40423.7059542111
40429.0350983982
40434.4496083136
40439.9510784838
40445.5411619742
40451.2215731923
40456.994090864
40462.8605612015
40468.8229012735
40474.8831025928
40481.043234943
40487.3054504609
40493.6719879953
40500.1451777704
40506.7274463727
40513.4213220926
40520.2294406568
40527.1545513779
40534.1995237657
40541.3673546393
40548.6611757909
40556.0842622473
40563.6400412007
40571.3321016589
40579.1642048971
40587.1402957949
40595.2645151463
40603.5412130502
40611.9749634946
40620.5705802769
40629.3331343964
40638.2679731057
40647.3807408014
40656.677401983
40666.1642665426
40675.848017655
40685.7357426109
40695.8349670148
40706.153692733
40716.7004400957
40727.4842950234
40738.5149620898
40749.802823322
40761.3590036314
40773.1954483302
40785.3250111524
40797.7615339336
40810.5199593308
40823.616548998
40837.0688388742
40850.8958060373
40865.1188363622
40879.761818849
40894.8495366586
40910.4089649942
40926.4701257475
40943.0670374022
40960.2373047231
40978.0240270785
40996.4800209169
41015.6722027707
41035.7526011977
41056.9032473063
41079.1109457033
41102.2899708095
41126.5367948191
41152.078915834
41179.1521338132
41207.9399167644
41238.578552879
41271.0621807533
41305.2613996423
41341.5696458289
41380.6884226445
41422.2986779358
41466.4081365508
41514.3594247964
41566.2220565937
41622.1454983792
41684.3968760927
41754.5878551904
41834.8221907546
41929.967615029
42045.4925966998
42188.8192840181
42372.2375841021
42611.240083108
42926.3900118113
43348.7104362808
43919.9358176897
44705.0481821539
45784.5911542931
47265.418928939
49345.5044285872
52287.8968318729
56626.3291512576
62290.8923854634
69511.1743121918
80969.7002869096
97118.8173795564
119133.23227214
149747.001216125
191132.834354571
243857.573888608
305514.367370725
371467.35253483
436899.004851944
498238.003640516
553696.438409148
602681.234604459
645416.070667512
682570.01103978
714810.154245185
742897.214498746
767555.176005866
789364.346469501
808791.47750728
826203.644453969
841907.897124153
856176.545875743
869232.361231973
881262.052876085
892415.892615758
902818.564111048
912573.096874122
921764.741710006
930464.140521765
938729.75330335
946609.802216929
954143.834843776
961363.992614759
968296.045449915
974960.25030382
981372.032339271
987542.719510427
993479.592050034
999189.195023789
1004669.2565452
1009914.8756571
1014925.41395473
1019695.13638345
1024216.59873569
1028480.25454057
1032474.95013001
1036188.05422839
1039605.62668328
1042712.55244136
1045492.66518612
1047928.86443001
1050003.18800471
1051696.98537927
1052990.39850491
1053863.96294516
1054286.76344025
1054260.25120168
1053750.76892896
1052737.90318907
1051198.8541339
1049111.32817403
1046452.590173
1043199.63323327
1039329.07420623
1034817.15157673
1029639.83262615
1023772.75459491
1017191.24808621
1009869.90608803
1001786.16230593
992913.090867782
983220.617950052
972683.754775636
961274.958943151
948964.00055098
935719.075147942
921506.624773397
906291.185185464
890035.146274956
872698.375306343
854238.41214943
834608.849729454
813770.19524562
791667.991965755
768238.385860615
743422.80835728
717144.156320507
689314.620176759
659851.060453422
628643.393213599
595557.407858726
560457.587175264
523154.543116062
483415.417134104
440953.080207143
395369.941567919
346101.400315373
292329.110683698
232980.5551211
)
;

boundaryField
{
    electrode
    {
        type            electronTemperature;
        seec            0.05;
        Tse             1000;
        Edepend         1;
        TFN             1000;
        field_emission  0;
        field_enhancement_factor 55;
        work_function   5;
        value           uniform 40183.052767037;
    }
    ground
    {
        type            electronTemperature;
        seec            0.05;
        Tse             1000;
        Edepend         1;
        TFN             1000;
        field_emission  0;
        field_enhancement_factor 55;
        work_function   5;
        value           uniform 199322.158390887;
    }
    otherfaces
    {
        type            empty;
    }
}


// ************************************************************************* //
