/*--------------------------------*- C++ -*----------------------------------*\
| =========                 |                                                 |
| \\      /  F ield         | foam-extend: Open Source CFD                    |
|  \\    /   O peration     | Version:     4.0                                |
|   \\  /    A nd           | Web:         http://www.foam-extend.org         |
|    \\/     M anipulation  |                                                 |
\*---------------------------------------------------------------------------*/
FoamFile
{
    version     2.0;
    format      ascii;
    class       volScalarField;
    location    "6.9e-06";
    object      TeMean;
}
// * * * * * * * * * * * * * * * * * * * * * * * * * * * * * * * * * * * * * //

dimensions      [0 0 0 1 0 0 0];

internalField   nonuniform List<scalar> 
300
(
35616.9301045256
35617.2230327601
35617.3542610592
35617.3586314173
35617.3844638997
35617.4107908045
35617.4405331504
35617.4764289149
35617.5184576305
35617.5672392767
35617.6232989344
35617.6871286498
35617.7592157566
35617.8400179137
35617.9299794017
35618.0295298005
35618.1390827064
35618.2590401736
35618.3897922884
35618.5317170031
35618.6851827193
35618.8505463475
35619.0281555274
35619.2183479697
35619.4214510862
35619.6377922001
35619.8676917913
35620.1114610541
35620.3694098801
35620.6418360975
35620.9290242916
35621.2312685558
35621.5488702462
35621.8821198153
35622.2313020321
35622.5966922831
35622.9785640381
35623.3771970868
35623.7928694889
35624.2258534236
35624.6764170519
35625.1448350651
35625.631381162
35626.1363254883
35626.6599379406
35627.2024879581
35627.7642441497
35628.3454734832
35628.9464383511
35629.567396539
35630.2086014804
35630.8703159346
35631.5528197549
35632.2563929457
35632.9813202055
35633.7278965313
35634.4964126234
35635.287156816
35636.1004271785
35636.9365257586
35637.7957572277
35638.6784373929
35639.5848708402
35640.5153605338
35641.470240655
35642.4498629653
35643.4545797208
35644.4847456547
35645.5407215735
35646.6228790439
35647.7315930788
35648.8672341987
35650.0301926789
35651.2208752541
35652.4396854735
35653.687026224
35654.9633258008
35656.2690451242
35657.6046423993
35658.970578928
35660.3673512762
35661.795472849
35663.2554537782
35664.7478071353
35666.2730570244
35667.8317610883
35669.4245091585
35671.0518980582
35672.7145329593
35674.4130454879
35676.1480736779
35677.9202730896
35679.7303620597
35681.5790655288
35683.4671193587
35685.3953027417
35687.3644119039
35689.3752705639
35691.4287256533
35693.5256561556
35695.6669878504
35697.8536521779
35700.0866113197
35702.3668945667
35704.6955633453
35707.0737113445
35709.502468563
35711.9830099018
35714.5165674608
35717.1044186483
35719.7478913534
35722.4483641402
35725.2072631564
35728.0260923092
35730.9064074465
35733.8498163706
35736.8579911428
35739.9326962741
35743.0757930325
35746.2891866995
35749.5748618803
35752.9349055463
35756.3714953703
35759.886927135
35763.4836271195
35767.1641210113
35770.9310340238
35774.7871401415
35778.7353674405
35782.7787714319
35786.9205630786
35791.1641420355
35795.5131035101
35799.9712003285
35804.5423876086
35809.2309123663
35814.0412892727
35818.9782910742
35824.046985306
35829.252770807
35834.6014069025
35840.0990365056
35845.7522198379
35851.5679672239
35857.5538236973
35863.7179523075
35870.069172667
35876.6170374107
35883.3718493598
35890.3447925392
35897.5481316054
35904.9952541975
35912.7008281672
35920.6810809583
35928.9538622236
35937.5389849302
35946.4584593933
35955.7372750038
35965.4039086258
35975.4928366435
35986.054486337
35997.1543743122
36008.8533287773
36021.2120024292
36034.3050276937
36048.1998087271
36062.9641045257
36078.7088392451
36095.5801021512
36113.7137691346
36133.1967785049
36154.1104390854
36176.5739310452
36200.6191516363
36226.3078671841
36253.9160416587
36283.5855819453
36315.4778365423
36350.3492277259
36389.2551359772
36433.7274045497
36486.7683609326
36552.9137631136
36638.787471604
36754.8996273533
36916.6357645888
37146.1775027566
37476.7016226404
37957.4349529331
38662.2948386449
39705.022349838
41264.6846840221
43630.041404298
47353.3456690065
52993.9751080819
60943.5219613113
72498.9347981551
88301.6348543696
109543.747492037
136602.315273424
169577.873907984
207881.877826078
250384.90317876
296150.578509577
344395.706352164
394254.982855579
444509.240059936
493542.274523119
539791.98173357
582172.967308196
620192.514331179
653859.684193713
683496.334183956
709575.295767755
732581.507867874
752971.142170153
771177.236528395
787567.665251641
802439.193685664
816035.174735733
828549.200497571
840140.116009278
850950.449508335
861097.714274784
870677.630638973
879768.576912694
888435.180801526
896730.471226881
904697.743327141
912372.154998903
919781.951799926
926949.472249524
933891.965878688
940622.198667559
947149.053788198
953478.05943531
959611.730666144
965549.932233694
971290.147664818
976827.931882367
982156.750259212
987267.858913242
992151.244249931
996795.984959124
1001190.04020416
1005320.34777046
1009172.68212143
1012731.98001013
1015982.56293991
1018907.88535104
1021491.25506797
1023715.68264601
1025563.49326641
1027016.64852894
1028056.52449067
1028664.20026637
1028815.70374429
1028501.18616722
1027700.98467634
1026392.81828945
1024556.81193164
1022172.9382119
1019221.13537125
1015681.13134922
1011532.40789838
1006754.50814136
1001326.31548949
995226.172262356
988432.70214403
980924.00579816
972677.477729978
963669.24930901
953875.267601902
943271.004836222
931830.035630837
919524.612385478
906325.513649611
892201.885007683
877121.059020515
861048.2804474
843946.579639676
825776.552682862
806499.850295687
786072.668054909
764441.003270523
741550.546286503
717339.902119588
691734.019515409
664657.731656869
636025.000506072
605727.834517131
573644.176705962
539637.815723565
503526.260168297
465088.732868843
424047.040676193
380009.594621409
332437.303614984
280543.117530263
223288.918879011
)
;

boundaryField
{
    electrode
    {
        type            calculated;
        value           uniform 35616.9301045273;
    }
    ground
    {
        type            calculated;
        value           uniform 190820.854369978;
    }
    otherfaces
    {
        type            empty;
    }
}


// ************************************************************************* //
