/*--------------------------------*- C++ -*----------------------------------*\
| =========                 |                                                 |
| \\      /  F ield         | foam-extend: Open Source CFD                    |
|  \\    /   O peration     | Version:     4.0                                |
|   \\  /    A nd           | Web:         http://www.foam-extend.org         |
|    \\/     M anipulation  |                                                 |
\*---------------------------------------------------------------------------*/
FoamFile
{
    version     2.0;
    format      ascii;
    class       volScalarField;
    location    "3.8e-06";
    object      Ar;
}
// * * * * * * * * * * * * * * * * * * * * * * * * * * * * * * * * * * * * * //

dimensions      [0 0 0 1 0 0 0];

internalField   nonuniform List<scalar> 
300
(
3.21880356442296e+22
3.21880356035942e+22
3.21880356301747e+22
3.21880356412813e+22
3.21880356595867e+22
3.21880356851993e+22
3.21880357164175e+22
3.21880357538198e+22
3.2188035797311e+22
3.21880358468406e+22
3.21880359024029e+22
3.21880359639763e+22
3.2188036031543e+22
3.21880361050868e+22
3.21880361845917e+22
3.21880362700421e+22
3.21880363614258e+22
3.21880364587264e+22
3.21880365619274e+22
3.21880366710137e+22
3.21880367859701e+22
3.21880369067817e+22
3.21880370334332e+22
3.21880371659096e+22
3.21880373042118e+22
3.21880374483123e+22
3.21880375981972e+22
3.21880377538548e+22
3.21880379152613e+22
3.21880380824021e+22
3.21880382552811e+22
3.21880384338775e+22
3.21880386181638e+22
3.21880388081256e+22
3.21880390037491e+22
3.21880392050212e+22
3.2188039411934e+22
3.21880396244737e+22
3.21880398426264e+22
3.21880400663825e+22
3.21880402957333e+22
3.21880405306688e+22
3.21880407711813e+22
3.21880410172644e+22
3.21880412689125e+22
3.21880415261215e+22
3.21880417888908e+22
3.218804205722e+22
3.21880423311197e+22
3.2188042610595e+22
3.21880428956636e+22
3.21880431863197e+22
3.21880434825768e+22
3.21880437844265e+22
3.2188044091872e+22
3.21880444049097e+22
3.21880447235508e+22
3.21880450478087e+22
3.21880453776989e+22
3.21880457132409e+22
3.21880460544525e+22
3.21880464013552e+22
3.21880467539784e+22
3.21880471123682e+22
3.21880474765506e+22
3.21880478465323e+22
3.21880482223457e+22
3.21880486040258e+22
3.218804899161e+22
3.21880493851381e+22
3.21880497846549e+22
3.21880501902134e+22
3.21880506018635e+22
3.21880510196485e+22
3.21880514436353e+22
3.21880518738783e+22
3.21880523104293e+22
3.21880527533527e+22
3.21880532026913e+22
3.2188053658541e+22
3.21880541209346e+22
3.21880545899398e+22
3.21880550656318e+22
3.21880555480826e+22
3.21880560373834e+22
3.21880565336051e+22
3.2188057036816e+22
3.2188057547095e+22
3.21880580645384e+22
3.21880585892256e+22
3.21880591212516e+22
3.21880596607527e+22
3.21880602077663e+22
3.21880607623853e+22
3.21880613247056e+22
3.21880618948248e+22
3.2188062472842e+22
3.21880630588576e+22
3.21880636529838e+22
3.21880642553226e+22
3.21880648659707e+22
3.21880654850304e+22
3.21880661126376e+22
3.21880667488672e+22
3.21880673938332e+22
3.21880680476494e+22
3.2188068710405e+22
3.21880693822237e+22
3.21880700631983e+22
3.21880707534259e+22
3.218807145301e+22
3.2188072162053e+22
3.21880728806617e+22
3.21880736089355e+22
3.21880743469717e+22
3.21880750948812e+22
3.21880758527737e+22
3.21880766207122e+22
3.21880773987813e+22
3.21880781870709e+22
3.2188078985686e+22
3.21880797946887e+22
3.21880806141787e+22
3.21880814442126e+22
3.2188082284841e+22
3.21880831361235e+22
3.21880839981408e+22
3.21880848709224e+22
3.21880857545205e+22
3.21880866489727e+22
3.21880875543241e+22
3.21880884706012e+22
3.21880893978253e+22
3.21880903360314e+22
3.21880912852577e+22
3.21880922454793e+22
3.21880932166784e+22
3.21880941988579e+22
3.21880951920058e+22
3.21880961960732e+22
3.21880972110272e+22
3.21880982368257e+22
3.21880992734322e+22
3.21881003207995e+22
3.2188101378862e+22
3.2188102447498e+22
3.21881035266085e+22
3.21881046160827e+22
3.21881057158104e+22
3.21881068256845e+22
3.21881079455107e+22
3.21881090751233e+22
3.21881102143862e+22
3.21881113630579e+22
3.21881125209104e+22
3.21881136878356e+22
3.21881148629914e+22
3.2188116047743e+22
3.21881172380366e+22
3.21881184400402e+22
3.21881196457899e+22
3.21881208462181e+22
3.21881220558818e+22
3.21881232771868e+22
3.21881245040055e+22
3.21881257371937e+22
3.21881269674789e+22
3.21881281999618e+22
3.21881294295852e+22
3.21881306530263e+22
3.21881318871392e+22
3.21881331400406e+22
3.21881343493944e+22
3.21881355366384e+22
3.21881367677039e+22
3.21881379580042e+22
3.21881390814832e+22
3.21881402292455e+22
3.21881413324877e+22
3.21881423547278e+22
3.21881433712626e+22
3.2188144326995e+22
3.21881451896185e+22
3.21881460081644e+22
3.21881467817603e+22
3.21881474367931e+22
3.21881480282906e+22
3.2188148579776e+22
3.21881490570181e+22
3.2188149438569e+22
3.21881497712561e+22
3.21881500749795e+22
3.21881503357347e+22
3.21881505180836e+22
3.21881506443263e+22
3.21881506638966e+22
3.21881506861591e+22
3.21881506845346e+22
3.2188150682879e+22
3.21881506842211e+22
3.21881506841171e+22
3.21881507033072e+22
3.21881507448351e+22
3.21881508004017e+22
3.21881508648889e+22
3.21881509277668e+22
3.21881509850879e+22
3.21881510390536e+22
3.21881510859815e+22
3.21881511297749e+22
3.21881511672464e+22
3.21881512077168e+22
3.2188151259037e+22
3.21881513076062e+22
3.21881513513464e+22
3.21881513928522e+22
3.21881514299988e+22
3.21881514654498e+22
3.21881514969466e+22
3.21881515273413e+22
3.21881515541689e+22
3.21881515803763e+22
3.21881516033304e+22
3.21881516262296e+22
3.2188151653366e+22
3.21881516869832e+22
3.21881517174498e+22
3.21881517481392e+22
3.21881517757624e+22
3.21881518038497e+22
3.21881518288888e+22
3.21881518546481e+22
3.21881518773683e+22
3.21881519010467e+22
3.21881519217168e+22
3.21881519435497e+22
3.21881519623681e+22
3.21881519825236e+22
3.21881519995968e+22
3.21881520181571e+22
3.21881520335618e+22
3.21881520506035e+22
3.21881520697829e+22
3.21881520943113e+22
3.21881521157328e+22
3.21881521388056e+22
3.21881521587539e+22
3.21881521804419e+22
3.21881521990167e+22
3.21881522193951e+22
3.21881522367105e+22
3.21881522558931e+22
3.21881522720453e+22
3.21881522901984e+22
3.21881523052695e+22
3.21881523224767e+22
3.21881523365603e+22
3.21881523528497e+22
3.21881523659735e+22
3.2188152381388e+22
3.21881523935142e+22
3.21881524080504e+22
3.21881524192331e+22
3.21881524329014e+22
3.21881524431539e+22
3.21881524560103e+22
3.2188152465413e+22
3.21881524789735e+22
3.21881524933265e+22
3.21881525105203e+22
3.21881525240647e+22
3.21881525405273e+22
3.21881525532849e+22
3.21881525690771e+22
3.21881525811051e+22
3.21881525962781e+22
3.21881526075885e+22
3.21881526221539e+22
3.218815263277e+22
3.21881526467626e+22
3.21881526567219e+22
3.21881526701823e+22
3.21881526796376e+22
3.21881526926833e+22
3.21881527015526e+22
3.21881527140927e+22
3.21881527223959e+22
3.21881527344574e+22
3.21881527422191e+22
3.21881527540728e+22
3.21881527616053e+22
3.21881527731042e+22
3.21881527801437e+22
3.21881527915808e+22
3.21881527985359e+22
3.2188152809817e+22
3.2188152816793e+22
3.21881528283813e+22
3.21881528357147e+22
3.21881528503863e+22
)
;

boundaryField
{
    electrode
    {
        type            zeroGradient;
    }
    ground
    {
        type            zeroGradient;
    }
    otherfaces
    {
        type            empty;
    }
}


// ************************************************************************* //
