/*--------------------------------*- C++ -*----------------------------------*\
| =========                 |                                                 |
| \\      /  F ield         | foam-extend: Open Source CFD                    |
|  \\    /   O peration     | Version:     4.0                                |
|   \\  /    A nd           | Web:         http://www.foam-extend.org         |
|    \\/     M anipulation  |                                                 |
\*---------------------------------------------------------------------------*/
FoamFile
{
    version     2.0;
    format      ascii;
    class       volScalarField;
    location    "3.8e-06";
    object      Arm;
}
// * * * * * * * * * * * * * * * * * * * * * * * * * * * * * * * * * * * * * //

dimensions      [0 0 0 1 0 0 0];

internalField   nonuniform List<scalar> 
300
(
3.57414411970176e+15
3.57602194554294e+15
3.57797096632973e+15
3.57927689266564e+15
3.58009309670888e+15
3.58047160447674e+15
3.5804566251108e+15
3.58007959378383e+15
3.5793661679661e+15
3.57833833308319e+15
3.57701186093214e+15
3.57540083782319e+15
3.57351731672565e+15
3.57137190012532e+15
3.56897404494929e+15
3.56633229767268e+15
3.56345147723048e+15
3.56034017268581e+15
3.55700672649839e+15
3.55345761724923e+15
3.54969904640008e+15
3.54573693564663e+15
3.54157697501568e+15
3.53722462109958e+15
3.53266917253798e+15
3.5279283916486e+15
3.52300597460262e+15
3.51790392903895e+15
3.51263585947455e+15
3.50720665291539e+15
3.5016025248214e+15
3.49583486039327e+15
3.48992177777312e+15
3.48386865281495e+15
3.47768057177764e+15
3.47136233877576e+15
3.46491412124382e+15
3.45834243882702e+15
3.45165436296778e+15
3.44485342703121e+15
3.43794313363494e+15
3.43092876088419e+15
3.42381418897901e+15
3.41660310952293e+15
3.40929902274056e+15
3.40190519357934e+15
3.39442256502063e+15
3.38685259106555e+15
3.37918749906889e+15
3.37142588936816e+15
3.3635551370769e+15
3.35558777303689e+15
3.3475183794307e+15
3.33936469491957e+15
3.33113484225412e+15
3.32284520517159e+15
3.31449907702239e+15
3.30609937395684e+15
3.2976486691166e+15
3.28914737683863e+15
3.28059981624201e+15
3.27200810041804e+15
3.26336888991492e+15
3.25466419942804e+15
3.24589800744756e+15
3.23709592748743e+15
3.22826003873164e+15
3.21939218092493e+15
3.21049393989024e+15
3.20156667639581e+15
3.19260954743433e+15
3.18361539435612e+15
3.17458267817672e+15
3.16551886358153e+15
3.15641038561322e+15
3.14725830888801e+15
3.13806898690827e+15
3.12883826762672e+15
3.11958617836234e+15
3.11028208490542e+15
3.10096063652574e+15
3.09162394207084e+15
3.08226891066894e+15
3.07289781723072e+15
3.06349581673656e+15
3.05407066300971e+15
3.04463407154082e+15
3.03518636319627e+15
3.025715606857e+15
3.01622957838843e+15
3.00672227925819e+15
2.99714856438235e+15
2.98756380632079e+15
2.97796960981303e+15
2.96836600278091e+15
2.95875301150478e+15
2.94913041766732e+15
2.93949779532702e+15
2.9298441944441e+15
2.92016955690404e+15
2.91048015324472e+15
2.90077728156659e+15
2.89102911516877e+15
2.88126494621785e+15
2.87147553025622e+15
2.8616515060934e+15
2.85180793569759e+15
2.84192516335635e+15
2.83201363646286e+15
2.82207880825524e+15
2.81211880409544e+15
2.80213134079138e+15
2.79210867056486e+15
2.78204858480752e+15
2.77194887302823e+15
2.76179187365734e+15
2.75155867046513e+15
2.74127410791061e+15
2.73093904947402e+15
2.72054542158015e+15
2.71006679765491e+15
2.69951619362649e+15
2.68886456726439e+15
2.67812233811137e+15
2.66730094684568e+15
2.65639820078244e+15
2.64538594134928e+15
2.63428165226245e+15
2.62307448139679e+15
2.61176240242124e+15
2.60032975535679e+15
2.58877267870948e+15
2.57708618768762e+15
2.56524418819588e+15
2.55321017303138e+15
2.54100304357019e+15
2.52862673236383e+15
2.51605617313609e+15
2.50327249324236e+15
2.49028484864876e+15
2.4770772363866e+15
2.46363301101681e+15
2.44992001717061e+15
2.43590615123744e+15
2.42156677614581e+15
2.40692174385897e+15
2.39195616530134e+15
2.37665368485347e+15
2.36098376790382e+15
2.34489747213418e+15
2.32840729166731e+15
2.31148847847964e+15
2.29407870015283e+15
2.27617682005012e+15
2.2577645911387e+15
2.23879225925062e+15
2.21921655009358e+15
2.19903695215872e+15
2.17823432456758e+15
2.15676368404443e+15
2.13458941691404e+15
2.1116964605103e+15
2.08804651380514e+15
2.06365217021768e+15
2.03850044553143e+15
2.01253669380972e+15
1.98578177003103e+15
1.95828026884892e+15
1.93006113929877e+15
1.90116634162205e+15
1.87166451823158e+15
1.84158893415025e+15
1.81103195901892e+15
1.78016514108583e+15
1.74918245832557e+15
1.71825373655746e+15
1.68755815548831e+15
1.65729470041882e+15
1.62770225265333e+15
1.59893632483494e+15
1.57115119078615e+15
1.54449391994755e+15
1.51904579925118e+15
1.49492167996426e+15
1.47212133056427e+15
1.45055424826619e+15
1.43026004317873e+15
1.41118735464645e+15
1.39324814304725e+15
1.37635644734793e+15
1.36040351742684e+15
1.34540001551721e+15
1.33172058906118e+15
1.32410185126213e+15
1.34797154257079e+15
1.4082995707044e+15
1.47471525092738e+15
1.51348822418235e+15
1.52406480483754e+15
1.51285813000334e+15
1.48803290891801e+15
1.45879507238571e+15
1.43175672174e+15
1.40972268177042e+15
1.39294224541451e+15
1.38057102585674e+15
1.37103159511886e+15
1.36382556974342e+15
1.35838574455368e+15
1.35396003960217e+15
1.34990292023581e+15
1.34595339196343e+15
1.34198994937428e+15
1.33797129078874e+15
1.3339374994529e+15
1.32978605694876e+15
1.32544107635045e+15
1.32090123372848e+15
1.31613259777165e+15
1.31112723263931e+15
1.30589905010776e+15
1.30044099330619e+15
1.29472622124906e+15
1.28864489721227e+15
1.2822865546377e+15
1.27580921853522e+15
1.26924912030602e+15
1.26261980810972e+15
1.25594894239951e+15
1.24926883000964e+15
1.24258799602271e+15
1.23592975942769e+15
1.22932124946589e+15
1.22277176600232e+15
1.21629306124541e+15
1.20991254772157e+15
1.20362358467673e+15
1.19745311600417e+15
1.19139641212846e+15
1.18546929582765e+15
1.17967634170039e+15
1.1740128704946e+15
1.16849589759952e+15
1.16311268405518e+15
1.15787001554006e+15
1.15278323900363e+15
1.14783768114885e+15
1.14303958874438e+15
1.13838956071632e+15
1.1338774664056e+15
1.12950821291335e+15
1.12527563545637e+15
1.12117487276585e+15
1.11720916629337e+15
1.11337002486166e+15
1.10965501632778e+15
1.1060626709692e+15
1.10257748102199e+15
1.09920829657922e+15
1.09594738545182e+15
1.09280069369801e+15
1.08975580660988e+15
1.08681583923289e+15
1.08397284825477e+15
1.08122494006224e+15
1.07856876445608e+15
1.07599710357305e+15
1.07350734212003e+15
1.07108953175357e+15
1.06875039429594e+15
1.06648301714357e+15
1.0642935140538e+15
1.06216942783961e+15
1.06011710369672e+15
1.05812495895363e+15
1.0561920196856e+15
1.05431697403377e+15
1.05250019023825e+15
1.05074396111115e+15
1.04904216034238e+15
1.04739385195233e+15
1.04576204133039e+15
1.04406953099849e+15
1.04239705052122e+15
1.04077054530964e+15
1.03918058328213e+15
1.03763455239081e+15
1.03613332290576e+15
1.03466595944761e+15
1.0330115414952e+15
1.03135024153366e+15
1.02973275012235e+15
1.02816011836999e+15
1.02630796077293e+15
1.02446314651465e+15
1.02251970419606e+15
1.02032894120207e+15
1.01788226335714e+15
1.01508021528902e+15
1.01168925176115e+15
)
;

boundaryField
{
    electrode
    {
        type            zeroGradient;
    }
    ground
    {
        type            zeroGradient;
    }
    otherfaces
    {
        type            empty;
    }
}


// ************************************************************************* //
