/*--------------------------------*- C++ -*----------------------------------*\
| =========                 |                                                 |
| \\      /  F ield         | foam-extend: Open Source CFD                    |
|  \\    /   O peration     | Version:     4.0                                |
|   \\  /    A nd           | Web:         http://www.foam-extend.org         |
|    \\/     M anipulation  |                                                 |
\*---------------------------------------------------------------------------*/
FoamFile
{
    version     2.0;
    format      ascii;
    class       volScalarField;
    location    "3.8e-06";
    object      Arp1;
}
// * * * * * * * * * * * * * * * * * * * * * * * * * * * * * * * * * * * * * //

dimensions      [0 0 0 1 0 0 0];

internalField   nonuniform List<scalar> 
300
(
5.88753440069109e+16
5.89157004167763e+16
5.88913141014074e+16
5.88859529562104e+16
5.88767339472286e+16
5.886351608963e+16
5.88479597468404e+16
5.88294522692685e+16
5.88080623590007e+16
5.87838165649655e+16
5.87567026859854e+16
5.87267258837805e+16
5.86938891620679e+16
5.86581952225103e+16
5.86196474164538e+16
5.85782492591291e+16
5.85340044876011e+16
5.84869170608546e+16
5.84369911318752e+16
5.83842310337318e+16
5.83286412604469e+16
5.82702264491236e+16
5.82089913596259e+16
5.81449408537861e+16
5.80780798757096e+16
5.80084134276927e+16
5.79359465489409e+16
5.78606842915149e+16
5.77826316961197e+16
5.77017937670749e+16
5.76181754468342e+16
5.75317815898472e+16
5.74426169349222e+16
5.73506860791656e+16
5.72559934479221e+16
5.71585432680037e+16
5.70583395374142e+16
5.69553859961894e+16
5.68496860962446e+16
5.67412429706942e+16
5.6630059403883e+16
5.65161377991189e+16
5.63994801477708e+16
5.6280087998573e+16
5.61579624238966e+16
5.60331039895558e+16
5.59055127221849e+16
5.57751880769326e+16
5.56421289058162e+16
5.55063334261151e+16
5.53677991877743e+16
5.52265230426668e+16
5.50825011132314e+16
5.49357287611028e+16
5.47862005569068e+16
5.4633910250533e+16
5.44788507412253e+16
5.4321014048561e+16
5.41603912852162e+16
5.39969726285092e+16
5.38307472940347e+16
5.36617035114455e+16
5.34898284971238e+16
5.33151084336111e+16
5.3137528445146e+16
5.29570725774664e+16
5.27737237779241e+16
5.25874638772999e+16
5.23982735724159e+16
5.22061324120577e+16
5.20110187820104e+16
5.18129098952468e+16
5.16117817802821e+16
5.14076092751944e+16
5.1200366020991e+16
5.09900244588511e+16
5.07765558295874e+16
5.05599301753222e+16
5.03401163438907e+16
5.01170819983545e+16
4.98907936260807e+16
4.96612165555431e+16
4.94283149739274e+16
4.91920519485473e+16
4.89523894484958e+16
4.87092883559458e+16
4.84627090079331e+16
4.82126134895145e+16
4.79589599374884e+16
4.77017049107356e+16
4.74408040483352e+16
4.71762121248318e+16
4.69078830871131e+16
4.66357700938985e+16
4.63598255569863e+16
4.60800011935256e+16
4.57962480799213e+16
4.55085167127006e+16
4.5216757072933e+16
4.49209186960483e+16
4.46209507454137e+16
4.43168020889641e+16
4.40084213814766e+16
4.36957571481758e+16
4.33787578751561e+16
4.30573721001262e+16
4.27315485099238e+16
4.24012360396577e+16
4.2066383976368e+16
4.17269420666482e+16
4.13828606268735e+16
4.10340906578531e+16
4.06805839633995e+16
4.03222932706787e+16
3.9959172355686e+16
3.9591176171983e+16
3.9218260982409e+16
3.88403844919658e+16
3.84575059912608e+16
3.80695864919124e+16
3.76765888764966e+16
3.72784780452391e+16
3.68752210669398e+16
3.64667873352611e+16
3.60531487270879e+16
3.56342797648879e+16
3.52101577839836e+16
3.47807631002689e+16
3.43460791900301e+16
3.39060928653506e+16
3.3460794463615e+16
3.30101780384412e+16
3.25542415595929e+16
3.20929871230933e+16
3.16264211680043e+16
3.11545547106974e+16
3.06774035873267e+16
3.01949887204204e+16
2.9707336399996e+16
2.92144785958654e+16
2.87164532963887e+16
2.82133048877722e+16
2.77050845754956e+16
2.71918508653568e+16
2.66736701069287e+16
2.61506171252228e+16
2.56227759387448e+16
2.50902406086656e+16
2.45531162059096e+16
2.40115207152845e+16
2.34655955541591e+16
2.29154889877876e+16
2.23613560628282e+16
2.18033947485361e+16
2.1241805713913e+16
2.06766996518365e+16
2.01089160674658e+16
1.95370411012399e+16
1.89651041914354e+16
1.83869460623012e+16
1.78105563629083e+16
1.72451748620603e+16
1.6676649149797e+16
1.61029306987455e+16
1.55304034593575e+16
1.49584283979379e+16
1.43964219408595e+16
1.38394515969781e+16
1.32927615194804e+16
1.27597790374215e+16
1.22234744680826e+16
1.167502306289e+16
1.11755099599252e+16
1.07020063747714e+16
1.01864878428051e+16
9.71040564723635e+15
9.29605167249779e+15
8.84799441815534e+15
8.42976427330481e+15
8.07211572440015e+15
7.69378723870696e+15
7.343723602853e+15
7.04844163235714e+15
6.75383520258288e+15
6.4567429313374e+15
6.22812492452785e+15
6.01176480683393e+15
5.78458735397077e+15
5.5827602015866e+15
5.43097030535685e+15
5.28691916236004e+15
5.13569319301299e+15
4.99588715891452e+15
4.90341092891782e+15
4.81554017083312e+15
4.782523398575e+15
4.7300670211697e+15
4.71995028809383e+15
4.73043806621428e+15
4.75449865183824e+15
4.78953411028604e+15
4.80631335460743e+15
4.79598073211926e+15
4.76486384478919e+15
4.71852124773513e+15
4.66878627078234e+15
4.62144977166996e+15
4.57495273222402e+15
4.53362276705799e+15
4.49435117004294e+15
4.46099493788088e+15
4.4245087319891e+15
4.37717180174334e+15
4.33263205281236e+15
4.29293113516165e+15
4.25557923082444e+15
4.22277882841746e+15
4.19186872523279e+15
4.16514219313847e+15
4.13975556530245e+15
4.1181602857876e+15
4.09741677882784e+15
4.08018512188669e+15
4.06337677132144e+15
4.04260990061485e+15
4.01548290595705e+15
3.99159090661473e+15
3.96754677046567e+15
3.94661165133556e+15
3.92522278979191e+15
3.90688389352365e+15
3.8878031706471e+15
3.87171243463028e+15
3.85460506908668e+15
3.84043558248375e+15
3.82500549292434e+15
3.81249868459891e+15
3.79853621601261e+15
3.78754245320538e+15
3.77493184230038e+15
3.76534250134885e+15
3.75398646365072e+15
3.74034595164999e+15
3.72122242613896e+15
3.70506476415255e+15
3.6870995495934e+15
3.6721172075716e+15
3.65524713996216e+15
3.64134179538841e+15
3.62549440746771e+15
3.61256665861186e+15
3.59763453729268e+15
3.58560048463298e+15
3.57142982859448e+15
3.56021423312617e+15
3.546737817709e+15
3.53626175060406e+15
3.52347230143401e+15
3.51373200907284e+15
3.50159213202761e+15
3.49262596404059e+15
3.48114742452642e+15
3.47291709590633e+15
3.46210372132125e+15
3.45461064074224e+15
3.44442146129522e+15
3.43760116224684e+15
3.426540767486e+15
3.41461560153177e+15
3.39977063785563e+15
3.38850288123579e+15
3.37423886754327e+15
3.36361407657255e+15
3.34988261049878e+15
3.33985484018501e+15
3.32662268330397e+15
3.31719486307651e+15
3.30445362695961e+15
3.29560079050251e+15
3.28331690902475e+15
3.27501252138579e+15
3.26319023858538e+15
3.25543361691294e+15
3.24406631116475e+15
3.23682929544329e+15
3.22588476481087e+15
3.21913304339316e+15
3.20857790827606e+15
3.20228854193824e+15
3.19209409578579e+15
3.18622760845201e+15
3.17635059364336e+15
3.17088798734856e+15
3.16130703400364e+15
3.15620041241285e+15
3.14686612092785e+15
3.14208374219874e+15
3.13294423222088e+15
3.12841368459138e+15
3.11713190523804e+15
)
;

boundaryField
{
    electrode
    {
        type            driftDiffusionPositiveIonDensity;
        seec            0;
        fieldName       Arp1;
        value           uniform 5.87044552404913e+16;
    }
    ground
    {
        type            driftDiffusionPositiveIonDensity;
        seec            0;
        fieldName       Arp1;
        value           uniform 3.11713190523804e+15;
    }
    otherfaces
    {
        type            empty;
    }
}


// ************************************************************************* //
