/*--------------------------------*- C++ -*----------------------------------*\
| =========                 |                                                 |
| \\      /  F ield         | foam-extend: Open Source CFD                    |
|  \\    /   O peration     | Version:     4.0                                |
|   \\  /    A nd           | Web:         http://www.foam-extend.org         |
|    \\/     M anipulation  |                                                 |
\*---------------------------------------------------------------------------*/
FoamFile
{
    version     2.0;
    format      ascii;
    class       volVectorField;
    location    "3.8e-06";
    object      J_Arp1;
}
// * * * * * * * * * * * * * * * * * * * * * * * * * * * * * * * * * * * * * //

dimensions      [1 -1 -1 0 0 0 0];

internalField   nonuniform List<vector> 
300
(
(1.85844840832938e+16 -0 -0)
(6.64330457144786e+16 -0 -0)
(1.18491263346239e+17 -0 -0)
(1.64836441488752e+17 -0 -0)
(2.11678362262765e+17 -0 -0)
(2.58805656761287e+17 -0 -0)
(3.05754314904373e+17 -0 -0)
(3.52692541937088e+17 -0 -0)
(3.99591698935558e+17 -0 -0)
(4.46440686297213e+17 -0 -0)
(4.93238831480242e+17 -0 -0)
(5.39980743061836e+17 -0 -0)
(5.86662042982371e+17 -0 -0)
(6.33278696869991e+17 -0 -0)
(6.79826782575904e+17 -0 -0)
(7.26302640814115e+17 -0 -0)
(7.72702864365579e+17 -0 -0)
(8.190243081754e+17 -0 -0)
(8.65264105895891e+17 -0 -0)
(9.11419682455882e+17 -0 -0)
(9.57488766863901e+17 -0 -0)
(1.00346940584163e+18 -0 -0)
(1.04935997609033e+18 -0 -0)
(1.09515919704269e+18 -0 -0)
(1.14086614316649e+18 -0 -0)
(1.18648025615305e+18 -0 -0)
(1.23200135630951e+18 -0 -0)
(1.27742965449806e+18 -0 -0)
(1.32276576278103e+18 -0 -0)
(1.36801070544692e+18 -0 -0)
(1.41316592913988e+18 -0 -0)
(1.45823331282604e+18 -0 -0)
(1.50321517699716e+18 -0 -0)
(1.54811429295044e+18 -0 -0)
(1.59293389090536e+18 -0 -0)
(1.63767766788787e+18 -0 -0)
(1.68234979506393e+18 -0 -0)
(1.72695492423793e+18 -0 -0)
(1.77149819400045e+18 -0 -0)
(1.81598523495464e+18 -0 -0)
(1.86042217452946e+18 -0 -0)
(1.90481564058745e+18 -0 -0)
(1.94917276460661e+18 -0 -0)
(1.99350118413922e+18 -0 -0)
(2.0378090441579e+18 -0 -0)
(2.08210499758533e+18 -0 -0)
(2.12639820527443e+18 -0 -0)
(2.1706983344327e+18 -0 -0)
(2.2150155567657e+18 -0 -0)
(2.25936054497569e+18 -0 -0)
(2.30374446886562e+18 -0 -0)
(2.34817898985094e+18 -0 -0)
(2.39267625455141e+18 -0 -0)
(2.43724888765832e+18 -0 -0)
(2.48190998286799e+18 -0 -0)
(2.52667309327019e+18 -0 -0)
(2.57155222027695e+18 -0 -0)
(2.61656180138274e+18 -0 -0)
(2.66171669647659e+18 -0 -0)
(2.70703217303776e+18 -0 -0)
(2.75252388998552e+18 -0 -0)
(2.7982078800857e+18 -0 -0)
(2.84410053077613e+18 -0 -0)
(2.89021856410939e+18 -0 -0)
(2.93657901458679e+18 -0 -0)
(2.9831992057985e+18 -0 -0)
(3.03009672564549e+18 -0 -0)
(3.07728939941751e+18 -0 -0)
(3.124795261645e+18 -0 -0)
(3.1726325260653e+18 -0 -0)
(3.22081955293004e+18 -0 -0)
(3.26937481531872e+18 -0 -0)
(3.31831686165482e+18 -0 -0)
(3.36766427641275e+18 -0 -0)
(3.417435636527e+18 -0 -0)
(3.46764946431724e+18 -0 -0)
(3.51832417433348e+18 -0 -0)
(3.56947801421034e+18 -0 -0)
(3.62112899610755e+18 -0 -0)
(3.67329481790294e+18 -0 -0)
(3.72599276986456e+18 -0 -0)
(3.77923962567734e+18 -0 -0)
(3.8330515181505e+18 -0 -0)
(3.88744380871094e+18 -0 -0)
(3.94243098348826e+18 -0 -0)
(3.99802666692544e+18 -0 -0)
(4.05424421652867e+18 -0 -0)
(4.11109882544061e+18 -0 -0)
(4.16860704057053e+18 -0 -0)
(4.22678484025968e+18 -0 -0)
(4.28564686677765e+18 -0 -0)
(4.34520632077954e+18 -0 -0)
(4.40547502756711e+18 -0 -0)
(4.46646352818129e+18 -0 -0)
(4.52818114416085e+18 -0 -0)
(4.59063600625516e+18 -0 -0)
(4.65383505041776e+18 -0 -0)
(4.71778398990853e+18 -0 -0)
(4.78248727106531e+18 -0 -0)
(4.84794801965182e+18 -0 -0)
(4.91416798206898e+18 -0 -0)
(4.98114746345442e+18 -0 -0)
(5.04888526535682e+18 -0 -0)
(5.11737862260064e+18 -0 -0)
(5.18662314116815e+18 -0 -0)
(5.25661273627163e+18 -0 -0)
(5.32733957164943e+18 -0 -0)
(5.39879399932318e+18 -0 -0)
(5.47096450123134e+18 -0 -0)
(5.54383763178895e+18 -0 -0)
(5.61739796171012e+18 -0 -0)
(5.69162802422752e+18 -0 -0)
(5.7665082627143e+18 -0 -0)
(5.84201698034574e+18 -0 -0)
(5.91813029220142e+18 -0 -0)
(5.99482207985843e+18 -0 -0)
(6.07206394894287e+18 -0 -0)
(6.14982518852938e+18 -0 -0)
(6.22807273585271e+18 -0 -0)
(6.30677114196395e+18 -0 -0)
(6.38588254263322e+18 -0 -0)
(6.46536663310149e+18 -0 -0)
(6.54518064632695e+18 -0 -0)
(6.62527933628541e+18 -0 -0)
(6.70561496571771e+18 -0 -0)
(6.78613729902975e+18 -0 -0)
(6.86679360116024e+18 -0 -0)
(6.94752864026025e+18 -0 -0)
(7.02828469880764e+18 -0 -0)
(7.10900158901455e+18 -0 -0)
(7.18961667587949e+18 -0 -0)
(7.27006490715162e+18 -0 -0)
(7.35027885040798e+18 -0 -0)
(7.43018873853632e+18 -0 -0)
(7.50972252246966e+18 -0 -0)
(7.58880593431512e+18 -0 -0)
(7.66736255780723e+18 -0 -0)
(7.74531391041103e+18 -0 -0)
(7.82257953442993e+18 -0 -0)
(7.89907710043283e+18 -0 -0)
(7.974722522186e+18 -0 -0)
(8.04943008553373e+18 -0 -0)
(8.12311259042112e+18 -0 -0)
(8.19568151076408e+18 -0 -0)
(8.26704717205706e+18 -0 -0)
(8.33711895631513e+18 -0 -0)
(8.40580553986077e+18 -0 -0)
(8.47301520842704e+18 -0 -0)
(8.53865629898737e+18 -0 -0)
(8.60263850739603e+18 -0 -0)
(8.66488065158167e+18 -0 -0)
(8.72530469839997e+18 -0 -0)
(8.78382795637652e+18 -0 -0)
(8.84038085395721e+18 -0 -0)
(8.89488910159124e+18 -0 -0)
(8.94719775957984e+18 -0 -0)
(8.99759347266201e+18 -0 -0)
(9.04501740715454e+18 -0 -0)
(9.09152081499978e+18 -0 -0)
(9.13354590972898e+18 -0 -0)
(9.17488159756012e+18 -0 -0)
(9.21489510105137e+18 -0 -0)
(9.25127301035858e+18 -0 -0)
(9.28497724663758e+18 -0 -0)
(9.31694829983228e+18 -0 -0)
(9.3452933923929e+18 -0 -0)
(9.37386665891984e+18 -0 -0)
(9.39817962859074e+18 -0 -0)
(9.42181348054735e+18 -0 -0)
(9.44509134353309e+18 -0 -0)
(9.46198116476469e+18 -0 -0)
(9.47324776803625e+18 -0 -0)
(9.49548356522117e+18 -0 -0)
(9.51160970202984e+18 -0 -0)
(9.51707557240537e+18 -0 -0)
(9.52333078754864e+18 -0 -0)
(9.54126130170273e+18 -0 -0)
(9.54319432840873e+18 -0 -0)
(9.54947518881208e+18 -0 -0)
(9.55898163579798e+18 -0 -0)
(9.55613641944105e+18 -0 -0)
(9.56187912627095e+18 -0 -0)
(9.56658306318773e+18 -0 -0)
(9.5690656391233e+18 -0 -0)
(9.55751455760449e+18 -0 -0)
(9.57733658354467e+18 -0 -0)
(9.56446349873283e+18 -0 -0)
(9.57941714425505e+18 -0 -0)
(9.57484672163987e+18 -0 -0)
(9.60152580755995e+18 -0 -0)
(9.59911524334638e+18 -0 -0)
(9.63340258740075e+18 -0 -0)
(9.64497323252729e+18 -0 -0)
(9.71036117105381e+18 -0 -0)
(9.75164698970604e+18 -0 -0)
(9.87600917901041e+18 -0 -0)
(1.0008052036412e+19 -0 -0)
(1.02209859184496e+19 -0 -0)
(1.04648463273036e+19 -0 -0)
(1.0726493740925e+19 -0 -0)
(1.10013989718976e+19 -0 -0)
(1.12218029627367e+19 -0 -0)
(1.13747537546749e+19 -0 -0)
(1.15269135780832e+19 -0 -0)
(1.16258009562603e+19 -0 -0)
(1.16992321516669e+19 -0 -0)
(1.17623387939479e+19 -0 -0)
(1.18121318309699e+19 -0 -0)
(1.18607922035217e+19 -0 -0)
(1.19013159029712e+19 -0 -0)
(1.19449277615562e+19 -0 -0)
(1.19817115333514e+19 -0 -0)
(1.20220353922277e+19 -0 -0)
(1.20589020214923e+19 -0 -0)
(1.2099068833775e+19 -0 -0)
(1.21364181060162e+19 -0 -0)
(1.2177968362036e+19 -0 -0)
(1.2216775600827e+19 -0 -0)
(1.22601028510198e+19 -0 -0)
(1.23001573358902e+19 -0 -0)
(1.23446629644158e+19 -0 -0)
(1.23852589458833e+19 -0 -0)
(1.24303197834844e+19 -0 -0)
(1.24708526771349e+19 -0 -0)
(1.25156416914232e+19 -0 -0)
(1.2555746757345e+19 -0 -0)
(1.26005547530981e+19 -0 -0)
(1.26397887866385e+19 -0 -0)
(1.26840780750569e+19 -0 -0)
(1.2722276895857e+19 -0 -0)
(1.27659338776037e+19 -0 -0)
(1.28029208131037e+19 -0 -0)
(1.28456786990453e+19 -0 -0)
(1.28811385200217e+19 -0 -0)
(1.29226327199338e+19 -0 -0)
(1.29562267155021e+19 -0 -0)
(1.29961832027038e+19 -0 -0)
(1.30277437263292e+19 -0 -0)
(1.30661548869955e+19 -0 -0)
(1.30957487507046e+19 -0 -0)
(1.31326734975306e+19 -0 -0)
(1.3160405723882e+19 -0 -0)
(1.31957268072919e+19 -0 -0)
(1.32221969108029e+19 -0 -0)
(1.32562262097928e+19 -0 -0)
(1.32809318465347e+19 -0 -0)
(1.33136165524231e+19 -0 -0)
(1.33367778006469e+19 -0 -0)
(1.33681580856073e+19 -0 -0)
(1.33898883485787e+19 -0 -0)
(1.34199533048006e+19 -0 -0)
(1.34401930431581e+19 -0 -0)
(1.34689453242002e+19 -0 -0)
(1.3487416039846e+19 -0 -0)
(1.35148500158579e+19 -0 -0)
(1.35315581519583e+19 -0 -0)
(1.35576222108799e+19 -0 -0)
(1.35727756552358e+19 -0 -0)
(1.35976826673734e+19 -0 -0)
(1.36113561367792e+19 -0 -0)
(1.36354666341434e+19 -0 -0)
(1.36479108364658e+19 -0 -0)
(1.36712747694576e+19 -0 -0)
(1.36826948611601e+19 -0 -0)
(1.37055017370072e+19 -0 -0)
(1.37159123332168e+19 -0 -0)
(1.37380831277507e+19 -0 -0)
(1.37476005059769e+19 -0 -0)
(1.37697384795693e+19 -0 -0)
(1.37784073351995e+19 -0 -0)
(1.37999503994724e+19 -0 -0)
(1.38077068779689e+19 -0 -0)
(1.38288116245227e+19 -0 -0)
(1.3835635679954e+19 -0 -0)
(1.38562853841434e+19 -0 -0)
(1.38622021651834e+19 -0 -0)
(1.38825686118741e+19 -0 -0)
(1.38876958418636e+19 -0 -0)
(1.39078254596713e+19 -0 -0)
(1.39121643456003e+19 -0 -0)
(1.39320844764647e+19 -0 -0)
(1.39357855097625e+19 -0 -0)
(1.39556245751915e+19 -0 -0)
(1.39587858249843e+19 -0 -0)
(1.39785466266798e+19 -0 -0)
(1.39811470398405e+19 -0 -0)
(1.40007947492316e+19 -0 -0)
(1.40027972894549e+19 -0 -0)
(1.40223361516984e+19 -0 -0)
(1.40237146684134e+19 -0 -0)
(1.40430673975247e+19 -0 -0)
(1.40437219230427e+19 -0 -0)
(1.40628916463311e+19 -0 -0)
(1.40628104774109e+19 -0 -0)
(1.40816646355163e+19 -0 -0)
(1.40807028075186e+19 -0 -0)
(1.4099171170701e+19 -0 -0)
(1.40971636187587e+19 -0 -0)
(1.41149979147845e+19 -0 -0)
(1.41013930038466e+19 -0 -0)
)
;

boundaryField
{
    electrode
    {
        type            calculated;
        value           uniform (49319649480.4477 -0 -0);
    }
    ground
    {
        type            calculated;
        value           uniform (1.4119712009375e+19 -0 -0);
    }
    otherfaces
    {
        type            empty;
    }
}


// ************************************************************************* //
