/*--------------------------------*- C++ -*----------------------------------*\
| =========                 |                                                 |
| \\      /  F ield         | foam-extend: Open Source CFD                    |
|  \\    /   O peration     | Version:     4.0                                |
|   \\  /    A nd           | Web:         http://www.foam-extend.org         |
|    \\/     M anipulation  |                                                 |
\*---------------------------------------------------------------------------*/
FoamFile
{
    version     2.0;
    format      ascii;
    class       volScalarField;
    location    "3.8e-06";
    object      N_electronMean;
}
// * * * * * * * * * * * * * * * * * * * * * * * * * * * * * * * * * * * * * //

dimensions      [0 0 0 1 0 0 0];

internalField   nonuniform List<scalar> 
300
(
5.9998196771225e+16
5.999674601466e+16
5.9992631199794e+16
5.99853203143528e+16
5.99748365650812e+16
5.99611346430792e+16
5.99441840568017e+16
5.99239659624169e+16
5.99004638929197e+16
5.98736655700438e+16
5.98435623013195e+16
5.98101486433229e+16
5.97734221496781e+16
5.97333831228924e+16
5.96900344398926e+16
5.96433813789849e+16
5.95934314740948e+16
5.95401943902555e+16
5.94836818029704e+16
5.94239072845912e+16
5.93608862047083e+16
5.92946356363918e+16
5.92251742661451e+16
5.91525223017972e+16
5.90767014070935e+16
5.89977346519695e+16
5.89156464162767e+16
5.88304622942423e+16
5.87422090179646e+16
5.86509143520229e+16
5.85566070279257e+16
5.84593167319303e+16
5.83590740101971e+16
5.82559101117332e+16
5.81498568778701e+16
5.80409466555652e+16
5.79292122124036e+16
5.78146866596254e+16
5.76974033674057e+16
5.75773958788209e+16
5.74546978407701e+16
5.73293429328e+16
5.72013647801023e+16
5.70707968739205e+16
5.69376725033953e+16
5.68020246891753e+16
5.66638861218319e+16
5.65232891077098e+16
5.6380265528776e+16
5.62348468162146e+16
5.60870639565397e+16
5.59369474988288e+16
5.57845275095666e+16
5.56298334833519e+16
5.54728942124252e+16
5.53137376519387e+16
5.51523908045112e+16
5.49888796297867e+16
5.48232289752311e+16
5.46554625088554e+16
5.44856026590319e+16
5.43136705587111e+16
5.4139685983256e+16
5.39636673374314e+16
5.37856317014302e+16
5.36055947697805e+16
5.34235706898582e+16
5.32395719640751e+16
5.30536094004862e+16
5.28656920616478e+16
5.26758272122562e+16
5.24840202924864e+16
5.22902749406188e+16
5.20945929620657e+16
5.18969742365204e+16
5.16974167139868e+16
5.14959164436336e+16
5.1292467522382e+16
5.10870619676602e+16
5.08796896348636e+16
5.06703381981872e+16
5.04589930176746e+16
5.02456370103508e+16
5.00302505989215e+16
4.98128116821687e+16
4.95932956424346e+16
4.93716752788095e+16
4.91479206790058e+16
4.89219991540846e+16
4.86938752192074e+16
4.84635105334794e+16
4.82308639102053e+16
4.79958913464167e+16
4.77585458652524e+16
4.75187773665061e+16
4.72765325763917e+16
4.70317549957901e+16
4.67843848493915e+16
4.65343590352048e+16
4.628161109392e+16
4.60260711766053e+16
4.57676659739321e+16
4.55063187036269e+16
4.52419491346523e+16
4.49744735044235e+16
4.47038044599825e+16
4.44298510404202e+16
4.41525186371196e+16
4.38717089858346e+16
4.35873201111455e+16
4.32992462543104e+16
4.30073778450335e+16
4.27116014948799e+16
4.24118000235127e+16
4.21078524557274e+16
4.17996340201321e+16
4.14870162370833e+16
4.11698669556181e+16
4.08480502780553e+16
4.05214265033121e+16
4.01898521764297e+16
3.98531801748587e+16
3.95112597823142e+16
3.91639367836756e+16
3.88110534548875e+16
3.84524484803162e+16
3.80879569898176e+16
3.77174106475744e+16
3.73406376778251e+16
3.69574629136263e+16
3.65677079000436e+16
3.61711910006996e+16
3.57677274910942e+16
3.53571296537036e+16
3.49392069930465e+16
3.45137664955459e+16
3.40806127068468e+16
3.3639547777244e+16
3.31903716759055e+16
3.27328824167341e+16
3.22668761681884e+16
3.1792147381405e+16
3.13084890002555e+16
3.08156927151317e+16
3.03135493062186e+16
2.98018489563086e+16
2.92803814193367e+16
2.87489361731038e+16
2.8207302582168e+16
2.76552702004537e+16
2.70926292124494e+16
2.65191707129062e+16
2.59346870379101e+16
2.5338972214043e+16
2.47318223016886e+16
2.41130358624717e+16
2.34824145944394e+16
2.28397641452122e+16
2.21848942183024e+16
2.15176190158018e+16
2.08377536421598e+16
2.01450963130763e+16
1.9439412882707e+16
1.8720444489128e+16
1.79879206977118e+16
1.72415595496701e+16
1.64810575149052e+16
1.57060875279077e+16
1.49163164728398e+16
1.41114505267305e+16
1.32913320016188e+16
1.24560930213369e+16
1.16063321057037e+16
1.07433266199034e+16
9.86936968760189e+15
8.98808217195696e+15
8.10459773572706e+15
7.22582944792436e+15
6.36056309631972e+15
5.51917716394753e+15
4.71322868133628e+15
3.95477939995698e+15
3.25535849389577e+15
2.62489118674055e+15
2.07070022512602e+15
1.5966326499754e+15
1.20266288353421e+15
885027492249265
636782504923979
448751955319752
310640277804391
212120417404281
143701534596102
97298956937739.1
65789630037390.2
44167023551201.6
29400518713266.5
19472969687920.4
12935712530463.3
8728005896272.05
6118842796861.74
4563157632298.06
3653650428632.48
3117611542389
2791669171976.55
2584192720780.41
2445081012064.37
2346656148563.21
2273154984272.69
2215211774064.78
2167098785560.84
2125165818854.9
2087003801233.36
2051002774952.91
2016094088810.84
1981556272416.91
1946910767745.44
1911849790864.2
1876187784042.2
1839829514244.91
1802742930396.3
1764919559899.02
1726393615245.42
1687250875639.26
1647599360422.12
1607560864534.38
1567263616251.62
1526835939461.89
1486403336470.03
1446085760259.22
1405995764270.63
1366238475807.29
1326909553767.18
1288095380743.84
1249873378240.16
1212311392570.14
1175467764427.92
1139392671938.05
1104127291884.3
1069704883414.95
1036151867016.74
1003487490729.49
971725681819.324
940875053753.085
910939302316.286
881917593665.115
853803307397.75
826585578068.995
800250162870.533
774780713316.117
750161054376.87
726374374469.528
703402302663.322
681224906804.442
659821427224.93
639171199150.988
619253134196.876
600043445198.296
581517922718.927
563655196336.199
546434457187.838
529833660237.924
513831069971.878
498404934237.734
483533930037.542
469197561654.41
455374110334.526
442041788710.31
429180560408.452
416771390000.602
404795856226.1
393237348639.615
382080923140.569
371313091931.836
360921145337.025
350893174782.121
341217936818.314
331884676971.521
322883522828.077
314205503262.079
305842293680.212
297785115349.37
290023989194.982
282536086121.866
275298276686.514
268307013872.397
261567957749.026
255087864483.198
248873549198.652
242905862513.004
237163974685.834
231666419358.56
226446517161.51
221500713837.57
216858721641.876
212591983788.608
208813517567.128
205759873029.358
203804965042.918
203629641719.92
)
;

boundaryField
{
    electrode
    {
        type            calculated;
        value           uniform 5.99981967715354e+16;
    }
    ground
    {
        type            calculated;
        value           uniform 204920358511.876;
    }
    otherfaces
    {
        type            empty;
    }
}


// ************************************************************************* //
