/*--------------------------------*- C++ -*----------------------------------*\
| =========                 |                                                 |
| \\      /  F ield         | foam-extend: Open Source CFD                    |
|  \\    /   O peration     | Version:     4.0                                |
|   \\  /    A nd           | Web:         http://www.foam-extend.org         |
|    \\/     M anipulation  |                                                 |
\*---------------------------------------------------------------------------*/
FoamFile
{
    version     2.0;
    format      ascii;
    class       volScalarField;
    location    "3.8e-06";
    object      PhiMean;
}
// * * * * * * * * * * * * * * * * * * * * * * * * * * * * * * * * * * * * * //

dimensions      [0 0 0 1 0 0 0];

internalField   nonuniform List<scalar> 
300
(
699.98066006304
699.978833264184
699.976752037891
699.974433168457
699.971886339001
699.969104019982
699.966084742857
699.962826919539
699.959329046412
699.955590003073
699.951608876345
699.947384981541
699.942917814895
699.938207040371
699.93325247379
699.928054067223
699.922611896457
699.916926152846
699.910997132765
699.904825227835
699.89841091822
699.891754765629
699.884857406909
699.877719547518
699.870341954206
699.862725464287
699.854870969847
699.846779412151
699.838451780675
699.82988910141
699.821092428532
699.812062862585
699.802801539525
699.793309608875
699.783588229561
699.773638564661
699.763461775143
699.753059017565
699.74243143771
699.731580163309
699.720506301181
699.709210934659
699.697695114234
699.685959853094
699.674006122537
699.661834847517
699.649446902074
699.636843106443
699.624024223922
699.610990963082
699.59774397801
699.584283884144
699.570611245075
699.556726575007
699.542630314723
699.528322822332
699.513804356598
699.499075070252
699.484135004243
699.46898408051
699.453622096869
699.438048721016
699.422263483337
699.406265769462
699.390054844489
699.373629844814
699.356989741154
699.340133332905
699.323059242113
699.30576590615
699.288251570204
699.270514277906
699.252551881574
699.234362040283
699.215942190067
699.197289549007
699.178401129239
699.159273718354
699.139903867513
699.120287852862
699.100421711267
699.080301185862
699.059921711016
699.039278405675
699.018366055202
698.997179123582
698.9757117325
698.953957628652
698.931910167987
698.909562314269
698.886906616182
698.863935188178
698.840639748847
698.817011544708
698.793041326168
698.768719331176
698.744035261844
698.71897826566
698.693536906983
698.667699149739
698.641452335493
698.614783149264
698.587677584526
698.560120955565
698.532097830083
698.503592000242
698.474586461614
698.445063355926
698.415003958374
698.384388619662
698.353196712779
698.321406590869
698.288995533928
698.255939710054
698.222214122734
698.187792536634
698.152647448535
698.116750032408
698.080070036615
698.042575698148
698.004233659693
697.965008915627
697.924864696065
697.883762409443
697.841661508717
697.798519341374
697.754291018402
697.70892930333
697.662384430028
697.614603943374
697.565532521703
697.515111788787
697.463280096113
697.409972280111
697.355119416814
697.298648606663
697.240482622046
697.180539536826
697.118732370187
697.054968699163
696.989150157259
696.921171906942
696.850922066571
696.778281066289
696.703120951108
696.625304606499
696.544684785151
696.461103060121
696.374388602203
696.284356811003
696.190807858477
696.093524863932
695.992271825007
695.886791344389
695.776801789606
695.661994138767
695.542028247006
695.41652851768
695.285078783059
695.147215408672
695.002422071849
694.850111835487
694.689602654617
694.520109216743
694.34073207191
694.150433437267
693.948003983034
693.732015907991
693.50078208125
693.252292847267
692.984171841586
692.693649455744
692.377526717025
692.032030625698
691.652832070495
691.235177093955
690.773648874173
690.262246753396
689.69477695964
689.064554625899
688.364679422458
687.588486273146
686.729469357756
685.781386403461
684.739067767138
683.597995624859
682.354475953985
681.006065135921
679.55136998171
677.989675738242
676.320985610634
674.545995886313
672.666004515597
670.682594274055
668.597099700434
666.410591429945
664.123918813774
661.737640965004
659.252213030345
656.668051531424
653.98564769974
651.205548552184
648.328455940803
645.355342441939
642.287381377502
639.125691697141
635.871329362018
632.525258083387
629.088375981533
625.561490822168
621.945353931685
618.240634799643
614.448091965049
610.568597864192
606.602974538668
602.551971313304
598.416298974038
594.196604670298
589.893507184365
585.507569031425
581.039333064395
576.48929205474
571.857926715043
567.145673719937
562.352965940469
557.480301827267
552.528278142925
547.497447648866
542.388358636329
537.201518018328
531.93743256486
526.596569506964
521.179401248176
515.686365948536
510.117911015644
504.474448377912
498.756401718304
492.964159535682
487.098124877125
481.15866601436
475.146168748076
469.06098525567
462.903492059414
456.674103321207
450.373313943384
444.001571493891
437.559349411403
431.047073091114
424.465196242631
417.814123566108
411.094290604813
404.306082586483
397.449918289226
390.526164472802
383.53522437926
376.477447199869
369.353221666769
362.162880248562
354.906798014106
347.585291562044
340.198722996835
332.747393823556
325.231653918574
317.651790162968
310.008140908034
302.300984429421
294.530662814857
286.697457206162
278.801745403976
270.843866723746
262.824236217511
254.743179963979
246.601102496118
238.398315387255
230.135213322947
221.812093798277
213.42934227722
204.987242643635
196.486171714533
187.926400234248
179.308296913436
170.632119725057
161.898229832327
153.106872799829
144.258402925735
135.353053778508
126.391173347234
117.372983491012
108.298826390933
99.1689124638003
89.9835785101085
80.743024012229
71.4475810920818
62.0974385784948
52.6929242865041
43.2342170207616
33.7216411520298
24.1553659103043
14.5357133538695
4.86284399532051
)
;

boundaryField
{
    electrode
    {
        type            calculated;
        value           uniform 700.000000000687;
    }
    ground
    {
        type            calculated;
        value           uniform 0;
    }
    otherfaces
    {
        type            empty;
    }
}


// ************************************************************************* //
