/*--------------------------------*- C++ -*----------------------------------*\
| =========                 |                                                 |
| \\      /  F ield         | foam-extend: Open Source CFD                    |
|  \\    /   O peration     | Version:     4.0                                |
|   \\  /    A nd           | Web:         http://www.foam-extend.org         |
|    \\/     M anipulation  |                                                 |
\*---------------------------------------------------------------------------*/
FoamFile
{
    version     2.0;
    format      ascii;
    class       volScalarField;
    location    "2.9e-06";
    object      Arp1;
}
// * * * * * * * * * * * * * * * * * * * * * * * * * * * * * * * * * * * * * //

dimensions      [0 0 0 1 0 0 0];

internalField   nonuniform List<scalar> 
300
(
5.91416374840474e+16
5.91749295912987e+16
5.91545998394115e+16
5.91469759722334e+16
5.9137026664422e+16
5.91230592150135e+16
5.91063249193237e+16
5.90865854048884e+16
5.90638096016952e+16
5.90380287769289e+16
5.90092442182594e+16
5.89774611318979e+16
5.8942686904821e+16
5.89049289110409e+16
5.88641951488956e+16
5.88204942395127e+16
5.87738353588299e+16
5.87242282317983e+16
5.867168311741e+16
5.8616210789049e+16
5.85578225145159e+16
5.84965300358569e+16
5.84323455473582e+16
5.83652816720813e+16
5.82953514378778e+16
5.82225682521658e+16
5.81469458745891e+16
5.80684983896627e+16
5.79872401778922e+16
5.79031858850371e+16
5.78163503909137e+16
5.77267487772149e+16
5.76343962930918e+16
5.75393083206196e+16
5.74415003388508e+16
5.73409878860607e+16
5.72377865218793e+16
5.71319117878339e+16
5.70233791662365e+16
5.69122040389995e+16
5.67984016450709e+16
5.66819870360742e+16
5.65629750319568e+16
5.64413801754666e+16
5.63172166849387e+16
5.61904984069185e+16
5.60612387680987e+16
5.59294507253846e+16
5.57951467160278e+16
5.56583386072422e+16
5.55190376439592e+16
5.53772543969831e+16
5.52329987105274e+16
5.50862796484713e+16
5.4937105440602e+16
5.4785483428946e+16
5.46314200128208e+16
5.44749205940648e+16
5.43159895225755e+16
5.41546300405733e+16
5.39908442279316e+16
5.38246329473448e+16
5.36559957887114e+16
5.34849310151147e+16
5.33114355085612e+16
5.31355047152545e+16
5.29571325930863e+16
5.27763115587419e+16
5.25930324350444e+16
5.24072844005508e+16
5.22190549392065e+16
5.20283297906896e+16
5.18350929031444e+16
5.16393263865095e+16
5.1441010466844e+16
5.12401234433896e+16
5.10366416465613e+16
5.08305393977499e+16
5.06217889715731e+16
5.04103605599871e+16
5.01962222385277e+16
4.99793399354129e+16
4.97596774027877e+16
4.95371961908385e+16
4.93118556250458e+16
4.9083612785924e+16
4.8852422492511e+16
4.86182372890161e+16
4.83810074348055e+16
4.81406808982043e+16
4.78972033543566e+16
4.76505181869853e+16
4.74005664939069e+16
4.71472870975866e+16
4.68906165602468e+16
4.66304892024752e+16
4.63668371285072e+16
4.60995902555508e+16
4.58286763478048e+16
4.55540210573141e+16
4.52755479695532e+16
4.49931786545429e+16
4.47068327175668e+16
4.44164278628846e+16
4.41218799833147e+16
4.38231032239001e+16
4.35200100647011e+16
4.32125114103579e+16
4.29005166868147e+16
4.25839339454815e+16
4.22626699745332e+16
4.19366304174157e+16
4.16057198997942e+16
4.12698421638328e+16
4.0928900210285e+16
4.05827964499416e+16
4.02314328618787e+16
3.98747111616859e+16
3.95125329782133e+16
3.91448000383452e+16
3.87714143625714e+16
3.83922784692856e+16
3.80072955882966e+16
3.76163698855668e+16
3.72194066977892e+16
3.68163127777587e+16
3.64069965510668e+16
3.59913683849671e+16
3.55693408693339e+16
3.51408291108375e+16
3.47057510419306e+16
3.42640277444352e+16
3.38155837899579e+16
3.33603475989258e+16
3.28982518197577e+16
3.24292337307706e+16
3.19532356677818e+16
3.14702054817663e+16
3.09800970301643e+16
3.04828707079052e+16
2.99784940254931e+16
2.94669422418691e+16
2.89481990634572e+16
2.84222574220426e+16
2.78891203477739e+16
2.73488019576612e+16
2.68013285846146e+16
2.62467400780469e+16
2.5685091315747e+16
2.51164539739373e+16
2.45409186195843e+16
2.39585971942495e+16
2.33696259921751e+16
2.27741692731113e+16
2.21724234819774e+16
2.15646219023482e+16
2.09510468499525e+16
2.03320149448925e+16
1.97078947124545e+16
1.90793553389184e+16
1.8446169432983e+16
1.78093330412163e+16
1.71728142564929e+16
1.65424867474894e+16
1.59144360365675e+16
1.52831092171218e+16
1.46528145053715e+16
1.40308621002747e+16
1.3417034798262e+16
1.28245500554083e+16
1.22387961895049e+16
1.16430250461881e+16
1.10844449699456e+16
1.05533300828148e+16
1.001001890752e+16
9.5081398929531e+15
9.05435778765026e+15
8.56656692347846e+15
8.14983725167915e+15
7.77079796822172e+15
7.37431217108256e+15
7.03847287959393e+15
6.74290238105291e+15
6.42201158334393e+15
6.17076418778538e+15
5.95100472873729e+15
5.71017662560559e+15
5.500940445853e+15
5.33624836458594e+15
5.18862881467311e+15
5.02441286229834e+15
4.87983346520248e+15
4.77039627993782e+15
4.67744632248355e+15
4.63278197208714e+15
4.58857195221681e+15
4.59225229023128e+15
4.60353866708318e+15
4.62717631376245e+15
4.62774678588564e+15
4.6227832137833e+15
4.605081273574e+15
4.56425421561947e+15
4.5148176991257e+15
4.4680571425011e+15
4.42400294097309e+15
4.38449061069704e+15
4.34865673298767e+15
4.31752000080634e+15
4.28994626165532e+15
4.26700399392518e+15
4.23537911955291e+15
4.20038600510506e+15
4.16780908760521e+15
4.13931685108289e+15
4.11263076545746e+15
4.08950202497776e+15
4.06768872947166e+15
4.04919095155476e+15
4.03143698498895e+15
4.01698364591116e+15
4.00281449803784e+15
3.99182365161989e+15
3.98081327503737e+15
3.96611681531741e+15
3.94446979974288e+15
3.92569101157454e+15
3.90632616108878e+15
3.88974561130779e+15
3.87231781478477e+15
3.85764966290931e+15
3.84192547124881e+15
3.82892887468137e+15
3.81475244451142e+15
3.80327179517306e+15
3.7905527580162e+15
3.78048216216916e+15
3.76903688051818e+15
3.76030495874953e+15
3.74992894074355e+15
3.74235390522566e+15
3.73292825635224e+15
3.72324199795191e+15
3.70565134667418e+15
3.69105418593386e+15
3.67444724571187e+15
3.66082577363348e+15
3.64525379364689e+15
3.63257376471692e+15
3.61798449153284e+15
3.60627148537185e+15
3.59254988830695e+15
3.58170673861473e+15
3.56880022163533e+15
3.55871384787028e+15
3.54648357620503e+15
3.53710513246783e+15
3.52542963057296e+15
3.51669057235646e+15
3.50555385219893e+15
3.49748321307345e+15
3.48691869132789e+15
3.47949119393412e+15
3.46958607588188e+15
3.46275126068142e+15
3.45349504294789e+15
3.44727526420823e+15
3.43857775921126e+15
3.42717331373455e+15
3.41310053118381e+15
3.4022463487029e+15
3.38866576497711e+15
3.37846906645641e+15
3.36539765664294e+15
3.35580973159926e+15
3.34325978500295e+15
3.33424372825301e+15
3.3222284888183e+15
3.31376737236968e+15
3.30225923089322e+15
3.29432242700764e+15
3.28330274860171e+15
3.27589902304002e+15
3.26533194232182e+15
3.25845444207553e+15
3.24832318810014e+15
3.24198275079105e+15
3.23225412276932e+15
3.22643885735857e+15
3.2170777925461e+15
3.2117033275688e+15
3.20266952748375e+15
3.19768725653916e+15
3.1889642371913e+15
3.18432086626761e+15
3.17584245748349e+15
3.17150037744709e+15
3.16319401082405e+15
3.15907830260606e+15
3.14882325623547e+15
)
;

boundaryField
{
    electrode
    {
        type            driftDiffusionPositiveIonDensity;
        seec            0;
        fieldName       Arp1;
        value           uniform 5.9009571969335e+16;
    }
    ground
    {
        type            driftDiffusionPositiveIonDensity;
        seec            0;
        fieldName       Arp1;
        value           uniform 3.14882325623547e+15;
    }
    otherfaces
    {
        type            empty;
    }
}


// ************************************************************************* //
