/*--------------------------------*- C++ -*----------------------------------*\
| =========                 |                                                 |
| \\      /  F ield         | foam-extend: Open Source CFD                    |
|  \\    /   O peration     | Version:     4.0                                |
|   \\  /    A nd           | Web:         http://www.foam-extend.org         |
|    \\/     M anipulation  |                                                 |
\*---------------------------------------------------------------------------*/
FoamFile
{
    version     2.0;
    format      ascii;
    class       volScalarField;
    location    "2.9e-06";
    object      electron;
}
// * * * * * * * * * * * * * * * * * * * * * * * * * * * * * * * * * * * * * //

dimensions      [0 0 0 1 0 0 0];

internalField   nonuniform List<scalar> 
300
(
5.91497814835634e+16
5.91478823976596e+16
5.91432697461342e+16
5.91355972498028e+16
5.91249076504576e+16
5.91111968110053e+16
5.90944631386796e+16
5.9074711300902e+16
5.90519454836399e+16
5.90261705070174e+16
5.8997391943419e+16
5.89656159675203e+16
5.89308493675092e+16
5.88930995380511e+16
5.88523744644982e+16
5.88086827093061e+16
5.87620333971315e+16
5.8712436198558e+16
5.86599013127165e+16
5.86044394487555e+16
5.85460618061353e+16
5.84847800537413e+16
5.84206063078244e+16
5.83535531087636e+16
5.8283633396635e+16
5.82108604855944e+16
5.81352480370717e+16
5.80568100317683e+16
5.79755607404713e+16
5.7891514693679e+16
5.78046866500313e+16
5.77150915635637e+16
5.76227445497888e+16
5.75276608506069e+16
5.74298557980574e+16
5.73293447769289e+16
5.72261431862326e+16
5.7120266399556e+16
5.70117297243249e+16
5.69005483599791e+16
5.67867373550858e+16
5.66703115634283e+16
5.65512855990853e+16
5.64296737905308e+16
5.63054901337958e+16
5.61787482447084e+16
5.60494613102677e+16
5.59176420391866e+16
5.57833026116404e+16
5.56464546282779e+16
5.5507109058533e+16
5.53652761882895e+16
5.52209655669709e+16
5.50741859540911e+16
5.49249452653329e+16
5.47732505182305e+16
5.4619107777513e+16
5.44625221001795e+16
5.43034974803834e+16
5.41420367942035e+16
5.39781417443737e+16
5.38118128050615e+16
5.36430491667876e+16
5.34718486815626e+16
5.32982078083458e+16
5.31221215589208e+16
5.29435834442751e+16
5.27625854215998e+16
5.25791178420138e+16
5.23931693991159e+16
5.22047270784748e+16
5.20137761081774e+16
5.18202999105547e+16
5.16242800551984e+16
5.14256962133991e+16
5.12245261141257e+16
5.10207455016772e+16
5.08143280951412e+16
5.06052455497912e+16
5.0393467420558e+16
5.01789611277164e+16
4.99616919249253e+16
4.97416228697638e+16
4.95187147969178e+16
4.92929262941524e+16
4.90642136812163e+16
4.8832530991846e+16
4.85978299590064e+16
4.83600600035194e+16
4.81191682262469e+16
4.78750994039682e+16
4.76277959891081e+16
4.73771981134806e+16
4.71232435961926e+16
4.68658679558567e+16
4.66050044272763e+16
4.63405839827393e+16
4.60725353580751e+16
4.5800785083616e+16
4.55252575201958e+16
4.52458749003361e+16
4.49625573748015e+16
4.46752230647964e+16
4.43837881202297e+16
4.40881667837613e+16
4.37882714604929e+16
4.34840127934296e+16
4.31752997449432e+16
4.28620396843949e+16
4.25441384820363e+16
4.22215006092897e+16
4.18940292454698e+16
4.1561626390999e+16
4.12241929871486e+16
4.0881629042317e+16
4.05338337648493e+16
4.01807057023742e+16
3.98221428876173e+16
3.9458042990628e+16
3.90883034773255e+16
3.87128217742512e+16
3.83314954393771e+16
3.79442223387895e+16
3.75509008290327e+16
3.71514299448561e+16
3.67457095920669e+16
3.63336407451486e+16
3.59151256492519e+16
3.54900680261253e+16
3.50583732834852e+16
3.46199487272846e+16
3.4174703776269e+16
3.37225501781517e+16
3.32634022266905e+16
3.27971769788745e+16
3.23237944713739e+16
3.18431779353618e+16
3.13552540087639e+16
3.0859952944945e+16
3.03572088168401e+16
2.98469597155344e+16
2.93291479423255e+16
2.88037201933894e+16
2.82706277363135e+16
2.77298265779896e+16
2.71812776237035e+16
2.66249468277669e+16
2.60608053367524e+16
2.54888296274075e+16
2.49090016427402e+16
2.43213089317135e+16
2.37257448006781e+16
2.312230848833e+16
2.25110053807347e+16
2.18918472897487e+16
2.12648528272161e+16
2.06300478866458e+16
1.99874663251018e+16
1.93371508430115e+16
1.86791525351503e+16
1.80135318010491e+16
1.73403516565333e+16
1.66596260966108e+16
1.59712189125838e+16
1.52748152178715e+16
1.45700656544951e+16
1.38567468789687e+16
1.31347648376357e+16
1.24041101403396e+16
1.16648648989439e+16
1.09173564584326e+16
1.01625683045544e+16
9.40230395221365e+15
8.63902268812136e+15
7.87611054083116e+15
7.11814526900525e+15
6.37058359329805e+15
5.63992822360073e+15
4.93373579638642e+15
4.25987798339845e+15
3.62620077147608e+15
3.04012337665191e+15
2.50782689161395e+15
2.0338139449698e+15
1.62057471071263e+15
1.26824796551023e+15
974738470949690
736067202428807
546568879521000
399538417146728
288159809191451
205744214349728
145962716024347
103373750968197
72210842159218
49429498759425.8
33219186024506.8
21571939243372.1
13553823534384.6
8464398049891.02
5453342809584.63
3741008096300.09
2771854155837.33
2214304200131.51
1885609817902.84
1687706765766.79
1567165131805.71
1493637373972.64
1449175963212.35
1422845917315.06
1407821166023.01
1399524685561.72
1394855974610.28
1391791747682.71
1388985876491.14
1385527385580.52
1380812740182.2
1374456672338.65
1366232866427.44
1356029234320.15
1343821872137.5
1329607130194.01
1313434485879.47
1295434286130.99
1275760857058.3
1254588159517.96
1232098723784.94
1208476928613.35
1183904171349.86
1158555922210.51
1132599533797.86
1106192685140.29
1079482308610.32
1052603907185.06
1025681198636.05
998826021479.302
972138459092.727
945707143127.138
919609682756.592
893913207396.829
868674989170.997
843943124224.853
819757413523.205
796150521068.413
773148643326.151
750771496942.008
729032586424.888
707939652645.795
687494536881.903
667689414491.427
648515875192.49
629969252164.907
612042099413.727
594724977002.619
578006348138.173
561874278271.275
546314805894.483
531309228098.156
516839514767.601
502890542640.965
489446191631.239
476489188657.699
464002202420.544
451967982304.299
440369184561.894
429188770071.461
418403428031.508
407990302999.577
397934011343.385
388220585390.913
378837234139.042
369771796698.267
361012749049.698
352549198654.062
344370912943.5
336468345410.825
328832666559.536
321455795873.72
314330432571.942
307450067443.306
300808823454.438
294400689725.467
288214868014.817
282220806092.203
276398588548.414
270755610479.04
265302642682.023
260051538329.313
255013996871.801
250158789442.604
245464185861.673
240967989096.676
236708023383.663
232679534956.597
228928311191.344
225536337549.307
222640353635.721
220535972523.342
219667083705.737
220859118043.224
)
;

boundaryField
{
    electrode
    {
        type            driftDiffusionElectronDensity;
        seec            0.05;
        Edepend         1;
        field_emission  0;
        field_enhancement_factor 55;
        work_function   5;
        value           uniform 5.91497814835634e+16;
    }
    ground
    {
        type            driftDiffusionElectronDensity;
        seec            0.05;
        Edepend         1;
        field_emission  0;
        field_enhancement_factor 55;
        work_function   5;
        value           uniform 223069811907.248;
    }
    otherfaces
    {
        type            empty;
    }
}


// ************************************************************************* //
