/*--------------------------------*- C++ -*----------------------------------*\
| =========                 |                                                 |
| \\      /  F ield         | foam-extend: Open Source CFD                    |
|  \\    /   O peration     | Version:     4.0                                |
|   \\  /    A nd           | Web:         http://www.foam-extend.org         |
|    \\/     M anipulation  |                                                 |
\*---------------------------------------------------------------------------*/
FoamFile
{
    version     2.0;
    format      ascii;
    class       volVectorField;
    location    "2.9e-06";
    object      J_electron;
}
// * * * * * * * * * * * * * * * * * * * * * * * * * * * * * * * * * * * * * //

dimensions      [1 -1 -1 0 0 0 0];

internalField   nonuniform List<vector> 
300
(
(-1.24880188744324e+19 0 0)
(-1.26312601024833e+19 0 0)
(-1.47817440576777e+19 0 0)
(-1.45226203212604e+19 0 0)
(-1.44573302602392e+19 0 0)
(-1.44495251000605e+19 0 0)
(-1.44032459675749e+19 0 0)
(-1.43612975038447e+19 0 0)
(-1.43208362855601e+19 0 0)
(-1.42796541769506e+19 0 0)
(-1.42386141396568e+19 0 0)
(-1.41976903979117e+19 0 0)
(-1.41568333661325e+19 0 0)
(-1.41160651744077e+19 0 0)
(-1.40753915755027e+19 0 0)
(-1.40348163596433e+19 0 0)
(-1.3994344535379e+19 0 0)
(-1.39539807646229e+19 0 0)
(-1.39137293158111e+19 0 0)
(-1.38735941472106e+19 0 0)
(-1.38335789022373e+19 0 0)
(-1.37936869561222e+19 0 0)
(-1.37539212578133e+19 0 0)
(-1.37142844041945e+19 0 0)
(-1.36747786634162e+19 0 0)
(-1.36354058357323e+19 0 0)
(-1.35961673559491e+19 0 0)
(-1.35570642708145e+19 0 0)
(-1.35180970988629e+19 0 0)
(-1.34792659424873e+19 0 0)
(-1.34405704964562e+19 0 0)
(-1.34020098831621e+19 0 0)
(-1.33635828062357e+19 0 0)
(-1.33252874181562e+19 0 0)
(-1.32871214245456e+19 0 0)
(-1.32490818937946e+19 0 0)
(-1.32111654785388e+19 0 0)
(-1.31733682003213e+19 0 0)
(-1.31356855599273e+19 0 0)
(-1.3098112419587e+19 0 0)
(-1.30606432400154e+19 0 0)
(-1.30232716504051e+19 0 0)
(-1.29859909223422e+19 0 0)
(-1.29487935491245e+19 0 0)
(-1.29116714748383e+19 0 0)
(-1.28746160980238e+19 0 0)
(-1.28376180733025e+19 0 0)
(-1.28006675247753e+19 0 0)
(-1.27637539340293e+19 0 0)
(-1.27268660758464e+19 0 0)
(-1.26899921709472e+19 0 0)
(-1.26531198321544e+19 0 0)
(-1.26162358662954e+19 0 0)
(-1.25793266412235e+19 0 0)
(-1.2542377766674e+19 0 0)
(-1.2505374263552e+19 0 0)
(-1.24683004895308e+19 0 0)
(-1.2431140218235e+19 0 0)
(-1.23938765480308e+19 0 0)
(-1.23564919624075e+19 0 0)
(-1.23189683773443e+19 0 0)
(-1.22812870791943e+19 0 0)
(-1.22434287134711e+19 0 0)
(-1.22053734369009e+19 0 0)
(-1.21671007317205e+19 0 0)
(-1.21285895361979e+19 0 0)
(-1.20898183175406e+19 0 0)
(-1.2050764912237e+19 0 0)
(-1.20114067060918e+19 0 0)
(-1.19717204943873e+19 0 0)
(-1.19316826983558e+19 0 0)
(-1.18912692046049e+19 0 0)
(-1.1850455457598e+19 0 0)
(-1.18092165336555e+19 0 0)
(-1.17675270166474e+19 0 0)
(-1.17253612261249e+19 0 0)
(-1.16826930306333e+19 0 0)
(-1.16394960890068e+19 0 0)
(-1.15957436473585e+19 0 0)
(-1.1551408803041e+19 0 0)
(-1.15064643267957e+19 0 0)
(-1.14608828635105e+19 0 0)
(-1.14146368867087e+19 0 0)
(-1.13676986727533e+19 0 0)
(-1.13200404629773e+19 0 0)
(-1.12716344903572e+19 0 0)
(-1.12224528454805e+19 0 0)
(-1.11724677478013e+19 0 0)
(-1.11216514275213e+19 0 0)
(-1.10699762286314e+19 0 0)
(-1.10174145983482e+19 0 0)
(-1.09639392846372e+19 0 0)
(-1.09095230918754e+19 0 0)
(-1.08541392373956e+19 0 0)
(-1.07977611701686e+19 0 0)
(-1.07403626797476e+19 0 0)
(-1.06819180111798e+19 0 0)
(-1.06224017426602e+19 0 0)
(-1.0561788941685e+19 0 0)
(-1.05000552472741e+19 0 0)
(-1.04371769778074e+19 0 0)
(-1.0373131516657e+19 0 0)
(-1.03078976018994e+19 0 0)
(-1.02414534229743e+19 0 0)
(-1.01737768023003e+19 0 0)
(-1.0104846812733e+19 0 0)
(-1.00346435911145e+19 0 0)
(-9.9631481306208e+18 0 0)
(-9.89034228010608e+18 0 0)
(-9.8162087125802e+18 0 0)
(-9.74073078826297e+18 0 0)
(-9.66389264558588e+18 0 0)
(-9.58567905747114e+18 0 0)
(-9.50607547025116e+18 0 0)
(-9.42506794113407e+18 0 0)
(-9.34264299294137e+18 0 0)
(-9.25878767420126e+18 0 0)
(-9.17348923327067e+18 0 0)
(-9.08673523385264e+18 0 0)
(-8.99851318178821e+18 0 0)
(-8.9088105049264e+18 0 0)
(-8.81761416855421e+18 0 0)
(-8.7249105858079e+18 0 0)
(-8.63068512941035e+18 0 0)
(-8.53492197262308e+18 0 0)
(-8.43760350541486e+18 0 0)
(-8.33871000290879e+18 0 0)
(-8.23821903103315e+18 0 0)
(-8.13610482680463e+18 0 0)
(-8.03233765056106e+18 0 0)
(-7.92688291359438e+18 0 0)
(-7.81970035697621e+18 0 0)
(-7.7107429805093e+18 0 0)
(-7.59995584439701e+18 0 0)
(-7.48727476291319e+18 0 0)
(-7.3726248324306e+18 0 0)
(-7.25591860978804e+18 0 0)
(-7.13705423511853e+18 0 0)
(-7.01591321943789e+18 0 0)
(-6.89235788088266e+18 0 0)
(-6.76622853960788e+18 0 0)
(-6.63734027199866e+18 0 0)
(-6.50547927248064e+18 0 0)
(-6.37039875304456e+18 0 0)
(-6.2318142994839e+18 0 0)
(-6.08939869156567e+18 0 0)
(-5.94277617016871e+18 0 0)
(-5.79151594135015e+18 0 0)
(-5.63512533809784e+18 0 0)
(-5.47304207935445e+18 0 0)
(-5.30462644823707e+18 0 0)
(-5.12915277794614e+18 0 0)
(-4.94580022277938e+18 0 0)
(-4.75364607548142e+18 0 0)
(-4.5516577393334e+18 0 0)
(-4.33852445626257e+18 0 0)
(-4.11313487240967e+18 0 0)
(-3.87353469452707e+18 0 0)
(-3.61014442725369e+18 0 0)
(-3.33299373359969e+18 0 0)
(-2.98719636915067e+18 0 0)
(-2.3900849524525e+18 0 0)
(-1.4464315581981e+18 0 0)
(-5.69970308736352e+17 0 0)
(-1.89732367733096e+17 0 0)
(2.70034006882386e+16 0 0)
(5.42928523607671e+17 0 0)
(1.19245490674152e+18 0 0)
(1.93890163742579e+18 0 0)
(2.15116596811976e+18 0 0)
(1.17242797842288e+18 0 0)
(7.66216985717506e+17 0 0)
(8.82712953316442e+17 0 0)
(-5.02309831446626e+17 0 0)
(-1.61019180635338e+18 0 0)
(-1.42624212805747e+18 0 0)
(-3.20870097304211e+18 0 0)
(-3.6210560693017e+18 0 0)
(-2.38195959561768e+18 0 0)
(-1.71305894223439e+18 0 0)
(3.00953988305519e+17 0 0)
(3.68469892514238e+18 0 0)
(6.72781007716981e+18 0 0)
(1.03333261410288e+19 0 0)
(1.38936258024141e+19 0 0)
(1.61813035118483e+19 0 0)
(1.73748299183539e+19 0 0)
(1.83236843220396e+19 0 0)
(1.70709579694476e+19 0 0)
(1.40703050500531e+19 0 0)
(1.17553275738811e+19 0 0)
(8.79414540409261e+18 0 0)
(5.21163459128636e+18 0 0)
(7.62162462008407e+18 0 0)
(-3.02069626755124e+18 0 0)
(1.10706626041807e+17 0 0)
(-1.94272117619157e+18 0 0)
(-3.11446886058494e+18 0 0)
(-2.85751366935806e+18 0 0)
(-2.82625216344637e+18 0 0)
(-2.95347425394541e+18 0 0)
(-3.16122430195752e+18 0 0)
(-3.32240056227687e+18 0 0)
(-3.40413010377802e+18 0 0)
(-3.43350986204269e+18 0 0)
(-3.42304834046989e+18 0 0)
(-3.39394959080837e+18 0 0)
(-3.35270473117631e+18 0 0)
(-3.30736977518561e+18 0 0)
(-3.25655207917421e+18 0 0)
(-3.20281705644407e+18 0 0)
(-3.14865741139718e+18 0 0)
(-3.09316063859488e+18 0 0)
(-3.0364724138338e+18 0 0)
(-2.97924328536016e+18 0 0)
(-2.92159372241202e+18 0 0)
(-2.86370708880462e+18 0 0)
(-2.80572907153107e+18 0 0)
(-2.74776707172641e+18 0 0)
(-2.69003970320862e+18 0 0)
(-2.63210403418314e+18 0 0)
(-2.57551725492343e+18 0 0)
(-2.51889179425e+18 0 0)
(-2.46296959610119e+18 0 0)
(-2.40774724936872e+18 0 0)
(-2.35333328330024e+18 0 0)
(-2.2997937246095e+18 0 0)
(-2.24719791673378e+18 0 0)
(-2.19559668671666e+18 0 0)
(-2.1450326393804e+18 0 0)
(-2.09554028949877e+18 0 0)
(-2.04714627452528e+18 0 0)
(-1.99987053061438e+18 0 0)
(-1.9537263392564e+18 0 0)
(-1.90872122531837e+18 0 0)
(-1.86485729761607e+18 0 0)
(-1.82213197135576e+18 0 0)
(-1.7805380986997e+18 0 0)
(-1.74006524073645e+18 0 0)
(-1.70069913946498e+18 0 0)
(-1.66242325015653e+18 0 0)
(-1.62521986404429e+18 0 0)
(-1.58906920881995e+18 0 0)
(-1.55394170223533e+18 0 0)
(-1.51981198566488e+18 0 0)
(-1.48665865336361e+18 0 0)
(-1.45445372318028e+18 0 0)
(-1.42316581287788e+18 0 0)
(-1.39273123517314e+18 0 0)
(-1.36330281295016e+18 0 0)
(-1.33462976214395e+18 0 0)
(-1.30678199498069e+18 0 0)
(-1.27972089526619e+18 0 0)
(-1.25342314738107e+18 0 0)
(-1.22788181308012e+18 0 0)
(-1.20301670596473e+18 0 0)
(-1.17884424358527e+18 0 0)
(-1.15539377310337e+18 0 0)
(-1.13255622629123e+18 0 0)
(-1.11032354921681e+18 0 0)
(-1.08870244223276e+18 0 0)
(-1.06765893843022e+18 0 0)
(-1.04717510405615e+18 0 0)
(-1.02722596028038e+18 0 0)
(-1.00780482178784e+18 0 0)
(-9.88803164352786e+17 0 0)
(-9.70441449723962e+17 0 0)
(-9.52475900225938e+17 0 0)
(-9.34967978560681e+17 0 0)
(-9.17892510361275e+17 0 0)
(-9.01242284256714e+17 0 0)
(-8.85003082793239e+17 0 0)
(-8.69162336044582e+17 0 0)
(-8.53707319165532e+17 0 0)
(-8.38625969295254e+17 0 0)
(-8.23906504366045e+17 0 0)
(-8.09537621144616e+17 0 0)
(-7.95508261403494e+17 0 0)
(-7.81807624369226e+17 0 0)
(-7.68423761278224e+17 0 0)
(-7.55342225592145e+17 0 0)
(-7.42520314388737e+17 0 0)
(-7.29901875945782e+17 0 0)
(-7.17977056109138e+17 0 0)
(-7.06109335310583e+17 0 0)
(-6.94538641056683e+17 0 0)
(-6.83217501480017e+17 0 0)
(-6.72187931700205e+17 0 0)
(-6.61058226669774e+17 0 0)
(-6.50981750806653e+17 0 0)
(-6.40827365774896e+17 0 0)
(-6.30849331071836e+17 0 0)
(-6.2096303030458e+17 0 0)
(-6.12172106161878e+17 0 0)
(-6.0283287217383e+17 0 0)
(-5.94744718640374e+17 0 0)
(-5.86612793339976e+17 0 0)
(-5.80028090594271e+17 0 0)
(-5.73896549941592e+17 0 0)
(-5.63978807230155e+17 0 0)
)
;

boundaryField
{
    electrode
    {
        type            calculated;
        value           uniform (-1.46727484998985e+19 0 0);
    }
    ground
    {
        type            calculated;
        value           uniform (-5.61407737720813e+17 0 0);
    }
    otherfaces
    {
        type            empty;
    }
}


// ************************************************************************* //
