/*--------------------------------*- C++ -*----------------------------------*\
| =========                 |                                                 |
| \\      /  F ield         | foam-extend: Open Source CFD                    |
|  \\    /   O peration     | Version:     4.0                                |
|   \\  /    A nd           | Web:         http://www.foam-extend.org         |
|    \\/     M anipulation  |                                                 |
\*---------------------------------------------------------------------------*/
FoamFile
{
    version     2.0;
    format      ascii;
    class       volScalarField;
    location    "2.9e-06";
    object      PhiMean;
}
// * * * * * * * * * * * * * * * * * * * * * * * * * * * * * * * * * * * * * //

dimensions      [0 0 0 1 0 0 0];

internalField   nonuniform List<scalar> 
300
(
699.974679221066
699.972354543238
699.969785033265
699.966985451081
699.963965270186
699.960716005498
699.957235517568
699.953521687101
699.94957257616
699.945386712489
699.940962900512
699.936300245064
699.931398087407
699.926255989124
699.920873711562
699.915251195638
699.909388545892
699.903286020105
699.896944016004
699.890363058824
699.883543793142
699.876486974098
699.86919345964
699.861664202499
699.853900241277
699.845902713205
699.837672834113
699.829211891904
699.820521245944
699.811602312598
699.802456555092
699.793085508238
699.783490764959
699.77367394862
699.763636708566
699.753380714174
699.742907647864
699.732219203016
699.721317076933
699.71020296237
699.698878545076
699.687345501719
699.675605488918
699.663660138693
699.65151105404
699.639159804417
699.626607921308
699.613856895966
699.600908177009
699.587763174828
699.574423263747
699.56088980447
699.547164128604
699.533247543736
699.519141303908
699.504846599404
699.490364536983
699.47569613316
699.460842308859
699.445803882127
699.430581563658
699.415175951285
699.399587522982
699.383816629433
699.367863528385
699.351728376454
699.335411183371
699.318911807149
699.302229949161
699.285365147182
699.268316768583
699.251084001032
699.23366586888
699.21606123392
699.198268759454
699.18028692031
699.162114021928
699.143748179612
699.125187306343
699.106429066042
699.087470924097
699.06831007998
699.048943451432
699.029367670016
699.009579061384
698.98957366579
698.96934721512
698.948895094688
698.928212327512
698.907293577313
698.886133123844
698.864724843097
698.84306226319
698.82113847031
698.798946083204
698.776477238105
698.753723564577
698.730676167744
698.707325598144
698.683661836444
698.659674272581
698.635351669166
698.610682124301
698.58565309684
698.560251327671
698.534462811833
698.508272781654
698.481665642993
698.454624970653
698.427133445044
698.39917279595
698.370723761735
698.341766034719
698.312278226735
698.282237817491
698.25162107593
698.220403042167
698.188557476869
698.156056749585
698.122871751129
698.088971811517
698.054324657933
698.018896293954
697.982650957752
697.945550983222
697.907556642914
697.868626019237
697.828714905601
697.787776618738
697.745761845118
697.702618469258
697.658291393541
697.612722325921
697.565849541726
697.517607650379
697.467927410488
697.41673537525
697.363953525841
697.309498936308
697.253283412277
697.195212996775
697.135187460919
697.073099756332
697.008835399093
696.942271812745
696.873277602095
696.80171160382
696.727421883815
696.650244554053
696.57000245587
696.486503796219
696.39954038032
696.308885617329
696.214292367336
696.115490176803
696.012182238234
695.904041821492
695.790708069529
695.671780969505
695.546815301558
695.415313652729
695.276717735133
695.130397246799
694.975636620578
694.811608406852
694.637342016114
694.451696352496
694.253325637079
694.040636578579
693.811726257501
693.564319534494
693.295684019112
693.002581806951
692.68126255945
692.32735751432
691.93586680086
691.501186476089
691.017094686207
690.476904244329
689.873520515132
689.19959715404
688.447826030056
687.611174193943
686.682934842304
685.657364179731
684.52956826503
683.295621162261
681.952881685151
680.499832162031
678.935819112756
677.261007875302
675.476236740995
673.582945297441
671.583003759502
669.477940174667
667.269150913604
664.957648048505
662.544162017995
660.02949517888
657.414403578268
654.699713984042
651.886277525802
648.975000535954
645.967019316068
642.863606646997
639.665936136094
636.375096570509
632.992077929801
629.517798468494
625.95308985172
622.29872691922
618.555410436411
614.723915257295
610.805128638418
606.799887940079
602.708963798587
598.533088861803
594.272938276317
589.929159186941
585.502348640669
580.993084197574
576.401899606906
571.729316678412
566.975819885992
562.141890487552
557.228071989995
552.234995910883
547.163254598447
542.01343306521
536.78607967452
531.481739529052
526.100922839275
520.644142155115
515.111881642906
509.504631967933
503.82285355842
498.067015593445
492.237557336371
486.334929537257
480.359553622235
474.311865578883
468.192273709167
462.001209054845
455.739146313439
449.40662234358
443.004128897473
436.532181222545
429.991248683786
423.381826643051
416.704363538064
409.959336438601
403.147174056735
396.268336637682
389.323234142701
382.31231128651
375.235960180251
368.09461107753
360.888639097196
353.618460899491
346.284435502953
338.886966669359
331.426398127098
323.903121511903
316.317465699486
308.669810948142
300.960479020572
293.189858631945
285.358279338749
277.466178955935
269.513932456033
261.501994609911
253.430724987282
245.300567955199
237.111867908682
228.865059508852
220.560472360948
212.198532072742
203.779553917623
195.303955043645
186.772036872644
178.184208655772
169.54075832107
160.842087819679
152.088471920471
143.280305987408
134.417852018748
125.501499400162
116.531497629563
107.508230667261
98.4319357650286
89.3029919313932
80.121624633689
70.8882086431352
61.6029579330069
52.2662434476657
42.8782682263367
33.4394002538697
23.9498320394302
14.4099297471114
4.81987609912779
)
;

boundaryField
{
    electrode
    {
        type            calculated;
        value           uniform 700.000000000455;
    }
    ground
    {
        type            calculated;
        value           uniform 0;
    }
    otherfaces
    {
        type            empty;
    }
}


// ************************************************************************* //
