/*--------------------------------*- C++ -*----------------------------------*\
| =========                 |                                                 |
| \\      /  F ield         | foam-extend: Open Source CFD                    |
|  \\    /   O peration     | Version:     4.0                                |
|   \\  /    A nd           | Web:         http://www.foam-extend.org         |
|    \\/     M anipulation  |                                                 |
\*---------------------------------------------------------------------------*/
FoamFile
{
    version     2.0;
    format      ascii;
    class       volScalarField;
    location    "2.9e-06";
    object      Te;
}
// * * * * * * * * * * * * * * * * * * * * * * * * * * * * * * * * * * * * * //

dimensions      [0 0 0 1 0 0 0];

internalField   nonuniform List<scalar> 
300
(
34276.3257395409
34276.5589597584
34276.7270174672
34276.8482681692
34277.0240891868
34277.2429524472
34277.5039656817
34277.8086765884
34278.1568079539
34278.5483188675
34278.9832351213
34279.4615491377
34279.9832617869
34280.5483801874
34281.1569151552
34281.8088820367
34282.5043007341
34283.2431956572
34284.0255957503
34284.8515345173
34285.7210500444
34286.6341850215
34287.5909867698
34288.5915072741
34289.6358032128
34290.7239359926
34291.8559717884
34293.0319815798
34294.2520411971
34295.5162313703
34296.8246377755
34298.177351089
34299.5744670459
34301.0160864997
34302.5023154862
34304.0332652936
34305.6090525359
34307.2297992281
34308.8956328708
34310.6066865386
34312.3630989682
34314.1650146594
34316.0125839781
34317.9059632644
34319.8453149525
34321.8308076883
34323.8626164603
34325.9409227372
34328.0659146086
34330.2377869407
34332.4567415355
34334.7229872956
34337.0367404077
34339.3982245289
34341.8076709807
34344.26531896
34346.771415758
34349.3262169896
34351.9299868363
34354.5829983039
34357.2855334888
34360.03788386
34362.8403505592
34365.693244711
34368.5968877522
34371.5516117808
34374.5577599154
34377.6156866782
34380.7257583975
34383.8883536314
34387.1038636098
34390.3726927006
34393.6952589019
34397.0719943559
34400.5033458921
34403.9897755968
34407.531761411
34411.1297977607
34414.7843962187
34418.4960862011
34422.2654156992
34426.0929520506
34429.9792827465
34433.9250162873
34437.9307830816
34441.9972363848
34446.1250532986
34450.3149358189
34454.5676119371
34458.8838368065
34463.2643939701
34467.710096651
34472.2217891211
34476.8003481445
34481.4466844965
34486.1617445778
34490.9465121134
34495.8020099544
34500.7293019866
34505.729495145
34510.8037415405
34515.95324069
34521.1792418444
34526.483046241
34531.8660102184
34537.329548176
34542.8751355914
34548.504312259
34554.2186857574
34560.0199351535
34565.9098149681
34571.8901594159
34577.9628869438
34584.1300050935
34590.3936157122
34596.7559205498
34603.2192272709
34609.7859559265
34616.4586459247
34623.2399635488
34630.1327100792
34637.1398305781
34644.2644234045
34651.5097505355
34658.8792487794
34666.3765419747
34674.0054542875
34681.7700247236
34689.6745230012
34697.7234669356
34705.9216415214
34714.2741199143
34722.7862865433
34731.4638626318
34740.3129344327
34749.3399845283
34758.5519266176
34767.9561442692
34777.5605341853
34787.3735546359
34797.4042798209
34807.6624610449
34818.1585957553
34828.9040056756
34839.9109254951
34851.1926038505
34862.7634186546
34874.6390092427
34886.8364282684
34899.3743168853
34912.2731074527
34925.5552588835
34939.2455309502
34953.3713048983
34967.9629595072
34983.0543350146
34998.6832391459
35014.892123896
35031.7300091618
35049.2517975878
35067.5261246025
35086.6686176191
35106.8580173896
35128.2459131374
35150.8544923652
35174.6884770092
35199.9118811562
35226.7843819449
35255.571746963
35286.4385302293
35319.2532718462
35354.1283728567
35391.7114668177
35432.1714987963
35475.5682461538
35523.0227382879
35575.0952893646
35632.3785116673
35697.6634725446
35773.7835262933
35864.3801881352
35976.4987174545
36119.1739336777
36304.7584954749
36552.5052676098
36888.2643922358
37347.4245858111
37985.341599031
38880.4102976276
40132.2865305075
41901.9479673211
44449.7254396876
48136.7272007758
53710.7551613462
61443.7778122096
71505.1060280913
86501.0167560979
106762.275756512
133618.321748811
169070.542870497
213557.414434099
265562.544574801
321688.836797921
378135.46434193
431859.882765062
481076.705603361
525121.310686219
564011.903888184
598131.554781741
628044.12853558
654380.179133268
677675.102674802
698391.159471615
716951.788672673
733715.199505619
748974.648186325
762972.885945061
775910.474203202
787953.854990182
799240.644931002
809890.032455683
819989.602927931
829612.449424102
838831.777812418
847702.622691833
856270.880659537
864573.955386396
872642.206989005
880499.892336708
888166.08147212
895655.322160322
902978.200249211
910141.807302458
917150.134739193
924004.413406345
930703.404831191
937243.655913333
943619.726265187
949824.385886648
955848.795104726
961682.667478902
967314.387635279
972731.122430701
977919.091087343
982863.760478066
987549.779046722
991961.086416779
996081.180659121
999893.861678505
1003379.30306604
1006518.29197402
1009294.63056513
1011689.90211604
1013685.65823567
1015262.71385238
1016402.5763605
1017078.82111862
1017281.36573059
1016994.00078587
1016191.84427897
1014855.27370882
1012964.02882601
1010497.98838107
1007436.91336334
1003760.10916464
999449.135357274
994481.162667292
988832.476898006
982483.666997696
975412.279309743
967595.330043713
959008.825089355
949627.89672486
939426.661832422
928378.103565678
916453.915034823
903624.328223368
889857.916649771
875121.375641305
859379.32506391
842594.190985201
824727.273383604
805742.528142695
785588.481833411
764211.190689968
741559.24621932
717563.922174686
692148.424034723
665243.585196283
636757.630499537
606577.781902487
574587.597634323
540642.486716614
504555.980938007
466107.677963886
425013.507488967
380875.507759255
333147.792503538
281026.95486722
223462.409228382
)
;

boundaryField
{
    electrode
    {
        type            electronTemperature;
        seec            0.05;
        Tse             1000;
        Edepend         1;
        TFN             1000;
        field_emission  0;
        field_enhancement_factor 55;
        work_function   5;
        value           uniform 34276.3257395409;
    }
    ground
    {
        type            electronTemperature;
        seec            0.05;
        Tse             1000;
        Edepend         1;
        TFN             1000;
        field_emission  0;
        field_enhancement_factor 55;
        work_function   5;
        value           uniform 190773.227504593;
    }
    otherfaces
    {
        type            empty;
    }
}


// ************************************************************************* //
