/*--------------------------------*- C++ -*----------------------------------*\
| =========                 |                                                 |
| \\      /  F ield         | foam-extend: Open Source CFD                    |
|  \\    /   O peration     | Version:     4.0                                |
|   \\  /    A nd           | Web:         http://www.foam-extend.org         |
|    \\/     M anipulation  |                                                 |
\*---------------------------------------------------------------------------*/
FoamFile
{
    version     2.0;
    format      ascii;
    class       volScalarField;
    location    "9.7e-06";
    object      Ar;
}
// * * * * * * * * * * * * * * * * * * * * * * * * * * * * * * * * * * * * * //

dimensions      [0 0 0 1 0 0 0];

internalField   nonuniform List<scalar> 
300
(
3.21880156383901e+22
3.21880155959697e+22
3.21880156264021e+22
3.21880156395901e+22
3.21880156614657e+22
3.21880156916413e+22
3.21880157283126e+22
3.21880157721738e+22
3.21880158230999e+22
3.21880158810546e+22
3.21880159460438e+22
3.21880160180551e+22
3.21880160970828e+22
3.2188016183123e+22
3.21880162761728e+22
3.21880163762309e+22
3.21880164832998e+22
3.21880165973788e+22
3.21880167184674e+22
3.21880168465675e+22
3.21880169816816e+22
3.21880171238128e+22
3.21880172729646e+22
3.21880174291412e+22
3.2188017592363e+22
3.21880177626225e+22
3.21880179399265e+22
3.21880181242835e+22
3.21880183156912e+22
3.21880185141558e+22
3.21880187197028e+22
3.21880189323324e+22
3.21880191520388e+22
3.2188019378829e+22
3.21880196127104e+22
3.21880198536911e+22
3.2188020101784e+22
3.2188020356996e+22
3.21880206193336e+22
3.21880208888071e+22
3.2188021165427e+22
3.21880214492022e+22
3.21880217401434e+22
3.21880220382616e+22
3.2188022343568e+22
3.21880226560746e+22
3.21880229757956e+22
3.2188023302745e+22
3.21880236369462e+22
3.21880239784163e+22
3.21880243271839e+22
3.21880246832525e+22
3.21880250466438e+22
3.21880254173565e+22
3.21880257953988e+22
3.21880261807712e+22
3.21880265734869e+22
3.21880269735599e+22
3.21880273810047e+22
3.21880277958378e+22
3.2188028218072e+22
3.21880286477225e+22
3.21880290848099e+22
3.21880295293694e+22
3.21880299814145e+22
3.21880304409371e+22
3.21880309079525e+22
3.21880313824764e+22
3.21880318645247e+22
3.21880323541137e+22
3.21880328512617e+22
3.21880333559934e+22
3.21880338683279e+22
3.21880343882753e+22
3.21880349158665e+22
3.21880354511181e+22
3.2188035994041e+22
3.21880365446567e+22
3.21880371029626e+22
3.21880376690064e+22
3.21880382427707e+22
3.21880388242706e+22
3.21880394135259e+22
3.21880400105514e+22
3.21880406153786e+22
3.21880412280165e+22
3.21880418484698e+22
3.21880424767547e+22
3.21880431128993e+22
3.21880437569121e+22
3.2188044408815e+22
3.21880450686687e+22
3.21880457364339e+22
3.21880464121242e+22
3.21880470957551e+22
3.21880477873415e+22
3.21880484868987e+22
3.21880491944418e+22
3.21880499099963e+22
3.21880506335766e+22
3.21880513651906e+22
3.21880521048509e+22
3.2188052852603e+22
3.21880536084312e+22
3.2188054372358e+22
3.21880551444057e+22
3.21880559245722e+22
3.21880567128897e+22
3.218805750936e+22
3.218805831399e+22
3.21880591267933e+22
3.2188059947784e+22
3.21880607769811e+22
3.21880616143982e+22
3.21880624600488e+22
3.21880633139615e+22
3.21880641761631e+22
3.21880650466389e+22
3.21880659254118e+22
3.21880668125059e+22
3.21880677078926e+22
3.21880686115968e+22
3.21880695236993e+22
3.2188070444201e+22
3.21880713731082e+22
3.21880723104424e+22
3.21880732562502e+22
3.21880742105329e+22
3.21880751733198e+22
3.21880761446312e+22
3.21880771245005e+22
3.21880781129494e+22
3.21880791100008e+22
3.21880801156981e+22
3.2188081130095e+22
3.21880821531901e+22
3.21880831849966e+22
3.21880842255564e+22
3.21880852749055e+22
3.21880863330517e+22
3.21880874000277e+22
3.21880884758667e+22
3.21880895606175e+22
3.21880906543284e+22
3.218809175704e+22
3.21880928687482e+22
3.2188093989483e+22
3.21880951192752e+22
3.2188096258169e+22
3.21880974062251e+22
3.21880985634425e+22
3.21880997298536e+22
3.2188100905528e+22
3.21881020904664e+22
3.21881032846907e+22
3.21881044882319e+22
3.21881057011369e+22
3.21881069233485e+22
3.21881081549043e+22
3.21881093957082e+22
3.21881106458634e+22
3.21881119050882e+22
3.21881131735837e+22
3.2188114450886e+22
3.21881157371754e+22
3.21881170331468e+22
3.21881183276015e+22
3.21881196249939e+22
3.21881209379207e+22
3.21881222596087e+22
3.21881235895079e+22
3.2188124920358e+22
3.21881262539331e+22
3.21881275859781e+22
3.21881289168902e+22
3.21881302598083e+22
3.21881316183859e+22
3.21881329354356e+22
3.21881342440243e+22
3.21881355920451e+22
3.21881368701904e+22
3.21881381156965e+22
3.21881393878954e+22
3.21881405631098e+22
3.21881416986297e+22
3.21881428113745e+22
3.21881438194448e+22
3.21881447611628e+22
3.21881456607394e+22
3.21881464364434e+22
3.21881471305106e+22
3.21881477805792e+22
3.21881483263755e+22
3.218814876908e+22
3.2188149131757e+22
3.21881494065017e+22
3.21881495986033e+22
3.21881497429327e+22
3.21881498371073e+22
3.21881499119646e+22
3.21881499267332e+22
3.21881498954997e+22
3.2188149831401e+22
3.21881498018245e+22
3.21881498309602e+22
3.21881499154205e+22
3.21881500224446e+22
3.21881501335194e+22
3.21881502308683e+22
3.21881503134489e+22
3.21881503815561e+22
3.21881504382292e+22
3.2188150485204e+22
3.21881505357502e+22
3.21881505926544e+22
3.21881506450706e+22
3.21881506915759e+22
3.21881507341428e+22
3.21881507724556e+22
3.2188150808134e+22
3.21881508405122e+22
3.21881508717271e+22
3.21881509007173e+22
3.2188150928571e+22
3.21881509541696e+22
3.21881509922693e+22
3.21881510308604e+22
3.21881510690557e+22
3.21881511047792e+22
3.2188151140358e+22
3.2188151173567e+22
3.21881512068327e+22
3.21881512377583e+22
3.21881512688891e+22
3.21881512976896e+22
3.2188151326809e+22
3.21881513535773e+22
3.21881513807691e+22
3.21881514055686e+22
3.21881514308913e+22
3.21881514537668e+22
3.21881514808685e+22
3.21881515127012e+22
3.21881515451049e+22
3.21881515750403e+22
3.21881516056376e+22
3.21881516337352e+22
3.21881516626109e+22
3.21881516889459e+22
3.21881517161721e+22
3.21881517408234e+22
3.21881517664766e+22
3.21881517895514e+22
3.21881518137319e+22
3.21881518352631e+22
3.21881518579927e+22
3.21881518780194e+22
3.21881518993599e+22
3.21881519179532e+22
3.21881519379658e+22
3.21881519551852e+22
3.21881519739479e+22
3.2188151989896e+22
3.21881520075115e+22
3.218815202268e+22
3.21881520464668e+22
3.21881520664203e+22
3.21881520893409e+22
3.21881521081296e+22
3.21881521300093e+22
3.21881521476937e+22
3.21881521685913e+22
3.2188152185237e+22
3.21881522052229e+22
3.21881522208941e+22
3.21881522400336e+22
3.21881522547872e+22
3.2188152273124e+22
3.21881522869961e+22
3.2188152304567e+22
3.21881523176013e+22
3.21881523344858e+22
3.21881523469356e+22
3.2188152363573e+22
3.21881523755915e+22
3.21881523916728e+22
3.21881524029919e+22
3.21881524184698e+22
3.21881524291012e+22
3.2188152444411e+22
3.21881524552487e+22
3.21881524704712e+22
3.2188152480636e+22
3.21881524960168e+22
3.21881525066699e+22
3.21881525221109e+22
3.21881525334787e+22
3.21881525506541e+22
3.21881525661804e+22
3.21881525949145e+22
)
;

boundaryField
{
    electrode
    {
        type            zeroGradient;
    }
    ground
    {
        type            zeroGradient;
    }
    otherfaces
    {
        type            empty;
    }
}


// ************************************************************************* //
