/*--------------------------------*- C++ -*----------------------------------*\
| =========                 |                                                 |
| \\      /  F ield         | foam-extend: Open Source CFD                    |
|  \\    /   O peration     | Version:     4.0                                |
|   \\  /    A nd           | Web:         http://www.foam-extend.org         |
|    \\/     M anipulation  |                                                 |
\*---------------------------------------------------------------------------*/
FoamFile
{
    version     2.0;
    format      ascii;
    class       volScalarField;
    location    "9.7e-06";
    object      Arm;
}
// * * * * * * * * * * * * * * * * * * * * * * * * * * * * * * * * * * * * * //

dimensions      [0 0 0 1 0 0 0];

internalField   nonuniform List<scalar> 
300
(
3.57409927789245e+15
3.57597183763829e+15
3.57791875494425e+15
3.57922510756211e+15
3.58004145588119e+15
3.58042009229043e+15
3.58040521128328e+15
3.5800282678522e+15
3.57931492529637e+15
3.57828716131879e+15
3.57696076059249e+15
3.57534980832692e+15
3.57346635891825e+15
3.57132101558787e+15
3.56892323587914e+15
3.56628155791873e+15
3.56340082228562e+15
3.56028960635568e+15
3.55695624771477e+15
3.55340722941979e+15
3.54964875292113e+15
3.5456867398532e+15
3.54152688017027e+15
3.53717458440613e+15
3.53261928038003e+15
3.52787860713227e+15
3.52295629658466e+15
3.51785439474507e+15
3.51258644707145e+15
3.50715731178915e+15
3.50155333142656e+15
3.49578583776164e+15
3.48987289213851e+15
3.48381990633981e+15
3.47763196664154e+15
3.47131386445444e+15
3.46486579906033e+15
3.45829427319595e+15
3.45160634630463e+15
3.44480556190332e+15
3.43789542775773e+15
3.43088121269177e+15
3.42376680037989e+15
3.41655588231756e+15
3.40925195856001e+15
3.40185828795489e+15
3.39437582160467e+15
3.38680598536565e+15
3.3791410517699e+15
3.37137957039284e+15
3.36350902169443e+15
3.35554181174738e+15
3.34747264157558e+15
3.33931915487432e+15
3.33108952586921e+15
3.32280007626221e+15
3.31445413617204e+15
3.30605462179102e+15
3.29760410100173e+15
3.28910300568752e+15
3.28055563717021e+15
3.27196409903856e+15
3.26332502537618e+15
3.254620537187e+15
3.24585461191313e+15
3.2370527318782e+15
3.22821704355357e+15
3.21934938673386e+15
3.21045134727867e+15
3.20152428016004e+15
3.19256733048861e+15
3.18357337435164e+15
3.17454088246357e+15
3.16547723251828e+15
3.15636896293054e+15
3.14721711132959e+15
3.1380279853844e+15
3.12879753333291e+15
3.11954556583989e+15
3.11024178451099e+15
3.10092055515436e+15
3.09158406547861e+15
3.08222925530689e+15
3.0728583345478e+15
3.06345657330503e+15
3.05403167138993e+15
3.04459529951522e+15
3.03514777614021e+15
3.02567726278379e+15
3.01619143818062e+15
3.00668423074934e+15
2.99711090011124e+15
2.98752637162299e+15
2.97793240067982e+15
2.96832901996232e+15
2.95871625507715e+15
2.94909388773308e+15
2.93946146218475e+15
2.92980809052211e+15
2.92013370145588e+15
2.91044453252096e+15
2.90074180056617e+15
2.89099395190343e+15
2.88122998998808e+15
2.87144078155332e+15
2.86161703655438e+15
2.85177364568762e+15
2.84189114097987e+15
2.83197986820132e+15
2.82204527364224e+15
2.81208550270886e+15
2.80209825762183e+15
2.79207582253583e+15
2.78201597277763e+15
2.77191645312024e+15
2.76175964346881e+15
2.75152675807906e+15
2.74124244492123e+15
2.73090761079746e+15
2.72051415517912e+15
2.71003581895937e+15
2.69948538219849e+15
2.68883403878632e+15
2.6780920970041e+15
2.66727095461957e+15
2.65636838348423e+15
2.64535643251244e+15
2.63425237121836e+15
2.62304545485563e+15
2.61173359229008e+15
2.60030119722087e+15
2.58874437074498e+15
2.57705807015048e+15
2.56521623275473e+15
2.55318254229768e+15
2.54097569608289e+15
2.52859958579248e+15
2.51602924739613e+15
2.50324587162187e+15
2.49025846030197e+15
2.47705108136902e+15
2.46360704657326e+15
2.44989424589218e+15
2.43588059770218e+15
2.4215415721324e+15
2.40689679147447e+15
2.39193146281899e+15
2.37662919392364e+15
2.36095943837844e+15
2.34487348534329e+15
2.32838354296074e+15
2.31146486238336e+15
2.29405539774676e+15
2.2761537856256e+15
2.25774173720945e+15
2.23876960885425e+15
2.21919423168286e+15
2.19901491621484e+15
2.17821250059229e+15
2.15674210396986e+15
2.1345681452282e+15
2.11167543516463e+15
2.08802588740745e+15
2.06363187374701e+15
2.03848036351325e+15
2.01251705051818e+15
1.98576263986969e+15
1.95826161161522e+15
1.9300429975947e+15
1.90114879742408e+15
1.87164747370478e+15
1.84157256524588e+15
1.81101649972491e+15
1.78015066018115e+15
1.74916888886269e+15
1.71824110826733e+15
1.68754652715449e+15
1.65728418916509e+15
1.62769261936916e+15
1.59892757193241e+15
1.57114331125712e+15
1.54448675192544e+15
1.51903947722977e+15
1.49491595336172e+15
1.47211611625276e+15
1.45055025371052e+15
1.43025772906032e+15
1.4111881926778e+15
1.39325594769167e+15
1.37638052993078e+15
1.36046865228795e+15
1.34557280790883e+15
1.33219106578535e+15
1.32542143222939e+15
1.35143005770486e+15
1.41746330153664e+15
1.49771723179604e+15
1.56492813458447e+15
1.62851009829488e+15
1.70310892461912e+15
1.79010321714094e+15
1.88292448883755e+15
1.96101661605551e+15
1.98153073930008e+15
1.94740845071235e+15
1.88102993350587e+15
1.80789097786824e+15
1.74537367505853e+15
1.6991507747186e+15
1.66786488330625e+15
1.64752763316071e+15
1.63534740558455e+15
1.62758213812041e+15
1.62401377680581e+15
1.62217350957317e+15
1.62056192729271e+15
1.61985931678471e+15
1.6194260290638e+15
1.61880979794451e+15
1.61775836383665e+15
1.61607976602017e+15
1.61301873242667e+15
1.60871538215791e+15
1.60346328604959e+15
1.59732775418916e+15
1.59046307254843e+15
1.58291788176542e+15
1.57472880973392e+15
1.56595390261519e+15
1.55666097387135e+15
1.54689765559842e+15
1.53672825624014e+15
1.52622179196128e+15
1.51542962801808e+15
1.50440492833541e+15
1.49321515872433e+15
1.48189247575269e+15
1.4705002738053e+15
1.45906837884242e+15
1.44764321312855e+15
1.43625718788466e+15
1.4249324530278e+15
1.41371111029364e+15
1.40260414778289e+15
1.39163988099966e+15
1.38085288486372e+15
1.37024578510191e+15
1.35983983347964e+15
1.34964870931868e+15
1.33967352046813e+15
1.32992847387458e+15
1.32040884299822e+15
1.31109649364201e+15
1.30201763189613e+15
1.29318026433335e+15
1.28459096585039e+15
1.27625242927239e+15
1.2681507898537e+15
1.26029394963234e+15
1.25267173401864e+15
1.24528405817329e+15
1.23810855107518e+15
1.23112784759504e+15
1.22433476650847e+15
1.21774191510494e+15
1.21134334211491e+15
1.20512919605022e+15
1.1990940332106e+15
1.19322494808372e+15
1.187525311991e+15
1.18198468122953e+15
1.17660481468894e+15
1.1713682051432e+15
1.16627721985315e+15
1.16131823518602e+15
1.15648828812542e+15
1.15178430388025e+15
1.14720499120071e+15
1.1427510745182e+15
1.13841505683706e+15
1.13419459915607e+15
1.13004828200029e+15
1.12583253109708e+15
1.12146131847145e+15
1.11712503188389e+15
1.11287099276197e+15
1.1087078968674e+15
1.10464004110926e+15
1.10065894621075e+15
1.09636109776089e+15
1.09168546172862e+15
1.08711435494936e+15
1.08265939279524e+15
1.07758479470905e+15
1.07221383327166e+15
1.06678313367126e+15
1.06030414047088e+15
1.05326275399053e+15
1.04510110495583e+15
1.03510824944012e+15
)
;

boundaryField
{
    electrode
    {
        type            zeroGradient;
    }
    ground
    {
        type            zeroGradient;
    }
    otherfaces
    {
        type            empty;
    }
}


// ************************************************************************* //
