/*--------------------------------*- C++ -*----------------------------------*\
| =========                 |                                                 |
| \\      /  F ield         | foam-extend: Open Source CFD                    |
|  \\    /   O peration     | Version:     4.0                                |
|   \\  /    A nd           | Web:         http://www.foam-extend.org         |
|    \\/     M anipulation  |                                                 |
\*---------------------------------------------------------------------------*/
FoamFile
{
    version     2.0;
    format      ascii;
    class       volScalarField;
    location    "9.7e-06";
    object      Arp1;
}
// * * * * * * * * * * * * * * * * * * * * * * * * * * * * * * * * * * * * * //

dimensions      [0 0 0 1 0 0 0];

internalField   nonuniform List<scalar> 
300
(
6.88778717946122e+16
6.89203840962169e+16
6.88929681299854e+16
6.88868283219802e+16
6.8875818762258e+16
6.8860299381482e+16
6.88420363437578e+16
6.88203045434625e+16
6.87952063586783e+16
6.87667586403012e+16
6.87349424474331e+16
6.86997589945946e+16
6.86612050621363e+16
6.86192771458453e+16
6.85739719829268e+16
6.85252860194598e+16
6.84732155578216e+16
6.84177567488668e+16
6.83589055844239e+16
6.82966579024373e+16
6.82310093871172e+16
6.81619555707364e+16
6.80894918350841e+16
6.80136134126653e+16
6.79343153886769e+16
6.78515927028338e+16
6.77654401505739e+16
6.76758523855066e+16
6.75828239213119e+16
6.74863491334555e+16
6.73864222614287e+16
6.72830374113554e+16
6.71761885576948e+16
6.70658695457705e+16
6.69520740945895e+16
6.68347957987355e+16
6.67140281313113e+16
6.65897644467813e+16
6.64619979831313e+16
6.63307218650857e+16
6.61959291071468e+16
6.60576126159502e+16
6.59157651937372e+16
6.57703795414882e+16
6.56214482616093e+16
6.54689638615268e+16
6.53129187570852e+16
6.51533052753233e+16
6.49901156583441e+16
6.48233420668844e+16
6.46529765831944e+16
6.44790112152195e+16
6.43014379001586e+16
6.41202485077829e+16
6.39354348444036e+16
6.37469886568751e+16
6.35549016360687e+16
6.33591654207785e+16
6.3159771602102e+16
6.29567117267536e+16
6.27499773014514e+16
6.25395597971736e+16
6.23254506526809e+16
6.21076412790226e+16
6.18861230638489e+16
6.1660887375065e+16
6.14319255654442e+16
6.11992289770007e+16
6.09627889447699e+16
6.07225968014124e+16
6.04786438817254e+16
6.02309215264589e+16
5.99794210870081e+16
5.972413392992e+16
5.94650514407207e+16
5.92021650287648e+16
5.89354661316008e+16
5.86649462190564e+16
5.8390596797737e+16
5.81124094157144e+16
5.78303756665232e+16
5.75444871935514e+16
5.7254735694784e+16
5.69611129267284e+16
5.66636107088354e+16
5.63622209281249e+16
5.60569355430822e+16
5.57477465880681e+16
5.54346461778037e+16
5.51176265111934e+16
5.47966798757023e+16
5.447179865167e+16
5.41429753162421e+16
5.38102024473165e+16
5.34734727280435e+16
5.31327789504033e+16
5.27881140192996e+16
5.24394709567008e+16
5.20868429051821e+16
5.17302231318897e+16
5.13696050325445e+16
5.10049821349466e+16
5.06363481025965e+16
5.02636967387842e+16
4.98870219900307e+16
4.95063179492395e+16
4.91215788596198e+16
4.87327991191798e+16
4.83399732854761e+16
4.79430960727226e+16
4.75421623480122e+16
4.71371671645504e+16
4.67281058252046e+16
4.63149737181317e+16
4.58977659690512e+16
4.54764782999004e+16
4.50511090747396e+16
4.46216548948646e+16
4.4188098573454e+16
4.37504300955615e+16
4.33087113962664e+16
4.28629138966842e+16
4.24129964568557e+16
4.19589598896585e+16
4.1500798130497e+16
4.10385041632918e+16
4.05720712088918e+16
4.01014927651277e+16
3.96267626670051e+16
3.91478751121739e+16
3.86648246799223e+16
3.81776063515828e+16
3.76862155345081e+16
3.71906480905244e+16
3.669090036938e+16
3.61869692488544e+16
3.56788521824681e+16
3.51665472559153e+16
3.46500532545998e+16
3.41293697439416e+16
3.36044971648652e+16
3.3075436948085e+16
3.25421916497202e+16
3.20047651158047e+16
3.14631626713053e+16
3.09173913681124e+16
3.03674602285412e+16
2.98133806651413e+16
2.92551666975857e+16
2.86928358474194e+16
2.812640886675e+16
2.75559122234137e+16
2.69813753961932e+16
2.64028389564766e+16
2.58203423112359e+16
2.52339506668829e+16
2.46437106206807e+16
2.40497343506454e+16
2.34520623743932e+16
2.28508990082756e+16
2.22462449787266e+16
2.16384709925046e+16
2.1027493474589e+16
2.04138508820945e+16
1.97974763020411e+16
1.91778600010951e+16
1.8566437393934e+16
1.7959203257317e+16
1.73441363264493e+16
1.67284771420152e+16
1.61131089674488e+16
1.55056505197379e+16
1.49046785692781e+16
1.43147450219066e+16
1.37356479762142e+16
1.3154147575459e+16
1.25658463693211e+16
1.20266106326848e+16
1.15016285514318e+16
1.09404197838814e+16
1.04485388941001e+16
9.98425627121381e+15
9.48279104169229e+15
9.06120929060349e+15
8.65514555861997e+15
8.2403517775226e+15
7.89114232917598e+15
7.56219176297072e+15
7.22327873359381e+15
6.95154387917173e+15
6.70211395485128e+15
6.43660910275276e+15
6.2161226755519e+15
6.03761815165953e+15
5.85661532836851e+15
5.67976193627435e+15
5.53406796432872e+15
5.4183351443799e+15
5.331755601823e+15
5.23454763942026e+15
5.17231251278642e+15
5.13980084966477e+15
5.14624291546257e+15
5.16992146823832e+15
5.18503901814947e+15
5.17343954821103e+15
5.14335649666329e+15
5.09689151636178e+15
5.04689224467744e+15
4.99621169840274e+15
4.94878582895056e+15
4.90449092578538e+15
4.86539723399881e+15
4.81848700417097e+15
4.76346161843168e+15
4.71267764521242e+15
4.6668845667558e+15
4.62475413872984e+15
4.58705744051724e+15
4.55242858229066e+15
4.5217265622303e+15
4.4935707407356e+15
4.4688830520573e+15
4.44628190433162e+15
4.42682091822108e+15
4.39558974874637e+15
4.3645494821416e+15
4.33455062149815e+15
4.30761105469852e+15
4.28133589304699e+15
4.25790244861314e+15
4.23481976226608e+15
4.21441559777304e+15
4.19409294348137e+15
4.17633415670869e+15
4.15842237059231e+15
4.1429953936393e+15
4.12721499299293e+15
4.11386711675522e+15
4.09998965108549e+15
4.088520542799e+15
4.0727641504824e+15
4.05217342019589e+15
4.0308973068727e+15
4.01194664577999e+15
3.99215679880046e+15
3.97468650105731e+15
3.95623664805102e+15
3.94011238138867e+15
3.92288057673018e+15
3.90799314237841e+15
3.8918780545105e+15
3.87813356513846e+15
3.86304939186074e+15
3.8503726658486e+15
3.83624897764829e+15
3.82457684605884e+15
3.81135365005802e+15
3.80063230484834e+15
3.78825651648362e+15
3.77843899453014e+15
3.7668655366912e+15
3.75791135124008e+15
3.7471017405892e+15
3.73853844414577e+15
3.72116211915668e+15
3.70743427787879e+15
3.69056001716062e+15
3.67765111963291e+15
3.66148137590456e+15
3.6493475225276e+15
3.63383942682287e+15
3.62243970549192e+15
3.60755365522916e+15
3.59685022055704e+15
3.58254899495835e+15
3.57250751610611e+15
3.55875790939581e+15
3.54934727442425e+15
3.53611964146869e+15
3.52731290204681e+15
3.5145815341346e+15
3.5063540543741e+15
3.49409415325526e+15
3.48641800934754e+15
3.47459667332455e+15
3.46744642539807e+15
3.45604188943074e+15
3.44939691647547e+15
3.43839009253065e+15
3.43223287455041e+15
3.4215862021467e+15
3.41588079863787e+15
3.40557883369762e+15
3.40030065555549e+15
3.3902939138194e+15
3.38540815288228e+15
3.37527633057147e+15
3.3679126484903e+15
3.34917024332489e+15
)
;

boundaryField
{
    electrode
    {
        type            driftDiffusionPositiveIonDensity;
        seec            0;
        fieldName       Arp1;
        value           uniform 6.86940295267564e+16;
    }
    ground
    {
        type            driftDiffusionPositiveIonDensity;
        seec            0;
        fieldName       Arp1;
        value           uniform 3.34917024332489e+15;
    }
    otherfaces
    {
        type            empty;
    }
}


// ************************************************************************* //
