/*--------------------------------*- C++ -*----------------------------------*\
| =========                 |                                                 |
| \\      /  F ield         | foam-extend: Open Source CFD                    |
|  \\    /   O peration     | Version:     4.0                                |
|   \\  /    A nd           | Web:         http://www.foam-extend.org         |
|    \\/     M anipulation  |                                                 |
\*---------------------------------------------------------------------------*/
FoamFile
{
    version     2.0;
    format      ascii;
    class       volScalarField;
    location    "9.7e-06";
    object      electron;
}
// * * * * * * * * * * * * * * * * * * * * * * * * * * * * * * * * * * * * * //

dimensions      [0 0 0 1 0 0 0];

internalField   nonuniform List<scalar> 
300
(
6.88892017869729e+16
6.88872372997384e+16
6.88822738378978e+16
6.88739192694444e+16
6.88622369317605e+16
6.88472019983513e+16
6.88288084865883e+16
6.88070559495579e+16
6.87819413011603e+16
6.87534619765641e+16
6.8721615261613e+16
6.86863982295852e+16
6.86478078105791e+16
6.86058407705103e+16
6.85604937134791e+16
6.85117630837246e+16
6.84596451659945e+16
6.84041360866587e+16
6.83452318148104e+16
6.82829281634395e+16
6.82172207906974e+16
6.8148105201241e+16
6.80755767476649e+16
6.79996306320133e+16
6.79202619073709e+16
6.78374654795334e+16
6.77512361087643e+16
6.76615684116274e+16
6.7568456862897e+16
6.747189579755e+16
6.73718794128329e+16
6.72684017704002e+16
6.71614567985368e+16
6.70510382944499e+16
6.69371399266332e+16
6.68197552373072e+16
6.66988776449291e+16
6.65745004467729e+16
6.64466168215793e+16
6.6315219832274e+16
6.61803024287488e+16
6.60418574507143e+16
6.58998776306122e+16
6.57543555965895e+16
6.56052838755371e+16
6.54526548961867e+16
6.5296460992265e+16
6.51366944057072e+16
6.49733472899201e+16
6.48064117131009e+16
6.46358796616088e+16
6.44617430433795e+16
6.4283993691395e+16
6.41026233671973e+16
6.39176237644349e+16
6.37289865124596e+16
6.35367031799651e+16
6.33407652786504e+16
6.31411642669218e+16
6.29378915536336e+16
6.27309385018454e+16
6.25202964326086e+16
6.23059566287824e+16
6.20879103388636e+16
6.18661487808331e+16
6.16406631460176e+16
6.14114446029596e+16
6.1178484301299e+16
6.09417733756577e+16
6.07013029495183e+16
6.04570641391032e+16
6.02090480572468e+16
5.99572458172541e+16
5.9701648536741e+16
5.94422473414574e+16
5.91790333690818e+16
5.89119977729863e+16
5.86411317259677e+16
5.83664264239356e+16
5.80878730895543e+16
5.7805462975834e+16
5.7519187369663e+16
5.72290375952701e+16
5.69350050176227e+16
5.66370810457457e+16
5.63352571359455e+16
5.60295247949506e+16
5.57198755829436e+16
5.54063011164794e+16
5.50887930712931e+16
5.47673431849687e+16
5.44419432594638e+16
5.41125851634913e+16
5.37792608347335e+16
5.34419622818764e+16
5.31006815864589e+16
5.27554109045152e+16
5.24061424679973e+16
5.20528685859646e+16
5.16955816455177e+16
5.13342741124614e+16
5.09689385316771e+16
5.05995675271817e+16
5.02261538018489e+16
4.98486901367719e+16
4.9467169390238e+16
4.90815844962915e+16
4.86919284628418e+16
4.82981943692586e+16
4.79003753634862e+16
4.74984646587752e+16
4.70924555296632e+16
4.66823413063041e+16
4.6268115368634e+16
4.58497711453993e+16
4.54273021105947e+16
4.50007017480564e+16
4.45699635176906e+16
4.41350809802423e+16
4.36960478999052e+16
4.32528573394193e+16
4.28055002458712e+16
4.23539655937672e+16
4.18982416098221e+16
4.14383163792823e+16
4.09741779241971e+16
4.05058142035759e+16
4.00332130924194e+16
3.95563623530148e+16
3.9075249602471e+16
3.85898622770955e+16
3.81001875935187e+16
3.76062125063032e+16
3.71079236617145e+16
3.66053073472844e+16
3.60983494367715e+16
3.55870353300745e+16
3.5071349887615e+16
3.45512773586535e+16
3.40268013029603e+16
3.34979045052081e+16
3.29645688813804e+16
3.24267753764595e+16
3.1884503852581e+16
3.13377329667975e+16
3.07864400375086e+16
3.02306008986815e+16
2.96701897407025e+16
2.9105178937258e+16
2.85355388565337e+16
2.79612376574438e+16
2.73822410671721e+16
2.67985121455682e+16
2.62100110253662e+16
2.56166946494581e+16
2.50185164709298e+16
2.44154261803321e+16
2.38073693659748e+16
2.31942872689529e+16
2.25761164095295e+16
2.19527884119954e+16
2.13242295671921e+16
2.06903603596369e+16
2.0051094003333e+16
1.94063298974266e+16
1.87559374500968e+16
1.80996590212337e+16
1.74370010546154e+16
1.67673590989413e+16
1.60902238559445e+16
1.54051934117477e+16
1.47118759943242e+16
1.4009828304174e+16
1.32985819740701e+16
1.25777480309402e+16
1.18472574276477e+16
1.11076749330288e+16
1.03601224983443e+16
9.6061066867699e+15
8.84805878625706e+15
8.08957765433935e+15
7.3350096763433e+15
6.58972211948832e+15
5.86021163533331e+15
5.15355388328551e+15
4.47716715596563e+15
3.83859718718656e+15
3.24489755666865e+15
2.70216453856456e+15
2.21506912061415e+15
1.78634199916789e+15
1.41667256188716e+15
1.10474300492499e+15
847311379830620
639627508642709
475701972224729
349039720430577
253231640394167
182054230772666
129805700222716
90277772662150.9
61201468724161.3
40765882228868.5
26149603978123.8
16018578381120
9536155572931.68
5734037940295.6
3641515285331.55
2514745893368.88
1900618006872.5
1556542381315.56
1358545885430.08
1242754275233.7
1175087029018.58
1136529795570.69
1115910517993.54
1106261698639.23
1103061513259.87
1103236681795.62
1105177146655.22
1107576157323.99
1109502359015.56
1110365497914.29
1109893845021.6
1107809092444.65
1103984209421.4
1098374536173.98
1090995751982.85
1081904895655.74
1071188720488.4
1058954838225.69
1045324977856.34
1030429686395.31
1014404147167.76
997384853139.337
979506994956.162
960902146586.194
941696707244.693
922005685316.44
901929239785.674
881567943694.638
861024497699.149
840394265232.372
819765496252.332
799218016941.529
778822983716.92
758643143122.419
738733216394.469
719140356697.698
699904644201.168
681059607032.442
662632792067.111
644646441753.186
627117989841.325
610060215255.067
593483619257.35
577392185850.991
561783063744.68
546655731882.335
532008734864.281
517836324507.692
504131091851.697
490884091504.044
478085351743.971
465724373128.815
453790298599.76
442272137951.311
431158635619.842
420438191459.844
410099011409.116
400128690221.838
390514619417.477
381233428156.111
372260552598.668
363583568142.217
355193444457.506
347082407041.535
339243366712.584
331669853366.696
324356061881.181
317296905583.024
310488116833.098
303925635751.898
297605316932.625
291507580692.872
285600225387.19
279874553962.637
274344947175.068
269028385837.369
263943099206.313
259057800762.662
254352408483.863
249879046818.746
245668322680.576
241740432946.431
238186442516.379
235140727163.16
232878616525.265
231908583570.359
233067941205.575
)
;

boundaryField
{
    electrode
    {
        type            driftDiffusionElectronDensity;
        seec            0.05;
        Edepend         1;
        field_emission  0;
        field_enhancement_factor 55;
        work_function   5;
        value           uniform 6.88892017869729e+16;
    }
    ground
    {
        type            driftDiffusionElectronDensity;
        seec            0.05;
        Edepend         1;
        field_emission  0;
        field_enhancement_factor 55;
        work_function   5;
        value           uniform 235319141588.589;
    }
    otherfaces
    {
        type            empty;
    }
}


// ************************************************************************* //
