/*--------------------------------*- C++ -*----------------------------------*\
| =========                 |                                                 |
| \\      /  F ield         | foam-extend: Open Source CFD                    |
|  \\    /   O peration     | Version:     4.0                                |
|   \\  /    A nd           | Web:         http://www.foam-extend.org         |
|    \\/     M anipulation  |                                                 |
\*---------------------------------------------------------------------------*/
FoamFile
{
    version     2.0;
    format      ascii;
    class       volVectorField;
    location    "9.7e-06";
    object      J_electron;
}
// * * * * * * * * * * * * * * * * * * * * * * * * * * * * * * * * * * * * * //

dimensions      [1 -1 -1 0 0 0 0];

internalField   nonuniform List<vector> 
300
(
(-1.34432122033019e+19 0 0)
(-1.37997281774573e+19 0 0)
(-1.6319392792421e+19 0 0)
(-1.58070245430575e+19 0 0)
(-1.5798931250997e+19 0 0)
(-1.57840725824346e+19 0 0)
(-1.57140799864665e+19 0 0)
(-1.56611622926963e+19 0 0)
(-1.56058164686413e+19 0 0)
(-1.55497258652273e+19 0 0)
(-1.54940244194741e+19 0 0)
(-1.54381891367114e+19 0 0)
(-1.53823166908933e+19 0 0)
(-1.53264130966267e+19 0 0)
(-1.52704645000206e+19 0 0)
(-1.52144715149663e+19 0 0)
(-1.51584311408418e+19 0 0)
(-1.51023405287855e+19 0 0)
(-1.50461971431172e+19 0 0)
(-1.49899982309499e+19 0 0)
(-1.49337412703959e+19 0 0)
(-1.48774236194143e+19 0 0)
(-1.48210427556913e+19 0 0)
(-1.47645961004081e+19 0 0)
(-1.47080811944966e+19 0 0)
(-1.46514955633765e+19 0 0)
(-1.45948367644293e+19 0 0)
(-1.45381023865499e+19 0 0)
(-1.44812901054587e+19 0 0)
(-1.44243975294622e+19 0 0)
(-1.43674223869441e+19 0 0)
(-1.43103624481614e+19 0 0)
(-1.42532154280865e+19 0 0)
(-1.41959792166276e+19 0 0)
(-1.4138651615024e+19 0 0)
(-1.40812305799317e+19 0 0)
(-1.40237139835751e+19 0 0)
(-1.39660998831962e+19 0 0)
(-1.39083862430617e+19 0 0)
(-1.38505711761288e+19 0 0)
(-1.37926527874454e+19 0 0)
(-1.37346292320431e+19 0 0)
(-1.36764987320078e+19 0 0)
(-1.36182595297214e+19 0 0)
(-1.35599099418787e+19 0 0)
(-1.35014483000896e+19 0 0)
(-1.34428730401683e+19 0 0)
(-1.33841825554191e+19 0 0)
(-1.33253753938484e+19 0 0)
(-1.32664500730981e+19 0 0)
(-1.32074051880828e+19 0 0)
(-1.31482394276851e+19 0 0)
(-1.30889514394856e+19 0 0)
(-1.30295399708143e+19 0 0)
(-1.29700038728276e+19 0 0)
(-1.29103419562255e+19 0 0)
(-1.28505531026186e+19 0 0)
(-1.27906363078143e+19 0 0)
(-1.27305905419843e+19 0 0)
(-1.26704148331364e+19 0 0)
(-1.261010832774e+19 0 0)
(-1.25496701431846e+19 0 0)
(-1.24890994773774e+19 0 0)
(-1.2428395569255e+19 0 0)
(-1.23675577079135e+19 0 0)
(-1.23065852124765e+19 0 0)
(-1.22454775064075e+19 0 0)
(-1.2184233965145e+19 0 0)
(-1.21228540613726e+19 0 0)
(-1.20613373069458e+19 0 0)
(-1.19996832436173e+19 0 0)
(-1.19378914396458e+19 0 0)
(-1.18759615116322e+19 0 0)
(-1.18138931110777e+19 0 0)
(-1.17516859049362e+19 0 0)
(-1.16893396128865e+19 0 0)
(-1.16268539496948e+19 0 0)
(-1.15642286789744e+19 0 0)
(-1.15014635424989e+19 0 0)
(-1.14385583611178e+19 0 0)
(-1.13755128925693e+19 0 0)
(-1.13123269352977e+19 0 0)
(-1.12490003374906e+19 0 0)
(-1.11855328528685e+19 0 0)
(-1.11219242650137e+19 0 0)
(-1.10581744231551e+19 0 0)
(-1.09942829783313e+19 0 0)
(-1.09302497392308e+19 0 0)
(-1.08660743828626e+19 0 0)
(-1.08017565169206e+19 0 0)
(-1.07372957617881e+19 0 0)
(-1.06726916807952e+19 0 0)
(-1.06079436995009e+19 0 0)
(-1.05430512158219e+19 0 0)
(-1.04780135372397e+19 0 0)
(-1.04128298054331e+19 0 0)
(-1.03474991207416e+19 0 0)
(-1.02820203795353e+19 0 0)
(-1.02163923833586e+19 0 0)
(-1.01506137201307e+19 0 0)
(-1.00846828250941e+19 0 0)
(-1.00185978919767e+19 0 0)
(-9.95235691509685e+18 0 0)
(-9.88595759945404e+18 0 0)
(-9.81939740987464e+18 0 0)
(-9.75267347185952e+18 0 0)
(-9.68578253524356e+18 0 0)
(-9.61872089286653e+18 0 0)
(-9.55148481959664e+18 0 0)
(-9.48407038125434e+18 0 0)
(-9.41647139188087e+18 0 0)
(-9.34867889357744e+18 0 0)
(-9.28069258652995e+18 0 0)
(-9.21252589890385e+18 0 0)
(-9.14414328474973e+18 0 0)
(-9.07542093217346e+18 0 0)
(-9.00647458956483e+18 0 0)
(-8.93790793787716e+18 0 0)
(-8.86901138036464e+18 0 0)
(-8.79581087221206e+18 0 0)
(-8.71981471159602e+18 0 0)
(-8.64660488448167e+18 0 0)
(-8.57550816731831e+18 0 0)
(-8.50436289311801e+18 0 0)
(-8.43286566090047e+18 0 0)
(-8.36092780798175e+18 0 0)
(-8.28850450598252e+18 0 0)
(-8.21556440608119e+18 0 0)
(-8.14207633332162e+18 0 0)
(-8.06800652063579e+18 0 0)
(-7.99331759417616e+18 0 0)
(-7.91796821027979e+18 0 0)
(-7.84191237385041e+18 0 0)
(-7.76509912429468e+18 0 0)
(-7.68747183088704e+18 0 0)
(-7.60896758045318e+18 0 0)
(-7.52951646452082e+18 0 0)
(-7.44904070632309e+18 0 0)
(-7.36745378586978e+18 0 0)
(-7.28465931438339e+18 0 0)
(-7.20054982437084e+18 0 0)
(-7.11500551982206e+18 0 0)
(-7.02789251486974e+18 0 0)
(-6.93906132136624e+18 0 0)
(-6.84834442314777e+18 0 0)
(-6.75555485840363e+18 0 0)
(-6.66048159509538e+18 0 0)
(-6.56289104271612e+18 0 0)
(-6.46251401646388e+18 0 0)
(-6.35906202872788e+18 0 0)
(-6.25218204705646e+18 0 0)
(-6.1415326727306e+18 0 0)
(-6.02662119062005e+18 0 0)
(-5.90709583963803e+18 0 0)
(-5.78218833595282e+18 0 0)
(-5.65168915522309e+18 0 0)
(-5.51424476769681e+18 0 0)
(-5.37015757711081e+18 0 0)
(-5.21686149389353e+18 0 0)
(-5.05579531112599e+18 0 0)
(-4.88206346450842e+18 0 0)
(-4.697536151034e+18 0 0)
(-4.49260209352632e+18 0 0)
(-4.24922757200557e+18 0 0)
(-3.93497268971897e+18 0 0)
(-3.20101474558909e+18 0 0)
(-2.30491970920671e+18 0 0)
(-2.03664416910606e+18 0 0)
(-2.00802645918823e+18 0 0)
(-1.72472019312548e+18 0 0)
(-1.14641629610718e+18 0 0)
(-4.32115494007341e+17 0 0)
(2.14727196133032e+17 0 0)
(6.71388732588294e+17 0 0)
(4.60863849859383e+17 0 0)
(-3.1127341164816e+17 0 0)
(-1.49728658582405e+16 0 0)
(3.09542389292204e+17 0 0)
(-1.50423832980305e+18 0 0)
(-2.25715447299729e+18 0 0)
(-2.03869080452176e+18 0 0)
(-3.80727598045882e+18 0 0)
(-4.36484057947596e+18 0 0)
(-3.92234911443766e+18 0 0)
(-3.72280845755063e+18 0 0)
(-2.95237456227834e+18 0 0)
(-8.8234998632756e+17 0 0)
(1.11856531636801e+18 0 0)
(4.12199810460444e+18 0 0)
(7.43943563878754e+18 0 0)
(1.00799226233854e+19 0 0)
(1.23973349335535e+19 0 0)
(1.41113082011698e+19 0 0)
(1.44070767383822e+19 0 0)
(1.47915603653849e+19 0 0)
(1.27312053317232e+19 0 0)
(1.06796868462513e+19 0 0)
(8.78693283573046e+18 0 0)
(6.4005502775081e+18 0 0)
(9.24048888347984e+18 0 0)
(-4.69478935042684e+18 0 0)
(2.41099383641629e+18 0 0)
(-3.45980063077245e+17 0 0)
(-2.09797398344144e+18 0 0)
(-2.01783865588209e+18 0 0)
(-1.98084116646972e+18 0 0)
(-2.13025269504632e+18 0 0)
(-2.43459186628995e+18 0 0)
(-2.70874119242549e+18 0 0)
(-2.87932760998577e+18 0 0)
(-2.95792543462608e+18 0 0)
(-2.98277877446391e+18 0 0)
(-2.97441589979741e+18 0 0)
(-2.95219796133099e+18 0 0)
(-2.91824788732453e+18 0 0)
(-2.8847444907813e+18 0 0)
(-2.84476356572325e+18 0 0)
(-2.80049279873407e+18 0 0)
(-2.75448551707263e+18 0 0)
(-2.70853005704622e+18 0 0)
(-2.66306325042561e+18 0 0)
(-2.61607173669664e+18 0 0)
(-2.56917103440507e+18 0 0)
(-2.52238369080399e+18 0 0)
(-2.47502133141958e+18 0 0)
(-2.42765082080878e+18 0 0)
(-2.38031742563969e+18 0 0)
(-2.33315881128705e+18 0 0)
(-2.28626749914191e+18 0 0)
(-2.23973136912247e+18 0 0)
(-2.19362940014151e+18 0 0)
(-2.14803351875069e+18 0 0)
(-2.10300889613623e+18 0 0)
(-2.05861337627112e+18 0 0)
(-2.01489885804686e+18 0 0)
(-1.97190667679003e+18 0 0)
(-1.92968187109876e+18 0 0)
(-1.88819344408092e+18 0 0)
(-1.84755500630401e+18 0 0)
(-1.80791223585421e+18 0 0)
(-1.76901180818925e+18 0 0)
(-1.73100120675745e+18 0 0)
(-1.69386261566722e+18 0 0)
(-1.65760605527051e+18 0 0)
(-1.62223607582121e+18 0 0)
(-1.58774957292292e+18 0 0)
(-1.55414046418295e+18 0 0)
(-1.52139953227594e+18 0 0)
(-1.48951544957011e+18 0 0)
(-1.45847468813344e+18 0 0)
(-1.42826263950501e+18 0 0)
(-1.39886348750712e+18 0 0)
(-1.37026267191088e+18 0 0)
(-1.34243788247062e+18 0 0)
(-1.31539776915385e+18 0 0)
(-1.28901503128849e+18 0 0)
(-1.26341712193751e+18 0 0)
(-1.2385513015403e+18 0 0)
(-1.21428174783724e+18 0 0)
(-1.19069687547708e+18 0 0)
(-1.16773957597798e+18 0 0)
(-1.14539528411345e+18 0 0)
(-1.12364244211098e+18 0 0)
(-1.10246311872387e+18 0 0)
(-1.08184251065652e+18 0 0)
(-1.06175936067412e+18 0 0)
(-1.04219477285662e+18 0 0)
(-1.02313320435281e+18 0 0)
(-1.00455882996623e+18 0 0)
(-9.864478693009e+17 0 0)
(-9.68801256033216e+17 0 0)
(-9.51462945634939e+17 0 0)
(-9.34783025546398e+17 0 0)
(-9.1843305303948e+17 0 0)
(-9.02462606681088e+17 0 0)
(-8.86872269344858e+17 0 0)
(-8.71655024655861e+17 0 0)
(-8.56800099710715e+17 0 0)
(-8.42296676308906e+17 0 0)
(-8.28133392242019e+17 0 0)
(-8.14300305728946e+17 0 0)
(-8.00778906128535e+17 0 0)
(-7.8757003417322e+17 0 0)
(-7.74508307495662e+17 0 0)
(-7.61941743406583e+17 0 0)
(-7.49838237644406e+17 0 0)
(-7.37862358295425e+17 0 0)
(-7.2615396135035e+17 0 0)
(-7.14737307245973e+17 0 0)
(-7.03173559742955e+17 0 0)
(-6.92798007659946e+17 0 0)
(-6.82317219934831e+17 0 0)
(-6.71812024146514e+17 0 0)
(-6.62007330900726e+17 0 0)
(-6.52655617730219e+17 0 0)
(-6.43320241803049e+17 0 0)
(-6.35117275511339e+17 0 0)
(-6.27799721548285e+17 0 0)
(-6.21379473638612e+17 0 0)
(-6.10331743227843e+17 0 0)
)
;

boundaryField
{
    electrode
    {
        type            calculated;
        value           uniform (-1.60814445109983e+19 0 0);
    }
    ground
    {
        type            calculated;
        value           uniform (-6.07667736525372e+17 0 0);
    }
    otherfaces
    {
        type            empty;
    }
}


// ************************************************************************* //
