/*--------------------------------*- C++ -*----------------------------------*\
| =========                 |                                                 |
| \\      /  F ield         | foam-extend: Open Source CFD                    |
|  \\    /   O peration     | Version:     4.0                                |
|   \\  /    A nd           | Web:         http://www.foam-extend.org         |
|    \\/     M anipulation  |                                                 |
\*---------------------------------------------------------------------------*/
FoamFile
{
    version     2.0;
    format      ascii;
    class       volScalarField;
    location    "9.7e-06";
    object      Phi;
}
// * * * * * * * * * * * * * * * * * * * * * * * * * * * * * * * * * * * * * //

dimensions      [0 0 0 1 0 0 0];

internalField   nonuniform List<scalar> 
300
(
699.99993081369
699.999704590083
699.999177229664
699.998380735478
699.997323411729
699.995999834228
699.994410865414
699.992556090148
699.99043494983
699.988046964783
699.985391560677
699.982468112814
699.979275944224
699.975814322245
699.972082459435
699.968079513015
699.963804584445
699.95925671903
699.954434905471
699.949338075395
699.943965102858
699.938314803815
699.932385935564
699.926177196165
699.919687223821
699.91291459623
699.905857829908
699.898515379478
699.890885636921
699.8829669308
699.874757525439
699.866255620076
699.857459347963
699.848366775444
699.838975900979
699.829284654133
699.819290894515
699.808992410686
699.798386919002
699.787472062424
699.776245409271
699.764704451922
699.75284660547
699.74066920631
699.728169510681
699.715344693143
699.702191844986
699.688707972589
699.674889995697
699.660734745637
699.646238963461
699.631399298006
699.616212303887
699.600674439398
699.584782064331
699.568531437709
699.551918715419
699.534939947755
699.517591076854
699.49986793403
699.481766236995
699.463281586967
699.444409465652
699.425145232103
699.40548411945
699.385421231481
699.364951539088
699.344069876556
699.322770937691
699.301049271784
699.278899279396
699.256315207962
699.233291147198
699.209821024305
699.185898598961
699.161517458086
699.136671010371
699.111352480557
699.085554903453
699.059271117678
699.032493759107
699.005215254016
698.977427811897
698.949123417937
698.920293825126
698.890930545996
698.861024843942
698.830567724125
698.799549923919
698.767961902882
698.735793832212
698.703035583674
698.669676717947
698.635706472373
698.601113748053
698.565887096265
698.530014704153
698.493484379636
698.456283535496
698.418399172583
698.379817862086
698.340525726798
698.300508421309
698.259751111065
698.218238450193
698.175954558023
698.132882994201
698.08900673231
698.044308131853
697.998768908508
697.952370102555
697.905092045338
697.856914323349
697.807815739667
697.757774274046
697.706767042282
697.654770246585
697.601759110736
697.547707843139
697.492589667569
697.436376684966
697.379039359264
697.320546548446
697.260865720445
697.199962900966
697.137802577155
697.074347601334
697.009559086494
696.943396293188
696.875816507106
696.806774906342
696.736224417296
696.664115558023
696.590396267684
696.515011720602
696.437904123213
696.359012492001
696.278272410236
696.195615761041
696.110970433986
696.024260001993
695.935403364891
695.84431435543
695.750901302927
695.655066548984
695.556705908908
695.455708071345
695.351953927676
695.245315820836
695.135656702618
695.022829184145
694.906674467058
694.787021128937
694.663683756453
694.536461367789
694.405135656809
694.269468897784
694.129201699725
693.984050129995
693.833702897274
693.677817223998
693.516015452278
693.347878828317
693.17294350884
692.990690799516
692.800541501743
692.601829539129
692.393671692247
692.175002819172
691.944701322055
691.701518676252
691.444022875156
691.170489881
690.878879493886
690.566768863798
690.231361522278
689.869673318638
689.47852228025
689.05384317653
688.591175356452
688.086328991119
687.534073591273
686.928731813452
686.265189147947
685.537407111921
684.739379975891
683.865743230447
682.910755669083
681.869116286596
680.73664106309
679.509034298937
678.182697168035
676.755488220373
675.225556067402
673.591339208576
671.852259645693
670.008549138251
668.060607717206
666.008776760884
663.853541471717
661.595326836453
659.234950465173
656.772660668901
654.207585935677
651.539053248321
648.766600562023
645.890333608218
642.910775484381
639.828809886571
636.645417480575
633.361606586954
629.978325677838
626.49646260945
622.916801778069
619.240285375842
615.468019170604
611.60102381556
607.640219793275
603.586453864496
599.440484190575
595.203006999867
590.87463961052
586.455948137618
581.947429047312
577.349536679016
572.66266227616
567.887433673251
563.024474844085
558.074388783466
553.037716948839
547.914987401088
542.706671042109
537.413231687591
532.035079280564
526.572622096336
521.02621684843
515.396223302293
509.682951257936
503.886717602817
498.007790309436
492.046447986799
486.002920826919
479.87752520567
473.670674701212
467.382796666653
461.014271708298
454.565497301508
448.036824296398
441.428623236445
434.74121792078
427.974954416648
421.13013167101
414.207073314838
407.206055332876
400.127380646362
392.971303794301
385.738108392935
378.428028819185
371.04133060277
363.578229008156
356.03897255997
348.423758365733
340.732818838226
332.966333745564
325.124520161011
317.207549982359
309.215772387467
301.149463128244
293.008961243965
284.794526067836
276.506482488884
268.145074274616
259.71061302555
251.203327759202
242.623517585472
233.97139753582
225.247254971119
216.451291625728
207.583783780888
198.644920498353
189.634967575157
180.554101941875
171.402579426853
162.180565325544
152.888305998908
143.525955663326
134.093751870821
124.591838275532
115.020444051391
105.379702705353
95.6698354278977
85.8909659199126
76.0433081451976
66.1269767322583
56.1421787183819
46.0890201619148
35.967702187317
25.7783229655647
15.5210862823313
5.19613962640065
)
;

boundaryField
{
    electrode
    {
        type            fixedValue;
        value           uniform 700;
    }
    ground
    {
        type            fixedValue;
        value           uniform 0;
    }
    otherfaces
    {
        type            empty;
    }
}


// ************************************************************************* //
