/*--------------------------------*- C++ -*----------------------------------*\
| =========                 |                                                 |
| \\      /  F ield         | foam-extend: Open Source CFD                    |
|  \\    /   O peration     | Version:     4.0                                |
|   \\  /    A nd           | Web:         http://www.foam-extend.org         |
|    \\/     M anipulation  |                                                 |
\*---------------------------------------------------------------------------*/
FoamFile
{
    version     2.0;
    format      ascii;
    class       volScalarField;
    location    "9.7e-06";
    object      Sy_electron;
}
// * * * * * * * * * * * * * * * * * * * * * * * * * * * * * * * * * * * * * //

dimensions      [1 -3 -1 0 0 0 0];

internalField   nonuniform List<scalar> 
300
(
3.05348105965384e-09
3.05412303975215e-09
3.05433955647015e-09
3.0542267894476e-09
3.05411871760495e-09
3.05394887148652e-09
3.05372493822198e-09
3.05345172345661e-09
3.05312699680884e-09
3.05275088166768e-09
3.05232311863041e-09
3.05184335185446e-09
3.05131126823359e-09
3.05072652689671e-09
3.0500887737162e-09
3.04939764199701e-09
3.04865275093397e-09
3.04785370600761e-09
3.04700009884553e-09
3.04609150710586e-09
3.04512749440297e-09
3.0441076102108e-09
3.04303138977438e-09
3.0418983540097e-09
3.04070800938079e-09
3.03945984787403e-09
3.03815334682571e-09
3.03678796883473e-09
3.03536316168518e-09
3.03387835819816e-09
3.03233297610182e-09
3.0307264179958e-09
3.0290580711946e-09
3.02732730758226e-09
3.02553348350297e-09
3.02367593963795e-09
3.02175400086202e-09
3.01976697612969e-09
3.01771415833175e-09
3.01559482413912e-09
3.01340823386267e-09
3.01115363130587e-09
3.00883024360774e-09
3.00643728107327e-09
3.00397393701439e-09
3.00143938757771e-09
2.99883279156057e-09
2.99615329024034e-09
2.9934000071565e-09
2.99057204794783e-09
2.98766850012531e-09
2.98468843290751e-09
2.98163089694404e-09
2.97849492415846e-09
2.9752795274527e-09
2.97198370049621e-09
2.96860641744739e-09
2.96514663270851e-09
2.96160328064594e-09
2.95797527532484e-09
2.95426151021989e-09
2.95046085789317e-09
2.9465721696874e-09
2.94259427538062e-09
2.93852598290005e-09
2.93436607796797e-09
2.93011332366352e-09
2.92576646007859e-09
2.92132420391379e-09
2.91678524806488e-09
2.91214826118623e-09
2.90741188723258e-09
2.9025747450119e-09
2.89763542768935e-09
2.89259250224188e-09
2.88744450897138e-09
2.88218996093364e-09
2.87682734333973e-09
2.87135511299128e-09
2.8657716975386e-09
2.86007549499701e-09
2.85426487290163e-09
2.84833816762455e-09
2.84229368363938e-09
2.836129692692e-09
2.82984443303522e-09
2.8234361085328e-09
2.8169028877289e-09
2.81024290289739e-09
2.80345424909669e-09
2.79653498307522e-09
2.78948312214454e-09
2.78229664323134e-09
2.77497348145603e-09
2.76751152894725e-09
2.75990863351716e-09
2.75216259727325e-09
2.74427117515467e-09
2.73623207338813e-09
2.72804294790297e-09
2.71970140262346e-09
2.71120498767112e-09
2.70255119744955e-09
2.69373746878933e-09
2.68476117872777e-09
2.67561964236496e-09
2.66631011058508e-09
2.65682976754696e-09
2.64717572814576e-09
2.63734503513014e-09
2.62733465647283e-09
2.61714148300379e-09
2.60676232396482e-09
2.5961938996316e-09
2.58543284358127e-09
2.57447572200699e-09
2.56331900268563e-09
2.55195892473103e-09
2.5403916399728e-09
2.52861400497948e-09
2.51708425675925e-09
2.50719370788027e-09
2.49709885566998e-09
2.48679435808166e-09
2.4762752048237e-09
2.46553629375136e-09
2.45457237017413e-09
2.44337800528278e-09
2.43194758220842e-09
2.42027528465822e-09
2.40835508534194e-09
2.39618073379998e-09
2.38374574331678e-09
2.37104337688728e-09
2.35806663218862e-09
2.34480822547442e-09
2.33126057409179e-09
2.31741577773946e-09
2.30326559831229e-09
2.28880143816355e-09
2.27401431656273e-09
2.25889484433694e-09
2.24343319644492e-09
2.22761908232663e-09
2.21144171384925e-09
2.19488977050427e-09
2.17795136185627e-09
2.16061398633192e-09
2.14286448781179e-09
2.12468900580711e-09
2.10607292698837e-09
2.08700082155702e-09
2.06745639505026e-09
2.04742239737775e-09
2.02688059392439e-09
2.00581161282064e-09
1.98419498150848e-09
1.96200884633638e-09
1.93923016389052e-09
1.91583421365508e-09
1.89179509050176e-09
1.86708541433508e-09
1.84167753378424e-09
1.81554965847658e-09
1.78869304479627e-09
1.76122030032547e-09
1.73327166482752e-09
1.70461334537525e-09
1.6753583827511e-09
1.64633080061298e-09
1.61618923352904e-09
1.58499353047383e-09
1.55265213354003e-09
1.51891981109673e-09
1.48326943752048e-09
1.44497331676289e-09
1.40409501336767e-09
1.36108344657883e-09
1.31485648491496e-09
1.26477018012879e-09
1.21201553601492e-09
1.15604309319114e-09
1.09369265864907e-09
1.03022860318366e-09
9.67070799690517e-10
9.05608958437119e-10
8.48794299268345e-10
7.9658795097484e-10
7.50058135370982e-10
7.20751761810305e-10
7.00956021556167e-10
7.04157091589586e-10
7.23938073756437e-10
7.72035429435466e-10
8.56248690850757e-10
9.92490933202939e-10
1.20973622379554e-09
1.56649813795455e-09
2.17478521390086e-09
3.266056852328e-09
4.59976528352943e-09
5.80290929771217e-09
7.08078770997018e-09
7.36133866472242e-09
6.57749366296624e-09
5.30175185038114e-09
3.99818003003066e-09
3.01290512666674e-09
2.3288584482165e-09
1.89834508464186e-09
1.63496733070434e-09
1.47421693725947e-09
1.37721880643881e-09
1.32203487984539e-09
1.29536579059661e-09
1.27978714826799e-09
1.27556234580728e-09
1.27785201578523e-09
1.28333586284225e-09
1.29029500926628e-09
1.29730516055691e-09
1.301980942788e-09
1.30461855516295e-09
1.30554273845012e-09
1.30444282489905e-09
1.30118261989729e-09
1.29571957377661e-09
1.28808026709424e-09
1.27833852362675e-09
1.2666021266039e-09
1.25300265319415e-09
1.23768772737861e-09
1.22081491412058e-09
1.20254689360814e-09
1.18304761430386e-09
1.16247927423817e-09
1.14099962301561e-09
1.1187602368319e-09
1.09589901671973e-09
1.07253582006454e-09
1.04879122319455e-09
1.02478858533505e-09
1.00064238151793e-09
9.76458670104321e-10
9.52333493428328e-10
9.28352592652295e-10
9.04591719640917e-10
8.81117091228345e-10
8.57985928290664e-10
8.35247039845315e-10
8.12941436610473e-10
7.91021547922516e-10
7.69550246509276e-10
7.48625564295384e-10
7.28262756028411e-10
7.08474357668836e-10
6.89265124993234e-10
6.70631654284054e-10
6.52573323399419e-10
6.35088394983972e-10
6.18170006993827e-10
6.01809314983113e-10
5.85986339110994e-10
5.70557093957436e-10
5.55630327649952e-10
5.41193782544587e-10
5.27235006645432e-10
5.13741188821495e-10
5.00699059628861e-10
4.88095083237022e-10
4.75914938103343e-10
4.64144184362318e-10
4.52755334897728e-10
4.41719433571125e-10
4.31022202385621e-10
4.20653209688709e-10
4.10603429434325e-10
4.00864576614719e-10
3.91429028259214e-10
3.82289871627497e-10
3.73440956485908e-10
3.64877011485269e-10
3.56592896962689e-10
3.48227761627057e-10
3.3979495334936e-10
3.31566367449514e-10
3.23531039495556e-10
3.15704293189407e-10
3.08103186978421e-10
3.00718952959744e-10
2.92257446022982e-10
2.83965314960982e-10
2.75894552610075e-10
2.67364541270113e-10
2.57560887893823e-10
2.48079768049733e-10
2.35762228983979e-10
2.22253727115951e-10
2.05039908883698e-10
1.80174976203722e-10
)
;

boundaryField
{
    electrode
    {
        type            zeroGradient;
    }
    ground
    {
        type            zeroGradient;
    }
    otherfaces
    {
        type            empty;
    }
}


// ************************************************************************* //
