/*--------------------------------*- C++ -*----------------------------------*\
| =========                 |                                                 |
| \\      /  F ield         | foam-extend: Open Source CFD                    |
|  \\    /   O peration     | Version:     4.0                                |
|   \\  /    A nd           | Web:         http://www.foam-extend.org         |
|    \\/     M anipulation  |                                                 |
\*---------------------------------------------------------------------------*/
FoamFile
{
    version     2.0;
    format      ascii;
    class       volVectorField;
    location    "8.4e-06";
    object      E;
}
// * * * * * * * * * * * * * * * * * * * * * * * * * * * * * * * * * * * * * //

dimensions      [0 0 0 1 0 0 0];

internalField   nonuniform List<vector> 
300
(
(5.44141029734658 -0 -0)
(11.0847121440049 -0 -0)
(19.5124361043742 -0 -0)
(27.3265042885498 -0 -0)
(35.0962710643491 -0 -0)
(42.9339648957976 -0 -0)
(50.765087550309 -0 -0)
(58.6111095032803 -0 -0)
(66.4729377250491 -0 -0)
(74.3508900488695 -0 -0)
(82.2471839259637 -0 -0)
(90.1634044842012 -0 -0)
(98.1012195103169 -0 -0)
(106.062333241062 -0 -0)
(114.04844513785 -0 -0)
(122.061269716701 -0 -0)
(130.102533958673 -0 -0)
(138.173977755342 -0 -0)
(146.277355145276 -0 -0)
(154.414434976044 -0 -0)
(162.587001845129 -0 -0)
(170.796856870105 -0 -0)
(179.045818675391 -0 -0)
(187.335724208261 -0 -0)
(195.668429721354 -0 -0)
(204.045811705296 -0 -0)
(212.469767850445 -0 -0)
(220.942218091827 -0 -0)
(229.465105575083 -0 -0)
(238.040397743114 -0 -0)
(246.670087451798 -0 -0)
(255.356194031557 -0 -0)
(264.100764478551 -0 -0)
(272.905874636215 -0 -0)
(281.773630399161 -0 -0)
(290.706169020524 -0 -0)
(299.705660380985 -0 -0)
(308.77430837594 -0 -0)
(317.914352260284 -0 -0)
(327.128068163018 -0 -0)
(336.41777053277 -0 -0)
(345.785813728219 -0 -0)
(355.234593603405 -0 -0)
(364.766549190638 -0 -0)
(374.38416444078 -0 -0)
(384.089970029185 -0 -0)
(393.886545188491 -0 -0)
(403.77651971128 -0 -0)
(413.762575972352 -0 -0)
(423.847451007291 -0 -0)
(434.033938706602 -0 -0)
(444.324892133516 -0 -0)
(454.723225898255 -0 -0)
(465.231918639389 -0 -0)
(475.854015641366 -0 -0)
(486.592631504428 -0 -0)
(497.450953004845 -0 -0)
(508.432242049601 -0 -0)
(519.539838750202 -0 -0)
(530.777164665981 -0 -0)
(542.147726170836 -0 -0)
(553.655117980944 -0 -0)
(565.303026893511 -0 -0)
(577.095235632153 -0 -0)
(589.03562689521 -0 -0)
(601.128187639802 -0 -0)
(613.377013535047 -0 -0)
(625.786313639005 -0 -0)
(638.360415319898 -0 -0)
(651.103769421018 -0 -0)
(664.020955641478 -0 -0)
(677.116688260834 -0 -0)
(690.395822144985 -0 -0)
(703.863358976344 -0 -0)
(717.524453931823 -0 -0)
(731.384422600413 -0 -0)
(745.448748370876 -0 -0)
(759.723090104706 -0 -0)
(774.21329032775 -0 -0)
(788.925383816812 -0 -0)
(803.865606621801 -0 -0)
(819.040405664134 -0 -0)
(834.456448814249 -0 -0)
(850.120635549705 -0 -0)
(866.040108256445 -0 -0)
(882.222264108985 -0 -0)
(898.674767718754 -0 -0)
(915.405564483418 -0 -0)
(932.422894690622 -0 -0)
(949.735308505932 -0 -0)
(967.351681907634 -0 -0)
(985.281233471611 -0 -0)
(1003.53354236536 -0 -0)
(1022.11856728439 -0 -0)
(1041.04666634304 -0 -0)
(1060.32861838672 -0 -0)
(1079.97564739876 -0 -0)
(1099.99944915262 -0 -0)
(1120.41221045506 -0 -0)
(1141.22661766536 -0 -0)
(1162.45590658347 -0 -0)
(1184.11401455339 -0 -0)
(1206.215609799 -0 -0)
(1228.77546664377 -0 -0)
(1251.80795690917 -0 -0)
(1275.33010587112 -0 -0)
(1299.36659126449 -0 -0)
(1323.9437540198 -0 -0)
(1349.08316018075 -0 -0)
(1374.80515014748 -0 -0)
(1401.13099668395 -0 -0)
(1428.08306616854 -0 -0)
(1455.68488190526 -0 -0)
(1483.96121125869 -0 -0)
(1512.93815017788 -0 -0)
(1542.64321342409 -0 -0)
(1573.10543190559 -0 -0)
(1604.35545809315 -0 -0)
(1636.4256803455 -0 -0)
(1669.35034723887 -0 -0)
(1703.16570277126 -0 -0)
(1737.91013359479 -0 -0)
(1773.62432953756 -0 -0)
(1810.35145895869 -0 -0)
(1848.13736034507 -0 -0)
(1887.03075207373 -0 -0)
(1927.08346236791 -0 -0)
(1968.35068167579 -0 -0)
(2010.89124012725 -0 -0)
(2054.76791306386 -0 -0)
(2100.0477577869 -0 -0)
(2146.80248557271 -0 -0)
(2195.10887323774 -0 -0)
(2245.04921901247 -0 -0)
(2296.71184875405 -0 -0)
(2350.19167875595 -0 -0)
(2405.59084273236 -0 -0)
(2463.0193917452 -0 -0)
(2522.59607693456 -0 -0)
(2584.44922659837 -0 -0)
(2648.71773132136 -0 -0)
(2715.55215249383 -0 -0)
(2785.11597270963 -0 -0)
(2857.58700924902 -0 -0)
(2933.15901600976 -0 -0)
(3012.04350264756 -0 -0)
(3094.47180717213 -0 -0)
(3180.69746036461 -0 -0)
(3270.99889509764 -0 -0)
(3365.68255489864 -0 -0)
(3465.08646187942 -0 -0)
(3569.58438306112 -0 -0)
(3679.59050981171 -0 -0)
(3795.56527004454 -0 -0)
(3918.02111720998 -0 -0)
(4047.53179258684 -0 -0)
(4184.73724581905 -0 -0)
(4330.36198543068 -0 -0)
(4485.21313978535 -0 -0)
(4650.21878643164 -0 -0)
(4826.40491032041 -0 -0)
(5014.98996454459 -0 -0)
(5217.27472661879 -0 -0)
(5434.92697358008 -0 -0)
(5669.64402282023 -0 -0)
(5924.21757310191 -0 -0)
(6204.44760741925 -0 -0)
(6515.54757776029 -0 -0)
(6860.17608622844 -0 -0)
(7241.71298266545 -0 -0)
(7665.50884299724 -0 -0)
(8139.65977590994 -0 -0)
(8673.50126354352 -0 -0)
(9278.03351584527 -0 -0)
(9964.59263821979 -0 -0)
(10738.329179275 -0 -0)
(11607.6795892551 -0 -0)
(12591.9727510067 -0 -0)
(13703.54178301 -0 -0)
(14946.8485608996 -0 -0)
(16338.413383352 -0 -0)
(17891.0469371763 -0 -0)
(19604.3606943573 -0 -0)
(21490.1539712134 -0 -0)
(23550.4994284967 -0 -0)
(25775.6208451919 -0 -0)
(28168.16544451 -0 -0)
(30716.7456946191 -0 -0)
(33397.5814862409 -0 -0)
(36202.4393817149 -0 -0)
(39114.25895064 -0 -0)
(42101.6796230339 -0 -0)
(45144.7651361074 -0 -0)
(48235.2788026242 -0 -0)
(51349.690464322 -0 -0)
(54462.6475366803 -0 -0)
(57564.8853124144 -0 -0)
(60656.2156971808 -0 -0)
(63737.0402914157 -0 -0)
(66804.3268876198 -0 -0)
(69853.4166828055 -0 -0)
(72893.8054528065 -0 -0)
(75950.6111989549 -0 -0)
(79031.7355115911 -0 -0)
(82128.7830418127 -0 -0)
(85226.9866237954 -0 -0)
(88313.4317368389 -0 -0)
(91377.2132547904 -0 -0)
(94412.5821667 -0 -0)
(97418.292122297 -0 -0)
(100395.139352861 -0 -0)
(103345.066888224 -0 -0)
(106270.589922914 -0 -0)
(109170.011479017 -0 -0)
(112038.606997728 -0 -0)
(114876.050684068 -0 -0)
(117685.055467533 -0 -0)
(120468.166135363 -0 -0)
(123227.754132427 -0 -0)
(125966.022245895 -0 -0)
(128685.033679456 -0 -0)
(131386.694692323 -0 -0)
(134072.782417736 -0 -0)
(136744.937108941 -0 -0)
(139404.701538583 -0 -0)
(142049.237501725 -0 -0)
(144675.080404346 -0 -0)
(147282.817071353 -0 -0)
(149873.653238981 -0 -0)
(152448.686448583 -0 -0)
(155008.951515448 -0 -0)
(157555.391263108 -0 -0)
(160088.902639882 -0 -0)
(162610.30113703 -0 -0)
(165120.369208263 -0 -0)
(167619.818133208 -0 -0)
(170109.334784956 -0 -0)
(172589.544939278 -0 -0)
(175061.059472623 -0 -0)
(177524.435549882 -0 -0)
(179980.225997458 -0 -0)
(182427.997841947 -0 -0)
(184865.023178897 -0 -0)
(187289.519172425 -0 -0)
(189701.975538902 -0 -0)
(192102.834110966 -0 -0)
(194492.538552365 -0 -0)
(196871.487364013 -0 -0)
(199240.083813953 -0 -0)
(201598.68957574 -0 -0)
(203947.674499795 -0 -0)
(206287.36827466 -0 -0)
(208618.112759992 -0 -0)
(210940.21128359 -0 -0)
(213253.980994555 -0 -0)
(215559.702961914 -0 -0)
(217857.675470963 -0 -0)
(220148.161289144 -0 -0)
(222431.443427831 -0 -0)
(224707.770422657 -0 -0)
(226977.412172584 -0 -0)
(229240.604860304 -0 -0)
(231497.60709158 -0 -0)
(233748.64326881 -0 -0)
(235993.9603864 -0 -0)
(238231.897950478 -0 -0)
(240460.640459599 -0 -0)
(242680.177384921 -0 -0)
(244890.751388601 -0 -0)
(247092.567668205 -0 -0)
(249285.855986539 -0 -0)
(251470.809138469 -0 -0)
(253647.646132387 -0 -0)
(255816.549403444 -0 -0)
(257977.728943908 -0 -0)
(260131.357494772 -0 -0)
(262277.636464399 -0 -0)
(264416.72969984 -0 -0)
(266548.830311324 -0 -0)
(268674.093068369 -0 -0)
(270792.702679831 -0 -0)
(272904.805632294 -0 -0)
(275010.578655386 -0 -0)
(277110.160089012 -0 -0)
(279203.717383728 -0 -0)
(281291.378354194 -0 -0)
(283373.302541007 -0 -0)
(285449.610630993 -0 -0)
(287520.456114004 -0 -0)
(289585.953683 -0 -0)
(291646.251582241 -0 -0)
(293701.452805281 -0 -0)
(295751.694942489 -0 -0)
(297797.076679618 -0 -0)
(299837.72807993 -0 -0)
(301873.733016243 -0 -0)
(303905.211702669 -0 -0)
(305932.229464705 -0 -0)
(307954.344196963 -0 -0)
(309968.903055315 -0 -0)
)
;

boundaryField
{
    electrode
    {
        type            calculated;
        value           uniform (4.25618129838768 -0 -0);
    }
    ground
    {
        type            calculated;
        value           uniform (310973.429600553 -0 -0);
    }
    otherfaces
    {
        type            empty;
    }
}


// ************************************************************************* //
