/*--------------------------------*- C++ -*----------------------------------*\
| =========                 |                                                 |
| \\      /  F ield         | foam-extend: Open Source CFD                    |
|  \\    /   O peration     | Version:     4.0                                |
|   \\  /    A nd           | Web:         http://www.foam-extend.org         |
|    \\/     M anipulation  |                                                 |
\*---------------------------------------------------------------------------*/
FoamFile
{
    version     2.0;
    format      ascii;
    class       volVectorField;
    location    "8.4e-06";
    object      J_electron;
}
// * * * * * * * * * * * * * * * * * * * * * * * * * * * * * * * * * * * * * //

dimensions      [1 -1 -1 0 0 0 0];

internalField   nonuniform List<vector> 
300
(
(-1.3376069993584e+19 0 0)
(-1.37296591138041e+19 0 0)
(-1.62300403087616e+19 0 0)
(-1.57275100391286e+19 0 0)
(-1.57229885776804e+19 0 0)
(-1.57084324606665e+19 0 0)
(-1.56412865766404e+19 0 0)
(-1.55906883680494e+19 0 0)
(-1.55376604360762e+19 0 0)
(-1.54839375040536e+19 0 0)
(-1.54305798491281e+19 0 0)
(-1.537708562783e+19 0 0)
(-1.53235492055138e+19 0 0)
(-1.52699747655202e+19 0 0)
(-1.5216348600639e+19 0 0)
(-1.51626706921505e+19 0 0)
(-1.51089375480417e+19 0 0)
(-1.50551458134874e+19 0 0)
(-1.50012924561529e+19 0 0)
(-1.49473742566392e+19 0 0)
(-1.48933882139283e+19 0 0)
(-1.48393311492959e+19 0 0)
(-1.47852001075962e+19 0 0)
(-1.47309920363202e+19 0 0)
(-1.46767039635043e+19 0 0)
(-1.46223329588492e+19 0 0)
(-1.45678760878607e+19 0 0)
(-1.45133305324112e+19 0 0)
(-1.44586934304354e+19 0 0)
(-1.440396197082e+19 0 0)
(-1.43491334548475e+19 0 0)
(-1.42942051421892e+19 0 0)
(-1.42391743847436e+19 0 0)
(-1.41840385771234e+19 0 0)
(-1.41287951072959e+19 0 0)
(-1.40734414928967e+19 0 0)
(-1.40179752188418e+19 0 0)
(-1.39623939055203e+19 0 0)
(-1.39066951208358e+19 0 0)
(-1.38508765889585e+19 0 0)
(-1.37949360048237e+19 0 0)
(-1.37388711759341e+19 0 0)
(-1.3682679919261e+19 0 0)
(-1.36263601250162e+19 0 0)
(-1.35699097406226e+19 0 0)
(-1.35133268012271e+19 0 0)
(-1.34566093290178e+19 0 0)
(-1.3399755451325e+19 0 0)
(-1.33427633691319e+19 0 0)
(-1.3285631322622e+19 0 0)
(-1.32283575954946e+19 0 0)
(-1.31709405559312e+19 0 0)
(-1.31133786321707e+19 0 0)
(-1.3055670298087e+19 0 0)
(-1.29978141341552e+19 0 0)
(-1.29398087281919e+19 0 0)
(-1.28816527545504e+19 0 0)
(-1.28233449619608e+19 0 0)
(-1.276488414735e+19 0 0)
(-1.27062691777481e+19 0 0)
(-1.26474989866692e+19 0 0)
(-1.25885725413275e+19 0 0)
(-1.25294889119255e+19 0 0)
(-1.24702472152298e+19 0 0)
(-1.24108466060256e+19 0 0)
(-1.23512863351025e+19 0 0)
(-1.22915656944137e+19 0 0)
(-1.22316840224469e+19 0 0)
(-1.21716407278853e+19 0 0)
(-1.21114353074632e+19 0 0)
(-1.20510672511065e+19 0 0)
(-1.19905361095429e+19 0 0)
(-1.19298415509992e+19 0 0)
(-1.18689832011251e+19 0 0)
(-1.18079608159962e+19 0 0)
(-1.17467741050807e+19 0 0)
(-1.16854229165786e+19 0 0)
(-1.16239070430752e+19 0 0)
(-1.1562226351394e+19 0 0)
(-1.15003807769811e+19 0 0)
(-1.14383702157317e+19 0 0)
(-1.13761946239956e+19 0 0)
(-1.13138539690957e+19 0 0)
(-1.12513482105653e+19 0 0)
(-1.11886773537116e+19 0 0)
(-1.11258413453573e+19 0 0)
(-1.10628401640652e+19 0 0)
(-1.09996737951815e+19 0 0)
(-1.09363421743358e+19 0 0)
(-1.08728451740362e+19 0 0)
(-1.08091827224172e+19 0 0)
(-1.07453545775167e+19 0 0)
(-1.06813605557347e+19 0 0)
(-1.06172005073698e+19 0 0)
(-1.05528740959407e+19 0 0)
(-1.04883800594884e+19 0 0)
(-1.04237168534073e+19 0 0)
(-1.03588873105032e+19 0 0)
(-1.02938992676244e+19 0 0)
(-1.02287396618444e+19 0 0)
(-1.01633508526648e+19 0 0)
(-1.00977449973381e+19 0 0)
(-1.00322301609095e+19 0 0)
(-9.96697429987086e+18 0 0)
(-9.90036763079711e+18 0 0)
(-9.82971511537087e+18 0 0)
(-9.75849228746883e+18 0 0)
(-9.69027748945461e+18 0 0)
(-9.62309423760042e+18 0 0)
(-9.55587233380513e+18 0 0)
(-9.48844056768571e+18 0 0)
(-9.42074016418759e+18 0 0)
(-9.35275117166828e+18 0 0)
(-9.28446437574522e+18 0 0)
(-9.21587255991022e+18 0 0)
(-9.14696844867535e+18 0 0)
(-9.07774399680086e+18 0 0)
(-9.00819015732717e+18 0 0)
(-8.93829665784332e+18 0 0)
(-8.86805195328061e+18 0 0)
(-8.79744308406439e+18 0 0)
(-8.72645555861009e+18 0 0)
(-8.65507312118687e+18 0 0)
(-8.58327769534693e+18 0 0)
(-8.5110491240952e+18 0 0)
(-8.43836496753092e+18 0 0)
(-8.3652003066088e+18 0 0)
(-8.29152744636154e+18 0 0)
(-8.21731560518425e+18 0 0)
(-8.14253069567368e+18 0 0)
(-8.06713482283634e+18 0 0)
(-7.99108592300458e+18 0 0)
(-7.91433740476534e+18 0 0)
(-7.83683745167599e+18 0 0)
(-7.75852857875549e+18 0 0)
(-7.67934693285193e+18 0 0)
(-7.59922150247812e+18 0 0)
(-7.51807334233355e+18 0 0)
(-7.43581463962767e+18 0 0)
(-7.35234751944616e+18 0 0)
(-7.26756296973353e+18 0 0)
(-7.18133934092399e+18 0 0)
(-7.09354085786898e+18 0 0)
(-7.00401567447751e+18 0 0)
(-6.91259416871908e+18 0 0)
(-6.81908599143478e+18 0 0)
(-6.72327843830668e+18 0 0)
(-6.62493230386695e+18 0 0)
(-6.52377800712703e+18 0 0)
(-6.41952010271824e+18 0 0)
(-6.31179998168875e+18 0 0)
(-6.20028677810186e+18 0 0)
(-6.08442614701516e+18 0 0)
(-5.96403449114709e+18 0 0)
(-5.8378719212465e+18 0 0)
(-5.70680824235033e+18 0 0)
(-5.56730483713612e+18 0 0)
(-5.42353903238355e+18 0 0)
(-5.26640491370801e+18 0 0)
(-5.1084945686874e+18 0 0)
(-4.92435153356325e+18 0 0)
(-4.75259751788079e+18 0 0)
(-4.51634030339686e+18 0 0)
(-4.28887326176942e+18 0 0)
(-3.87976786519523e+18 0 0)
(-2.94332620707935e+18 0 0)
(-2.27637727474903e+18 0 0)
(-2.22031920433621e+18 0 0)
(-2.09789908178436e+18 0 0)
(-1.74574299709545e+18 0 0)
(-1.06836900103009e+18 0 0)
(-4.1851752818724e+17 0 0)
(1.80580147488883e+17 0 0)
(5.44072172897829e+17 0 0)
(-1.79886245571199e+17 0 0)
(-6.43290288357376e+17 0 0)
(-4.97093071276605e+16 0 0)
(-5.73817542988005e+17 0 0)
(-2.02201504930595e+18 0 0)
(-2.27127584024324e+18 0 0)
(-2.84413718527633e+18 0 0)
(-4.23141780293157e+18 0 0)
(-3.7958130280159e+18 0 0)
(-4.20963278437482e+18 0 0)
(-4.05671634860927e+18 0 0)
(-2.38031650804571e+18 0 0)
(-5.47453174723641e+17 0 0)
(1.66725451368314e+18 0 0)
(4.8607820970758e+18 0 0)
(7.82499958554991e+18 0 0)
(1.03007822387416e+19 0 0)
(1.23754315460892e+19 0 0)
(1.37011967220578e+19 0 0)
(1.37017601488663e+19 0 0)
(1.41763899815638e+19 0 0)
(1.08811255035188e+19 0 0)
(1.01853854467886e+19 0 0)
(7.36594480178705e+18 0 0)
(6.59460756620922e+18 0 0)
(5.73186222363686e+18 0 0)
(-3.81764156601296e+18 0 0)
(2.23126351827476e+18 0 0)
(-1.34142600223736e+18 0 0)
(-2.13799700182663e+18 0 0)
(-2.03803193694054e+18 0 0)
(-2.03388643093893e+18 0 0)
(-2.22544465604327e+18 0 0)
(-2.52145744804432e+18 0 0)
(-2.77002099228691e+18 0 0)
(-2.90992259801673e+18 0 0)
(-2.97224895304564e+18 0 0)
(-2.98474305992004e+18 0 0)
(-2.97337758265418e+18 0 0)
(-2.94682240913659e+18 0 0)
(-2.91225947151413e+18 0 0)
(-2.87708622903807e+18 0 0)
(-2.83609185977927e+18 0 0)
(-2.79128802970272e+18 0 0)
(-2.74515635138226e+18 0 0)
(-2.69885012872558e+18 0 0)
(-2.6528618318145e+18 0 0)
(-2.60577494801852e+18 0 0)
(-2.55894302247294e+18 0 0)
(-2.51171187991871e+18 0 0)
(-2.46420816351586e+18 0 0)
(-2.41669577122068e+18 0 0)
(-2.36926627361632e+18 0 0)
(-2.32203894450206e+18 0 0)
(-2.27510647393171e+18 0 0)
(-2.22855398678166e+18 0 0)
(-2.1824587876163e+18 0 0)
(-2.1368909649914e+18 0 0)
(-2.0919138693038e+18 0 0)
(-2.04758383393209e+18 0 0)
(-2.00395010281545e+18 0 0)
(-1.96105737845951e+18 0 0)
(-1.91893207462176e+18 0 0)
(-1.87763620531076e+18 0 0)
(-1.83699753189511e+18 0 0)
(-1.79754502725983e+18 0 0)
(-1.75879097864175e+18 0 0)
(-1.72093118868729e+18 0 0)
(-1.68394501484888e+18 0 0)
(-1.64784351559722e+18 0 0)
(-1.6126305435897e+18 0 0)
(-1.57830228687011e+18 0 0)
(-1.54485195573022e+18 0 0)
(-1.51226966944167e+18 0 0)
(-1.48054351932195e+18 0 0)
(-1.44965941492278e+18 0 0)
(-1.41960198335234e+18 0 0)
(-1.39035414782632e+18 0 0)
(-1.3619001426028e+18 0 0)
(-1.33421819448739e+18 0 0)
(-1.3073169488478e+18 0 0)
(-1.28107146955934e+18 0 0)
(-1.25560743667362e+18 0 0)
(-1.23087157814721e+18 0 0)
(-1.20672999858724e+18 0 0)
(-1.18326967769608e+18 0 0)
(-1.16043401840275e+18 0 0)
(-1.13820888575663e+18 0 0)
(-1.1165735884083e+18 0 0)
(-1.09551031983725e+18 0 0)
(-1.07500297298765e+18 0 0)
(-1.05503083248589e+18 0 0)
(-1.03557398286874e+18 0 0)
(-1.01661701918661e+18 0 0)
(-9.98143500545947e+17 0 0)
(-9.80131525562177e+17 0 0)
(-9.6256589662935e+17 0 0)
(-9.45330579090001e+17 0 0)
(-9.2877539043235e+17 0 0)
(-9.12486079791439e+17 0 0)
(-8.96603021753447e+17 0 0)
(-8.81095409327039e+17 0 0)
(-8.65960522189327e+17 0 0)
(-8.51185755412123e+17 0 0)
(-8.36760591004675e+17 0 0)
(-8.22673485361415e+17 0 0)
(-8.08914872582406e+17 0 0)
(-7.95464350308172e+17 0 0)
(-7.82328435472165e+17 0 0)
(-7.6930526462779e+17 0 0)
(-7.56878064148155e+17 0 0)
(-7.44802778120425e+17 0 0)
(-7.32894465666418e+17 0 0)
(-7.21247195463389e+17 0 0)
(-7.0989500985905e+17 0 0)
(-6.98369967141425e+17 0 0)
(-6.88112942517194e+17 0 0)
(-6.7765916608218e+17 0 0)
(-6.67190756340515e+17 0 0)
(-6.57496133491589e+17 0 0)
(-6.48148786126704e+17 0 0)
(-6.38917692116753e+17 0 0)
(-6.30720455759349e+17 0 0)
(-6.23473422768628e+17 0 0)
(-6.17079243824182e+17 0 0)
(-6.06128706818754e+17 0 0)
)
;

boundaryField
{
    electrode
    {
        type            calculated;
        value           uniform (-1.59930236969212e+19 0 0);
    }
    ground
    {
        type            calculated;
        value           uniform (-6.03475020951799e+17 0 0);
    }
    otherfaces
    {
        type            empty;
    }
}


// ************************************************************************* //
