/*--------------------------------*- C++ -*----------------------------------*\
| =========                 |                                                 |
| \\      /  F ield         | foam-extend: Open Source CFD                    |
|  \\    /   O peration     | Version:     4.0                                |
|   \\  /    A nd           | Web:         http://www.foam-extend.org         |
|    \\/     M anipulation  |                                                 |
\*---------------------------------------------------------------------------*/
FoamFile
{
    version     2.0;
    format      ascii;
    class       volScalarField;
    location    "8.4e-06";
    object      N_electronMean;
}
// * * * * * * * * * * * * * * * * * * * * * * * * * * * * * * * * * * * * * //

dimensions      [0 0 0 1 0 0 0];

internalField   nonuniform List<scalar> 
300
(
6.16951055907814e+16
6.16935658021512e+16
6.16893895486469e+16
6.16821269186933e+16
6.16718209018215e+16
6.1658438394017e+16
6.16419629170499e+16
6.16223859449548e+16
6.1599698747763e+16
6.15738947831926e+16
6.15449690789424e+16
6.1512918050999e+16
6.14777394213205e+16
6.1439432092995e+16
6.13979960702152e+16
6.13534323784287e+16
6.13057429959053e+16
6.12549307951078e+16
6.12009994856587e+16
6.11439535603336e+16
6.10837982473176e+16
6.10205394649814e+16
6.09541837782575e+16
6.08847383539683e+16
6.08122109281707e+16
6.07366097804927e+16
6.06579436873466e+16
6.05762218753963e+16
6.04914539835699e+16
6.04036500119367e+16
6.03128202885625e+16
6.02189754604371e+16
6.01221264469422e+16
6.00222843651277e+16
5.99194604759661e+16
5.98136661413182e+16
5.97049127815794e+16
5.95932118368863e+16
5.9478574724725e+16
5.93610127969182e+16
5.92405373043349e+16
5.91171593609762e+16
5.89908899013373e+16
5.88617396414668e+16
5.87297190453895e+16
5.85948382924313e+16
5.84571072468424e+16
5.83165354308053e+16
5.81731320037617e+16
5.80269057478291e+16
5.78778650679685e+16
5.77260179928556e+16
5.75713721524369e+16
5.74139347358208e+16
5.72537124308513e+16
5.70907113619549e+16
5.69249370369902e+16
5.67563943057419e+16
5.65850873283435e+16
5.64110195447567e+16
5.6234193647475e+16
5.60546115562783e+16
5.58722743901724e+16
5.56871824618084e+16
5.54993352989393e+16
5.53087316180245e+16
5.51153692529418e+16
5.49192451129414e+16
5.47203551629855e+16
5.45186944039285e+16
5.43142568526314e+16
5.4107035533947e+16
5.38970224951752e+16
5.36842087964908e+16
5.34685844736932e+16
5.32501385414769e+16
5.3028859011826e+16
5.28047328763776e+16
5.25777460547047e+16
5.23478833630621e+16
5.21151285121023e+16
5.18794640534147e+16
5.16408713281908e+16
5.13993304512992e+16
5.11548203055368e+16
5.09073185529266e+16
5.06568016127364e+16
5.04032446123912e+16
5.01466213674605e+16
4.98869043826712e+16
4.96240648345202e+16
4.9358072586061e+16
4.90888962106435e+16
4.88165029310807e+16
4.85408585626488e+16
4.82619275011912e+16
4.79796727108273e+16
4.76940557123495e+16
4.74050365720107e+16
4.71125738993443e+16
4.68166248442506e+16
4.65171450766101e+16
4.62140887921887e+16
4.5907408734926e+16
4.55970561697597e+16
4.52829808657139e+16
4.49651311033156e+16
4.46434536829917e+16
4.43178939498956e+16
4.39883957879348e+16
4.36549015992694e+16
4.3317352301829e+16
4.29756873358616e+16
4.26298446847381e+16
4.22797608819572e+16
4.19253710182676e+16
4.15666087884512e+16
4.12034065142561e+16
4.08356951156334e+16
4.04634040894885e+16
4.00864615354066e+16
3.97047941968685e+16
3.93183274955646e+16
3.89269855738456e+16
3.85306912881791e+16
3.81293661681381e+16
3.77229304277794e+16
3.73113029985177e+16
3.68944015313583e+16
3.64721424073008e+16
3.60444407699246e+16
3.56112105568304e+16
3.5172364522336e+16
3.4727814257571e+16
3.42774702621723e+16
3.3821242029932e+16
3.33590380506829e+16
3.28907657748682e+16
3.24163316195651e+16
3.19356410031867e+16
3.14485983539557e+16
3.09551071120268e+16
3.04550697479016e+16
2.99483877903726e+16
2.94349619007821e+16
2.89146919335903e+16
2.83874769205714e+16
2.7853215039865e+16
2.7311803580425e+16
2.67631389584e+16
2.62071167880688e+16
2.56436318797479e+16
2.50725782487502e+16
2.44938491805147e+16
2.3907337219497e+16
2.33129342464793e+16
2.27105315898369e+16
2.21000202351816e+16
2.14812907658079e+16
2.08542329809874e+16
2.02187336629271e+16
1.95746640463003e+16
1.89218614013028e+16
1.82601209464694e+16
1.75891950235522e+16
1.69087806917902e+16
1.62185097328937e+16
1.55179868811908e+16
1.4806844651056e+16
1.40847623151802e+16
1.33514890022997e+16
1.26069222273034e+16
1.18512381555094e+16
1.10850496595107e+16
1.03096356452436e+16
9.52717830692244e+15
8.74086632511408e+15
7.95501224969781e+15
7.17521174589859e+15
6.40827362694745e+15
5.66195798706621e+15
4.94467613638813e+15
4.26497545875506e+15
3.63086668221129e+15
3.0492306390208e+15
2.52523219176693e+15
2.06186391661988e+15
1.65981607019174e+15
1.31756208958429e+15
1.03163698007152e+15
797115830262059
608158057682870
458512154065833
341956545466169
252309179290227
184201371502133
133166974584258
95361950025959.3
67561747011769.7
47085037826228.5
32207811469196.8
21692241972971.1
14333264695961.6
9309145432043.19
6080226564895.67
4142231237880.98
3038488595370.92
2421497319865.27
2071546656034.93
1866078931439.12
1740349594915.64
1660146218863.93
1606741364729.17
1569493677640.18
1542088393594.04
1520597322270.58
1502458095009.14
1485965981201.75
1470049111314.14
1454047634135.72
1437466879695.18
1419972724348.37
1401404378969.85
1381675543273.51
1360774091809.98
1338737253320.53
1315636869595.32
1291566990879.61
1266635744138.94
1240959367536.51
1214657741161.66
1187851554374.62
1160659162017.65
1133194923707.82
1105567976422.76
1077880889976.61
1050228888163.37
1022699789499.45
995373208855.951
968319551794.348
941599851111.817
915268024828.915
889373057758.151
863958519289.565
839062151465.966
814715635831.908
790944059641.688
767766834174.802
745198232219.219
723248055213.317
701922931294.323
681226230687.117
661157932848.098
641714947696.379
622891734986.453
604681781140.536
587075148813.983
570057583676.785
553616066444.355
537738483114.911
522410962522.685
507618388660.192
493345156976.217
479575220847.951
466292394663.243
453480662783.511
441123396121.4
429203728483.515
417705175668.148
406611232475.93
395904982734.794
385568864297.025
375586070570.105
365943266033.394
356629466866.336
347634517795.246
338948949381.446
330563835795.015
322471001441.364
314663058789.162
307133319932.322
299875208951.822
292881526112.268
286136125463.62
279612742200.646
273298256669.139
267198489459.523
261323980645.784
255686138662.853
250277273800.822
245071195560.665
240075820984.71
235335762993.758
230855477654.293
226662018741.317
222838524792.5
219510683479.591
216937913167.912
215549938049.826
216108475174.665
)
;

boundaryField
{
    electrode
    {
        type            calculated;
        value           uniform 6.16951055909227e+16;
    }
    ground
    {
        type            calculated;
        value           uniform 217906123285.286;
    }
    otherfaces
    {
        type            empty;
    }
}


// ************************************************************************* //
