/*--------------------------------*- C++ -*----------------------------------*\
| =========                 |                                                 |
| \\      /  F ield         | foam-extend: Open Source CFD                    |
|  \\    /   O peration     | Version:     4.0                                |
|   \\  /    A nd           | Web:         http://www.foam-extend.org         |
|    \\/     M anipulation  |                                                 |
\*---------------------------------------------------------------------------*/
FoamFile
{
    version     2.0;
    format      ascii;
    class       volScalarField;
    location    "8.4e-06";
    object      Phi;
}
// * * * * * * * * * * * * * * * * * * * * * * * * * * * * * * * * * * * * * //

dimensions      [0 0 0 1 0 0 0];

internalField   nonuniform List<scalar> 
300
(
699.999929063645
699.999708175669
699.999190082836
699.998407346595
699.997368315883
699.99606759519
699.994506051557
699.992683256021
699.990598644256
699.988251726839
699.985641918253
699.982768581244
699.979631024621
699.976228499943
699.972560202405
699.968625270267
699.964422784424
699.959951768003
699.955211185907
699.950199944327
699.944916890241
699.939360810871
699.933530433117
699.927424422959
699.921041384836
699.914379860978
699.907438330722
699.900215209788
699.892708849516
699.884917536083
699.876839489667
699.868472863586
699.859815743398
699.850866145954
699.841622018422
699.832081237261
699.822241607154
699.812100859902
699.801656653263
699.790906569751
699.779848115385
699.768478718382
699.756795727803
699.744796412142
699.732477957857
699.719837467846
699.706871959855
699.693578364833
699.679953525208
699.665994193102
699.651697028474
699.637058597188
699.622075368999
699.606743715462
699.591059907756
699.575020114419
699.558620398989
699.541856717552
699.524724916186
699.507220728302
699.489339771874
699.471077546557
699.452429430676
699.433390678097
699.413956414967
699.394121636304
699.373881202458
699.353229835402
699.332162114882
699.310672474381
699.28875519692
699.266404410671
699.24361408437
699.220378022529
699.196689860438
699.172543058933
699.147930898931
699.122846475709
699.097282692924
699.071232256353
699.044687667336
699.017641215912
698.990084973625
698.962010785991
698.933410264588
698.904274778774
698.874595446981
698.844363127592
698.813568409349
698.78220160128
698.750252722115
698.717711489153
698.68456730655
698.650809252995
698.616426068731
698.581406141906
698.545737494172
698.509407765412
698.472404197562
698.434713618049
698.396322423051
698.35721655761
698.317381488747
698.276802183623
698.235463124305
698.193348319829
698.150441117247
698.106723880411
698.062178200312
698.016785003066
697.970524523636
697.923376269954
697.875318985891
697.82633061116
697.776388238474
697.725468067815
697.673545357579
697.620594372354
697.56658832704
697.511499326998
697.45529830389
697.397954946813
697.339437628318
697.279713324844
697.218747531054
697.156504167488
697.092945480915
697.028031936663
696.961722102137
696.893972520654
696.824737574599
696.753969336802
696.681617408894
696.607628745253
696.53194746096
696.454514622003
696.37526801571
696.294141899154
696.211066722927
696.125968827358
696.03877010782
695.94938764527
695.857733297654
695.76371324709
695.667227497037
695.568169312689
695.466424596861
695.361871192211
695.254378099503
695.143804599204
695.02999926251
694.912798835079
694.792026970306
694.667492801092
694.538989285636
694.406291393278
694.269153832797
694.127308910223
693.980463033768
693.828294700904
693.670448448006
693.506534373549
693.336115783703
693.158716058441
692.973787318798
692.780739790253
692.578839480591
692.367109949759
692.144469642074
691.909764877343
691.661688776563
691.398730954477
691.119044791502
690.820497536907
690.50050922378
690.156191361026
689.784620611828
689.382346055075
688.945155761761
688.468776602875
687.948699191034
687.379549043984
686.755962728556
686.072591664361
685.323285797142
684.502558369127
683.604911074129
682.624680672827
681.557128027821
680.398175240411
679.14363206904
677.790557977035
676.336853427504
674.780906967961
673.121168173996
671.357594270339
669.490325004884
667.519935249512
665.446577291739
663.270799230084
660.992955499231
658.613904784563
656.133368469044
653.550530704633
650.864586101605
648.075278501845
645.182786993351
642.187716386056
639.090972776366
635.893544241609
632.596419968212
629.200534951418
625.706748842331
622.115828956558
618.428748077063
614.646588490042
610.770344698126
606.80091812554
602.739133622434
598.585734516712
594.341398806041
590.006732271415
585.582285826553
581.068546776899
576.465956685957
571.77490000766
566.996007519175
562.12989464737
557.177153047752
552.138317764772
547.013907284512
541.804387663742
536.510214533639
531.131794154416
525.66952779117
520.123769540532
514.494873248956
508.783147221535
502.988903586338
497.112409923359
491.153941216346
485.113728190196
478.992074693549
472.789393311604
466.50610674872
460.142594942342
453.699251141324
447.176425705517
440.574485317056
433.893753451255
427.134572678674
420.297241817935
413.382081460362
406.389367633936
399.319400708122
392.172435567631
384.948753843996
377.648590536233
370.272209758053
362.819827641045
355.291691729875
347.688000162875
340.008984739189
332.254826356768
324.425741854601
316.521895664342
308.543615324568
300.491186300369
292.364936832241
284.165136207795
275.892098987694
267.546079142026
259.127378378461
250.636236066531
242.072941751564
233.437720803606
224.730851251914
215.952545039312
207.103069271926
198.182623018558
189.191463067368
180.129776173235
170.997809358548
161.79573759621
152.523798685947
143.182156437295
133.771040129
124.290602934561
114.741066086935
105.12257252696
95.4353358413994
85.6794890881456
75.8552389877157
65.9627094253119
56.0021005424087
45.9735275533182
35.8771850079924
25.7131801064729
15.4817030436767
5.1828904933409
)
;

boundaryField
{
    electrode
    {
        type            fixedValue;
        value           uniform 700;
    }
    ground
    {
        type            fixedValue;
        value           uniform 0;
    }
    otherfaces
    {
        type            empty;
    }
}


// ************************************************************************* //
