/*--------------------------------*- C++ -*----------------------------------*\
| =========                 |                                                 |
| \\      /  F ield         | foam-extend: Open Source CFD                    |
|  \\    /   O peration     | Version:     4.0                                |
|   \\  /    A nd           | Web:         http://www.foam-extend.org         |
|    \\/     M anipulation  |                                                 |
\*---------------------------------------------------------------------------*/
FoamFile
{
    version     2.0;
    format      ascii;
    class       volScalarField;
    location    "8.4e-06";
    object      PhiMean;
}
// * * * * * * * * * * * * * * * * * * * * * * * * * * * * * * * * * * * * * //

dimensions      [0 0 0 1 0 0 0];

internalField   nonuniform List<scalar> 
300
(
699.991210393302
699.990265863476
699.989045204733
699.987574276863
699.985862162532
699.983902504344
699.981695151561
699.979239182941
699.976533648873
699.973577818771
699.970371008023
699.966912611814
699.963202082201
699.959238920169
699.955022668865
699.950552905878
699.945829237342
699.940851293602
699.935618724115
699.930131192483
699.92438837291
699.91838994643
699.912135597446
699.905625010185
699.898857864794
699.891833840619
699.884552608734
699.877013828328
699.869217145705
699.861162188163
699.852848559307
699.844275846546
699.835443615132
699.826351397434
699.816998690004
699.807384950235
699.79750959249
699.787371985932
699.776971450578
699.766307252738
699.755378602529
699.744184651533
699.732724487224
699.720997129839
699.709001528986
699.696736560339
699.684201022225
699.67139363292
699.658313027807
699.644957758901
699.631326293267
699.617417018686
699.603228235999
699.588758158587
699.574004899686
699.558966466608
699.543640751292
699.528025525431
699.512118435995
699.495917000083
699.479418600457
699.462620480802
699.445519740188
699.428113327477
699.410398049942
699.3923705671
699.374027371619
699.355364784218
699.336378948399
699.317065824471
699.297421183376
699.277440599806
699.257119453732
699.236452926567
699.215435984475
699.194063377368
699.172329640936
699.150229084655
699.127755782674
699.104903552451
699.081665966896
699.058036325507
699.034007643137
699.009572642369
698.984723740502
698.959453050065
698.933752363992
698.907613135538
698.881026465198
698.853983094374
698.826473388536
698.798487321997
698.770014488451
698.741044058971
698.711564763672
698.68156487605
698.651032193947
698.619954022024
698.588317149446
698.556107832076
698.523311771879
698.489914090373
698.455899300737
698.421251301043
698.385953330138
698.349987939906
698.31333697055
698.275981511032
698.237901879503
698.199077579639
698.159487257342
698.119108661458
698.077918597866
698.035892888624
697.993006323454
697.949232599405
697.904544279438
697.85891273683
697.812308076052
697.764699058687
697.71605302808
697.666335844172
697.615511787097
697.563543483777
697.510391796298
697.456015698675
697.400372157652
697.343416017635
697.285099847708
697.22537379314
697.16418541159
697.101479497502
697.037197884313
696.97127922675
696.903658771115
696.834268128796
696.763034972391
696.689882717311
696.614730164323
696.537491133077
696.458074028916
696.376381369834
696.292309264281
696.205746823309
696.116575522559
696.024668492565
695.92988967312
695.832092885618
695.731120770008
695.626803586942
695.518957907176
695.407385045711
695.291869291922
695.172175911554
695.04804879003
694.919207694643
694.78534524213
694.646123080159
694.501167916383
694.350065827187
694.192357300658
694.027526349965
693.85497931844
693.674031278167
693.483893044146
693.283649604652
693.072219739806
692.848339972056
692.610562588427
692.357198823836
692.086262245696
691.795428561264
691.482016194281
691.142913676211
690.774563402317
690.373062934481
689.934048600898
689.452597709446
688.923507399799
688.341274888674
687.700034325016
686.993873707505
686.217004418513
685.363611228972
684.428377860439
683.40652765064
682.293694997099
681.086300995531
679.781665523629
678.37761441213
676.872631603038
675.266006859863
673.557546708098
671.747438037994
669.836063517102
667.824069202512
665.711996921357
663.500264176417
661.189216587923
658.77918649528
656.270498560959
653.663336463315
650.957625652941
648.153459314199
645.251128389876
642.251231126755
639.154544458219
635.961964599497
632.674421423123
629.292804965337
625.817961316107
622.250657105605
618.591660735457
614.841800097981
611.002006478768
607.073151217423
603.056052340393
598.951444640765
594.760020713416
590.482398684025
586.11916440031
581.670836657028
577.137910794902
572.520821931815
567.819990103722
563.035849930373
558.169015148714
553.220045103567
548.189495247186
543.077864472717
537.885653462301
532.613309103866
527.261285637957
521.829987326948
516.319830330932
510.731181275376
505.064422147829
499.319886195451
493.497925318326
487.598843240695
481.62296546474
475.570569987289
469.44197631426
463.237582211674
456.95784007376
450.603150295129
444.173940701466
437.670586835052
431.093494156963
424.443015309866
417.71953527543
410.923385416927
404.054931855949
397.114486025521
390.102396573626
383.018956172729
375.864497163337
368.639294492853
361.343665184163
353.977867379466
346.542203625557
339.036916091245
331.462293620887
323.818563038652
316.10600019858
308.32481966369
300.475315808062
292.557752110085
284.572476196678
276.519785076894
268.400038852438
260.213520577335
251.960578647457
243.641481997975
235.256568025388
226.806092117756
218.29038132489
209.709678045508
201.064299579003
192.3544758621
183.580514995034
174.74263490504
165.841135025494
156.876221699852
147.848186286717
138.75722406859
129.603618908005
120.387555397461
111.109310356398
101.76905801899
92.3670685564869
82.9035063329177
73.3786356006895
63.7926112952438
54.1456920760533
44.4380240883147
34.6698613067435
24.8413416379703
14.952715549289
5.00411572607842
)
;

boundaryField
{
    electrode
    {
        type            calculated;
        value           uniform 699.999999999474;
    }
    ground
    {
        type            calculated;
        value           uniform 0;
    }
    otherfaces
    {
        type            empty;
    }
}


// ************************************************************************* //
