/*--------------------------------*- C++ -*----------------------------------*\
| =========                 |                                                 |
| \\      /  F ield         | foam-extend: Open Source CFD                    |
|  \\    /   O peration     | Version:     4.0                                |
|   \\  /    A nd           | Web:         http://www.foam-extend.org         |
|    \\/     M anipulation  |                                                 |
\*---------------------------------------------------------------------------*/
FoamFile
{
    version     2.0;
    format      ascii;
    class       volScalarField;
    location    "8.4e-06";
    object      Te;
}
// * * * * * * * * * * * * * * * * * * * * * * * * * * * * * * * * * * * * * //

dimensions      [0 0 0 1 0 0 0];

internalField   nonuniform List<scalar> 
300
(
40093.4099646586
40093.6947040025
40093.8660597132
40093.9680337792
40094.1295394125
40094.325422036
40094.5588782702
40094.8317431104
40095.1432725778
40095.4936161156
40095.8827842357
40096.3107636911
40096.777567318
40097.2832079408
40097.8277039601
40098.4110795881
40099.0333643399
40099.6945932293
40100.3948067722
40101.1340510082
40101.9123775338
40102.7298435357
40103.5865118278
40104.4824508903
40105.4177349157
40106.3924438535
40107.4066634633
40108.4604853667
40109.554007105
40110.6873322043
40111.8605702377
40113.073836894
40114.3272540541
40115.6209498652
40116.9550588247
40118.3297218654
40119.7450864453
40121.2013066417
40122.6985432522
40124.2369638982
40125.8167431333
40127.4380625583
40129.1011109401
40130.8060843371
40132.5531862302
40134.3426276559
40136.174627351
40138.0494119025
40139.9672158986
40141.9282820902
40143.9328615611
40145.9812139032
40148.0736073975
40150.2103192053
40152.3916355657
40154.6178520013
40156.889273536
40159.2062149164
40161.5690008455
40163.9779662261
40166.4334564131
40168.9358274788
40171.4854464865
40174.0826917752
40176.7279532595
40179.42163274
40182.1641442261
40184.9559142742
40187.7973823395
40190.6890011412
40193.6312370456
40196.6245704679
40199.6694962846
40202.7665242686
40205.9161795438
40209.1190030578
40212.3755520763
40215.6864006997
40219.0521404042
40222.4733806035
40225.9507492391
40229.484893399
40233.0764799616
40236.726196273
40240.4347508539
40244.2028741412
40248.0313192667
40251.9208628679
40255.8723059433
40259.8864747513
40263.9642217488
40268.1064265806
40272.3139971177
40276.5878705349
40280.9290144582
40285.3384282354
40289.817144277
40294.3662291065
40298.9867841082
40303.6799480603
40308.4469032257
40313.2888753942
40318.2071100194
40323.2028621701
40328.2775339872
40333.4328864813
40338.67068531
40343.9922509239
40349.3988461341
40354.8920094522
40360.4734307749
40366.1448812705
40371.9082056523
40377.7653219548
40383.7182242077
40389.7689861455
40395.9197653841
40402.1728079496
40408.5304531485
40414.9951387944
40421.5694068097
40428.2559092453
40435.0574147579
40441.9768155811
40449.0171350376
40456.1815356524
40463.473327918
40470.8959797809
40478.4531269257
40486.1485839321
40493.9863564018
40501.9706541691
40510.1059056943
40518.3967737886
40526.8481728242
40535.465287588
40544.2535939936
40553.2188818669
40562.3672800589
40571.7052841966
40581.2397874038
40590.9781143834
40600.928059324
40611.0979281657
40621.4965858139
40632.1335090746
40643.0188460785
40654.1634832399
40665.5791211002
40677.2783592669
40689.2747960891
40701.5831340612
40714.2193203484
40727.2006596665
40740.5460584798
40754.2760570118
40768.4133530341
40782.9825723321
40798.0113516074
40813.5294198162
40829.5714936456
40846.173686782
40863.3824518615
40881.2502922898
40899.85727417
40919.3971242697
40940.000819553
40961.5783347683
40984.0968006971
41007.7103152929
41032.6592712481
41059.1623926945
41087.3780068682
41117.4373369
41149.1964612717
41182.6161909717
41218.3555861832
41256.7644265187
41297.4874062109
41340.9775997958
41388.1161379969
41439.0060043523
41494.8465160398
41557.3122085392
41627.6535033025
41709.4655099694
41807.6699193967
41928.0852194497
42080.251877914
42277.7096298707
42537.7076668005
42884.9893516771
43355.1947017061
43996.6860740117
44885.099281901
46113.5078948707
47818.7520415532
50239.5291726803
53703.5094798733
58726.9054062236
65198.9217098572
73951.090812428
87720.7794310893
106458.28942241
132487.115504889
168494.509380737
216183.473801213
274785.181638961
340420.695271706
407865.834995367
472727.585555146
532251.401089028
585255.554981269
631660.52862964
672012.53830156
706981.679202526
737322.609713017
763840.583463667
787198.02681024
807916.84974313
826401.749226195
843003.041167992
858023.551424822
871705.690370681
884257.514753139
895848.835505662
906618.220286743
916680.202640465
926129.384802078
935044.138361225
943489.356252681
951518.654995912
959176.135211888
966497.804400884
973512.742890882
980244.029349725
986709.668512101
992922.807964704
998895.123227696
1004629.06706047
1010123.71548809
1015381.77307463
1020400.71488983
1025175.99029434
1029700.70646498
1033965.96919347
1037961.15099782
1041674.07178795
1045091.1599838
1048197.59451135
1050977.43234146
1053413.72609104
1055488.5861784
1057183.27114377
1058477.63553454
1059351.90785387
1059774.93858575
1059747.91372382
1059237.04581852
1058221.82800809
1056679.43965987
1054587.61954588
1051923.65495597
1048664.29993879
1044785.8368602
1040264.16794967
1035074.96806687
1029193.5403289
1022594.68562787
1015252.90033666
1007142.31141469
998240.318830077
988516.605508891
977940.725154856
966488.555895442
954129.282359157
940831.012273724
926559.841822738
911279.979762916
894953.454900586
877539.780672511
858995.985739052
839275.465057235
818335.679173153
796125.156700644
772580.091138834
747638.538597182
721226.548471174
693253.199130553
663636.298999224
632266.181935657
599006.760242464
563722.083762993
526222.676156291
486273.734719925
443586.6946351
397764.376549801
348238.797115529
294188.604881348
234537.022216732
)
;

boundaryField
{
    electrode
    {
        type            electronTemperature;
        seec            0.05;
        Tse             1000;
        Edepend         1;
        TFN             1000;
        field_emission  0;
        field_enhancement_factor 55;
        work_function   5;
        value           uniform 40093.4099646586;
    }
    ground
    {
        type            electronTemperature;
        seec            0.05;
        Tse             1000;
        Edepend         1;
        TFN             1000;
        field_emission  0;
        field_enhancement_factor 55;
        work_function   5;
        value           uniform 200711.972942385;
    }
    otherfaces
    {
        type            empty;
    }
}


// ************************************************************************* //
