/*--------------------------------*- C++ -*----------------------------------*\
| =========                 |                                                 |
| \\      /  F ield         | foam-extend: Open Source CFD                    |
|  \\    /   O peration     | Version:     4.0                                |
|   \\  /    A nd           | Web:         http://www.foam-extend.org         |
|    \\/     M anipulation  |                                                 |
\*---------------------------------------------------------------------------*/
FoamFile
{
    version     2.0;
    format      ascii;
    class       volScalarField;
    location    "8.4e-06";
    object      TeMean;
}
// * * * * * * * * * * * * * * * * * * * * * * * * * * * * * * * * * * * * * //

dimensions      [0 0 0 1 0 0 0];

internalField   nonuniform List<scalar> 
300
(
36424.2492154302
36424.541435178
36424.6803945045
36424.7026406152
36424.7533189007
36424.810685912
36424.8777255999
36424.9570101426
36425.0483904402
36425.1524027527
36425.2694802738
36425.4000250152
36425.5444397557
36425.7031029183
36425.8763829565
36426.0646373034
36426.2682112357
36426.487441548
36426.722656212
36426.9741742392
36427.2423078098
36427.527360687
36427.8296300472
36428.1494059462
36428.4869710203
36428.8426088889
36429.2165986112
36429.6092126909
36430.0207236434
36430.4513951699
36430.9014811992
36431.3712445894
36431.8609553003
36432.3708754783
36432.9012637646
36433.4523722735
36434.024452738
36434.6177632967
36435.2325618963
36435.8691029047
36436.52763866
36437.208428155
36437.9117308824
36438.6378047523
36439.3869088309
36440.1593031974
36440.9552486591
36441.7750061151
36442.618834176
36443.4869891677
36444.3797253671
36445.2973062792
36446.2400110383
36447.2081205421
36448.2019212052
36449.2217096093
36450.2677805534
36451.3404286787
36452.439958451
36453.5666794806
36454.720905455
36455.9029611768
36457.1131642527
36458.35183303
36459.6193136304
36460.9159687969
36462.2421639288
36463.5982687684
36464.9846604141
36466.4017272481
36467.8498629942
36469.3294602692
36470.8409305786
36472.3847016898
36473.9612015786
36475.5708605898
36477.2141329383
36478.8915027413
36480.6034550926
36482.3504809555
36484.1331036318
36485.95186362
36487.8073023114
36489.6999680645
36491.6304240565
36493.5992659613
36495.6071189308
36497.6546169717
36499.7424052522
36501.8711554921
36504.0415496878
36506.2542894761
36508.5101335566
36510.8098517519
36513.1542287455
36515.5440909273
36517.9802850271
36520.4636869905
36522.99519878
36525.5757559426
36528.2063400455
36530.8879452038
36533.6215990851
36536.4083934205
36539.2494555119
36542.145946667
36545.0990640606
36548.1100510773
36551.1802114868
36554.3108994908
36557.5035227763
36560.7595428835
36564.0804731867
36567.4679043134
36570.9234836248
36574.4489159677
36578.0459745747
36581.7165250712
36585.4625299199
36589.2860060752
36593.1890550292
36597.1738828667
36601.2427918909
36605.3982044445
36609.6426744798
36613.9788635454
36618.4095425197
36622.9376338326
36627.5662177664
36632.2985126383
36637.1379000949
36642.0879548781
36647.1524531639
36652.335344347
36657.6407909576
36663.073245808
36668.6374359571
36674.3383591174
36680.1813185266
36686.1719581492
36692.3162924186
36698.6207316202
36705.0921167112
36711.7377542055
36718.5654945569
36725.5838105594
36732.8018401726
36740.2294619854
36747.8773235165
36755.7569652323
36763.8810019419
36772.2631799904
36780.9185298652
36789.863621121
36799.116650483
36808.6977702587
36818.6293317808
36828.9365155314
36839.6479055346
36850.797429981
36862.4330464774
36874.615424491
36887.4035369774
36900.8570652308
36915.056025856
36930.0938417835
36946.0390455297
36962.9608343119
36980.9838092574
37000.2553770799
37020.8910214163
37042.9938384681
37066.6873342767
37092.0143971761
37118.9922712612
37147.869232954
37178.9028970894
37212.2304904186
37248.416576469
37288.5037855422
37333.8553909676
37386.9372826091
37451.7688356589
37534.082878172
37642.8027656787
37791.3343858994
37998.8208850398
38293.6413006603
38718.1877081763
39335.7632969652
40243.1191417193
41592.2700544198
43627.2685714873
46811.6865154098
51618.9053357027
58388.0636751348
68214.164868621
81668.8737175839
99806.0471283591
122984.6904145
151286.661202711
184521.803660141
222079.765040769
263262.760525986
307891.151948046
355692.621945173
405887.426379204
456879.646059981
506627.099726732
553332.797528807
595872.194772121
633838.852967184
667332.361562678
696750.381873103
722601.078997053
745378.242143474
765573.061330802
783624.996337971
799889.59457978
814655.462926529
828151.079826634
840566.182341346
852068.996259091
862797.881529571
872867.209807342
882369.994899
891382.98678434
899969.279945141
908180.594748626
916059.196637284
923639.369601741
930948.61401843
938008.617392318
944835.993468752
951442.97344706
957837.999598272
964026.151765474
970009.526565501
975787.791257919
981358.074503048
986714.732551682
991850.454166406
996756.729224026
1001423.67824026
1005840.13936153
1009993.74520938
1013870.87352283
1017456.94249196
1020736.62290635
1023693.65603457
1026311.46792887
1028573.06687873
1030460.73752354
1031956.33293266
1033040.9939207
1033695.65939728
1033895.1288356
1033631.50182965
1032882.62079484
1031626.53182221
1029842.84183538
1027511.1203528
1024610.81584685
1021121.14181081
1017021.03522203
1012289.4164496
1006904.61980932
1000844.47225107
994086.958342072
986609.542790961
978389.310028521
969402.259543632
959623.239554652
949027.116895992
937587.593996494
925276.423464559
912063.913717018
897918.693957136
882807.565494171
866695.228205891
849544.113197015
831314.22137006
811965.745052462
791455.358203314
769729.261702209
746731.445774167
722400.695613576
696661.897041445
669437.296426544
640641.514370721
610166.214006608
577886.964605386
543667.687507354
507324.610258726
468634.616024759
427317.778696177
382981.491349704
335081.769074676
282825.680846095
225168.560604502
)
;

boundaryField
{
    electrode
    {
        type            calculated;
        value           uniform 36424.2492154316;
    }
    ground
    {
        type            calculated;
        value           uniform 192472.028480228;
    }
    otherfaces
    {
        type            empty;
    }
}


// ************************************************************************* //
