/*--------------------------------*- C++ -*----------------------------------*\
| =========                 |                                                 |
| \\      /  F ield         | foam-extend: Open Source CFD                    |
|  \\    /   O peration     | Version:     4.0                                |
|   \\  /    A nd           | Web:         http://www.foam-extend.org         |
|    \\/     M anipulation  |                                                 |
\*---------------------------------------------------------------------------*/
FoamFile
{
    version     2.0;
    format      ascii;
    class       volScalarField;
    location    "6.3e-06";
    object      Arp1;
}
// * * * * * * * * * * * * * * * * * * * * * * * * * * * * * * * * * * * * * //

dimensions      [0 0 0 1 0 0 0];

internalField   nonuniform List<scalar> 
300
(
6.35340255569645e+16
6.35765496194817e+16
6.35504866507166e+16
6.35454857670168e+16
6.35359649416818e+16
6.35224816304295e+16
6.35066062469924e+16
6.34876729633617e+16
6.34657806719715e+16
6.34409424045249e+16
6.34131409888532e+16
6.33823772326293e+16
6.33486477652664e+16
6.33119489774338e+16
6.32722774060454e+16
6.32296292701542e+16
6.31840006021126e+16
6.31353872360371e+16
6.30837847991988e+16
6.30291887138119e+16
6.29715941942988e+16
6.29109962460186e+16
6.28473896635572e+16
6.27807690286966e+16
6.27111287090343e+16
6.26384628564455e+16
6.25627654049003e+16
6.24840300693592e+16
6.2402250344205e+16
6.23174195014709e+16
6.22295305895289e+16
6.21385764321769e+16
6.20445496268801e+16
6.19474425438563e+16
6.18472473254556e+16
6.17439558847561e+16
6.16375599052184e+16
6.15280508403496e+16
6.14154199128204e+16
6.1299658114687e+16
6.11807562076108e+16
6.10587047225408e+16
6.09334939606236e+16
6.08051139939807e+16
6.06735546662083e+16
6.0538805593946e+16
6.04008561684657e+16
6.02596955568929e+16
6.01153127046805e+16
5.99676963380084e+16
5.98168349658754e+16
5.96627168834861e+16
5.9505330175552e+16
5.93446627194235e+16
5.9180702189294e+16
5.90134360605875e+16
5.88428516142621e+16
5.86689359413717e+16
5.84916759492162e+16
5.83110583657748e+16
5.81270697473719e+16
5.79396964889882e+16
5.7748924821517e+16
5.75547408058454e+16
5.73571303496602e+16
5.71560792445051e+16
5.69515732749485e+16
5.67435982692112e+16
5.65321396712129e+16
5.63171814796118e+16
5.60987060616561e+16
5.58766988438639e+16
5.56511579383827e+16
5.54220791708166e+16
5.51894192769142e+16
5.49531627387099e+16
5.47132927160748e+16
5.44697913465177e+16
5.42226406965037e+16
5.39718228704433e+16
5.37173200593194e+16
5.34591145604733e+16
5.31971887890248e+16
5.29315252866095e+16
5.26621067303632e+16
5.23889159423748e+16
5.21119358988536e+16
5.18311497401772e+16
5.1546540781339e+16
5.12580925221572e+16
5.09657886582697e+16
5.06696130923223e+16
5.03695499450525e+16
5.00655835665481e+16
4.97576985481873e+16
4.94458797338287e+16
4.91301122315779e+16
4.88103814256437e+16
4.84866729876539e+16
4.81589728883388e+16
4.78272674092289e+16
4.74915431538088e+16
4.71517870586626e+16
4.6807986404909e+16
4.64601288287973e+16
4.61082023322861e+16
4.57521952937914e+16
4.53920964781558e+16
4.5027895046399e+16
4.46595805657669e+16
4.42871430187709e+16
4.39105728122083e+16
4.35298607863006e+16
4.31449982229626e+16
4.27559768540313e+16
4.23627888696521e+16
4.19654269259368e+16
4.15638841526727e+16
4.1158154161327e+16
4.07482310524108e+16
4.03341094234552e+16
3.99157843771123e+16
3.94932515293432e+16
3.90665070183829e+16
3.86355475145422e+16
3.82003702305714e+16
3.77609729334937e+16
3.73173539582967e+16
3.68695122229496e+16
3.64174472464298e+16
3.59611591697218e+16
3.55006487799787e+16
3.50359175400185e+16
3.45669676221075e+16
3.40938019500161e+16
3.36164242467236e+16
3.31348390918148e+16
3.26490519967587e+16
3.21590694820221e+16
3.16648991735587e+16
3.11665499212248e+16
3.06640320186121e+16
3.01573572308288e+16
2.96465387476148e+16
2.91315929047677e+16
2.8612537587227e+16
2.80893899043446e+16
2.75621780611572e+16
2.70309359460634e+16
2.64956685550901e+16
2.59564095745465e+16
2.54133011977314e+16
2.48663225768104e+16
2.43155202135374e+16
2.37609520564863e+16
2.32027008329415e+16
2.26408802709674e+16
2.2075497275228e+16
2.15069785257723e+16
2.0934759613036e+16
2.03605644181846e+16
1.97816844829269e+16
1.92032445171434e+16
1.86180863450693e+16
1.80354481246308e+16
1.74647945719679e+16
1.68884192744565e+16
1.63074789279796e+16
1.57279300644597e+16
1.51488459976597e+16
1.4582509710973e+16
1.40180900773745e+16
1.34705191834451e+16
1.2930645467781e+16
1.23725099990648e+16
1.18369945522843e+16
1.13405921744716e+16
1.08316060188092e+16
1.03273342128918e+16
9.87952038807726e+15
9.4309460653814e+15
8.98057878609386e+15
8.60322763057491e+15
8.20830594160157e+15
7.84062614926806e+15
7.5207934299064e+15
7.21149250362193e+15
6.89849071759548e+15
6.65857889202016e+15
6.4165371887509e+15
6.18004072815083e+15
5.97055057081308e+15
5.81360600050129e+15
5.64023188717698e+15
5.48321410752914e+15
5.34226000691637e+15
5.2430168188989e+15
5.15946466887524e+15
5.08913309431269e+15
5.03122129574711e+15
5.01523512825272e+15
5.02461531271419e+15
5.04697348574709e+15
5.07516912258678e+15
5.06709791089046e+15
5.0411014082431e+15
4.99627805335871e+15
4.9470775889757e+15
4.89738763084693e+15
4.85005393356506e+15
4.80622427320981e+15
4.76664049271365e+15
4.73149809725252e+15
4.67755050595923e+15
4.62785731571312e+15
4.58152287422687e+15
4.54027757756564e+15
4.50175918332304e+15
4.46786209241737e+15
4.43614782706501e+15
4.40862661052871e+15
4.38276916141315e+15
4.36066392138623e+15
4.33978752729697e+15
4.32210988367422e+15
4.28956975628217e+15
4.26101229415523e+15
4.23244020492497e+15
4.20763346120179e+15
4.18245679767616e+15
4.16088001994923e+15
4.13860341334008e+15
4.11981163888234e+15
4.10003319828359e+15
4.0836451584495e+15
4.06602134154902e+15
4.05173489604094e+15
4.03598544656775e+15
4.02355807785966e+15
4.00948762286787e+15
3.99874756530767e+15
3.98452614198784e+15
3.96495724912187e+15
3.94367834790352e+15
3.92563899443315e+15
3.90573732353738e+15
3.88909386699058e+15
3.87044150347343e+15
3.85506715662928e+15
3.83756010011775e+15
3.82336181319888e+15
3.80690848978054e+15
3.79379890582804e+15
3.77832268305645e+15
3.76623655924029e+15
3.75166104137084e+15
3.74052757940172e+15
3.72679100140315e+15
3.71655522141909e+15
3.70360337632262e+15
3.69421423553724e+15
3.68201441641916e+15
3.67344133047401e+15
3.66196549556331e+15
3.65417398180846e+15
3.64114630517949e+15
3.6275003606133e+15
3.61080227668664e+15
3.59793765941504e+15
3.5819156465991e+15
3.56979332160495e+15
3.55440643824542e+15
3.54298853762589e+15
3.52820011777721e+15
3.51745306381444e+15
3.50323961300232e+15
3.49313459844657e+15
3.47946563235098e+15
3.46997117728613e+15
3.45682152169422e+15
3.44790889902866e+15
3.43526135382444e+15
3.42689243252673e+15
3.41472902187511e+15
3.40686545918591e+15
3.3951560794013e+15
3.38778005052736e+15
3.37649414077728e+15
3.36957609042642e+15
3.35869513480347e+15
3.35220482603396e+15
3.34169592242422e+15
3.33560627052296e+15
3.32544862572237e+15
3.31972883314488e+15
3.3098783100725e+15
3.30450301451803e+15
3.29490541911278e+15
3.28979544440125e+15
3.27504052357732e+15
)
;

boundaryField
{
    electrode
    {
        type            driftDiffusionPositiveIonDensity;
        seec            0;
        fieldName       Arp1;
        value           uniform 6.33529342097842e+16;
    }
    ground
    {
        type            driftDiffusionPositiveIonDensity;
        seec            0;
        fieldName       Arp1;
        value           uniform 3.27504052357732e+15;
    }
    otherfaces
    {
        type            empty;
    }
}


// ************************************************************************* //
