/*--------------------------------*- C++ -*----------------------------------*\
| =========                 |                                                 |
| \\      /  F ield         | foam-extend: Open Source CFD                    |
|  \\    /   O peration     | Version:     4.0                                |
|   \\  /    A nd           | Web:         http://www.foam-extend.org         |
|    \\/     M anipulation  |                                                 |
\*---------------------------------------------------------------------------*/
FoamFile
{
    version     2.0;
    format      ascii;
    class       volScalarField;
    location    "6.3e-06";
    object      electron;
}
// * * * * * * * * * * * * * * * * * * * * * * * * * * * * * * * * * * * * * //

dimensions      [0 0 0 1 0 0 0];

internalField   nonuniform List<scalar> 
300
(
6.35460455753959e+16
6.35444559902069e+16
6.35402678862808e+16
6.35330957167321e+16
6.35229988700277e+16
6.35099538603137e+16
6.34939554110541e+16
6.34750029144302e+16
6.34530933450932e+16
6.34282241218706e+16
6.34003924720389e+16
6.33695953843947e+16
6.33358296678128e+16
6.32990919302871e+16
6.32593785792733e+16
6.32166858211468e+16
6.31710096592181e+16
6.31223458922681e+16
6.30706901129464e+16
6.30160377061205e+16
6.29583838472086e+16
6.28977235004804e+16
6.28340514173559e+16
6.27673621347032e+16
6.26976499731345e+16
6.26249090353279e+16
6.25491332043794e+16
6.24703161421951e+16
6.2388451287936e+16
6.23035318565218e+16
6.22155508372131e+16
6.21245009922835e+16
6.20303748557846e+16
6.19331647324203e+16
6.1832862696552e+16
6.17294605913358e+16
6.16229500280024e+16
6.15133223853001e+16
6.14005688091067e+16
6.12846802122265e+16
6.11656472743745e+16
6.10434604423736e+16
6.09181099305662e+16
6.0789585721452e+16
6.06578775665665e+16
6.05229749876003e+16
6.0384867277784e+16
6.02435435035423e+16
6.00989925064117e+16
5.99512029052536e+16
5.98001630987603e+16
5.96458612682509e+16
5.94882853807808e+16
5.93274231925634e+16
5.91632622527087e+16
5.89957899072836e+16
5.88249933037049e+16
5.86508593954611e+16
5.84733749471724e+16
5.82925265399953e+16
5.81083005773325e+16
5.79206832908119e+16
5.77296607466604e+16
5.75352188528276e+16
5.73373433668415e+16
5.71360199030823e+16
5.69312339370516e+16
5.67229708068764e+16
5.65112157241596e+16
5.62959538191838e+16
5.60771702148996e+16
5.58548499976229e+16
5.56289778306233e+16
5.53995372815743e+16
5.51665106653423e+16
5.49298796555235e+16
5.46896258050453e+16
5.44457306885602e+16
5.41981759447386e+16
5.39469432926536e+16
5.36920145405066e+16
5.34333715925206e+16
5.31709964556618e+16
5.29048712466422e+16
5.2634978199296e+16
5.23612996723342e+16
5.20838181574408e+16
5.18025162876637e+16
5.1517376846058e+16
5.12283827745341e+16
5.09355171828595e+16
5.06387633577682e+16
5.03381047721246e+16
5.00335250940984e+16
4.97250081962977e+16
4.94125381648124e+16
4.90960993081077e+16
4.87756761657333e+16
4.84512535167861e+16
4.81228163880671e+16
4.7790350061897e+16
4.74538400835208e+16
4.71132722680489e+16
4.67686327068873e+16
4.6419907773584e+16
4.60670841290418e+16
4.5710148726035e+16
4.53490888129678e+16
4.49838919368048e+16
4.46145459451073e+16
4.42410389871151e+16
4.3863359513791e+16
4.34814962767568e+16
4.3095438326043e+16
4.27051750065679e+16
4.23106959532597e+16
4.19119910847365e+16
4.15090505954409e+16
4.1101864946128e+16
4.06904248526065e+16
4.02747212726093e+16
3.98547453906715e+16
3.94304886008892e+16
3.90019424874108e+16
3.8569098802512e+16
3.81319494420924e+16
3.76904864184042e+16
3.72447018298297e+16
3.67945878274927e+16
3.63401365784747e+16
3.58813402253896e+16
3.54181908420392e+16
3.49506803848559e+16
3.44788006398078e+16
3.40025431644125e+16
3.35218992244697e+16
3.3036859725106e+16
3.25474151356539e+16
3.20535554078471e+16
3.15552698868976e+16
3.10525472149035e+16
3.05453752254214e+16
3.00337408289659e+16
2.95176298915509e+16
2.89970270982371e+16
2.84719157998716e+16
2.79422778770128e+16
2.74080935716538e+16
2.68693412102219e+16
2.63259970983904e+16
2.57780355104182e+16
2.52254275107221e+16
2.46681394411691e+16
2.41061331422334e+16
2.35393667907412e+16
2.29677950582073e+16
2.2391368777202e+16
2.1810035026132e+16
2.12237361945022e+16
2.06324112286378e+16
2.00359928259635e+16
1.94344105736115e+16
1.88275846486915e+16
1.82154204584061e+16
1.75977825085501e+16
1.69743417034376e+16
1.6344551098863e+16
1.57078794954356e+16
1.50639254232284e+16
1.44123573893929e+16
1.37528226660748e+16
1.30849194165297e+16
1.24082640214889e+16
1.17225993833102e+16
1.10281255885622e+16
1.03257018254383e+16
9.61658592955039e+15
8.9025049651997e+15
8.18609747715248e+15
7.47092230515807e+15
6.76131955205422e+15
6.06263054591788e+15
5.38101851842362e+15
4.72309924278812e+15
4.09583843546614e+15
3.50607024577805e+15
2.95994938990309e+15
2.46265479783185e+15
2.01793085778679e+15
1.62771393753733e+15
1.29211399596404e+15
1.00946291870315e+15
776453427365550
588407592808527
439681047082587
324536478317267
237094225037683
171688392959088
123096100480086
86047240026722
58762573233205.1
39405021259198.3
25436488904251.2
15728768539514.8
9483635026738.86
5783710422116.11
3718058869982.73
2588421663879.02
1964196472207.22
1610238571533.97
1404204156175.66
1282380503687.38
1210178405965.26
1168097811146.26
1144651638400.08
1132782812896.14
1127833827161.44
1126679673798.77
1127392897658.35
1128749393014.12
1129755795285.9
1129853012956.22
1128614364201.46
1125787143329.08
1121238507025.17
1114919279909.83
1106841994005.12
1097063069339.53
1085669509909.92
1072769828512.94
1058487000016.65
1042952996871.3
1026304476151.63
1008679375551.19
990214233217.52
971042096437.153
951290894418.659
931082240785.694
910530242909.704
889741110171.768
868806933022.338
847806315308.518
826818516872.587
805922633577.815
785189911614.262
764683532863.845
744458567103.093
724562408627.567
705035256055.056
685910636915.122
667215940785.98
648972958093.876
631198402124.78
613904509393.807
597099480894.212
580789657077.847
564975386512.444
549650985578.146
534813408882.832
520458956944.844
506580094019.132
493167941108.004
480212357150.166
467702312894.988
455626106089.159
443971629861.339
432726716919.187
421879265701.341
411417113692.527
401327482347.438
391596806226.441
382200677349.89
373116540233.551
364333873653.51
355843046330.301
347635570208.95
339703480229.219
332039405492.548
324636595790.426
317489003576.984
310591305219.682
303939047798.602
297527414826.049
291351842109.088
285380229437.488
279583822778.511
273970566798.924
268554483873.517
263351556961.861
258368785091.263
253573930421.957
248960019043.627
244582610570.063
240456882550.288
236605808822.98
233122599610.137
230142897422.115
227944528269.153
227011653792.384
228175082540.334
)
;

boundaryField
{
    electrode
    {
        type            driftDiffusionElectronDensity;
        seec            0.05;
        Edepend         1;
        field_emission  0;
        field_enhancement_factor 55;
        work_function   5;
        value           uniform 6.35460455753959e+16;
    }
    ground
    {
        type            driftDiffusionElectronDensity;
        seec            0.05;
        Edepend         1;
        field_emission  0;
        field_enhancement_factor 55;
        work_function   5;
        value           uniform 230400656859.864;
    }
    otherfaces
    {
        type            empty;
    }
}


// ************************************************************************* //
