/*--------------------------------*- C++ -*----------------------------------*\
| =========                 |                                                 |
| \\      /  F ield         | foam-extend: Open Source CFD                    |
|  \\    /   O peration     | Version:     4.0                                |
|   \\  /    A nd           | Web:         http://www.foam-extend.org         |
|    \\/     M anipulation  |                                                 |
\*---------------------------------------------------------------------------*/
FoamFile
{
    version     2.0;
    format      ascii;
    class       volVectorField;
    location    "6.3e-06";
    object      J_Arp1;
}
// * * * * * * * * * * * * * * * * * * * * * * * * * * * * * * * * * * * * * //

dimensions      [1 -1 -1 0 0 0 0];

internalField   nonuniform List<vector> 
300
(
(1.88279260698592e+16 -0 -0)
(6.80736572106862e+16 -0 -0)
(1.21872205929975e+17 -0 -0)
(1.69430795432487e+17 -0 -0)
(2.17700959531162e+17 -0 -0)
(2.66265243494965e+17 -0 -0)
(3.1470103258226e+17 -0 -0)
(3.63193043483891e+17 -0 -0)
(4.11713016882017e+17 -0 -0)
(4.60260684372192e+17 -0 -0)
(5.0884320178543e+17 -0 -0)
(5.57462815227562e+17 -0 -0)
(6.06122947882953e+17 -0 -0)
(6.5482702201997e+17 -0 -0)
(7.03578384904972e+17 -0 -0)
(7.52380432433524e+17 -0 -0)
(8.01236572287789e+17 -0 -0)
(8.50150228291249e+17 -0 -0)
(8.99124842680167e+17 -0 -0)
(9.48163875631177e+17 -0 -0)
(9.97270805713032e+17 -0 -0)
(1.04644913034964e+18 -0 -0)
(1.09570236505657e+18 -0 -0)
(1.14503404395885e+18 -0 -0)
(1.19444771900331e+18 -0 -0)
(1.24394695956587e+18 -0 -0)
(1.29353535142575e+18 -0 -0)
(1.3432164960245e+18 -0 -0)
(1.39299400912333e+18 -0 -0)
(1.44287151972047e+18 -0 -0)
(1.49285266808534e+18 -0 -0)
(1.5429411042091e+18 -0 -0)
(1.59314048584509e+18 -0 -0)
(1.64345447633431e+18 -0 -0)
(1.6938867417834e+18 -0 -0)
(1.7444409490551e+18 -0 -0)
(1.79512076241073e+18 -0 -0)
(1.84592984086096e+18 -0 -0)
(1.89687183460102e+18 -0 -0)
(1.94795038175216e+18 -0 -0)
(1.99916910477914e+18 -0 -0)
(2.05053160630237e+18 -0 -0)
(2.10204146540666e+18 -0 -0)
(2.15370223314706e+18 -0 -0)
(2.20551742826248e+18 -0 -0)
(2.25749053270695e+18 -0 -0)
(2.30962498646088e+18 -0 -0)
(2.36192418293437e+18 -0 -0)
(2.41439146398917e+18 -0 -0)
(2.46703011418936e+18 -0 -0)
(2.51984335588885e+18 -0 -0)
(2.57283434361086e+18 -0 -0)
(2.6260061582243e+18 -0 -0)
(2.67936180139659e+18 -0 -0)
(2.73290418957354e+18 -0 -0)
(2.78663614820562e+18 -0 -0)
(2.84056040538226e+18 -0 -0)
(2.89467958607146e+18 -0 -0)
(2.94899620540189e+18 -0 -0)
(3.00351266243529e+18 -0 -0)
(3.05823123503094e+18 -0 -0)
(3.11315407625336e+18 -0 -0)
(3.16828320484776e+18 -0 -0)
(3.22362048366074e+18 -0 -0)
(3.2791676046691e+18 -0 -0)
(3.33492611620545e+18 -0 -0)
(3.39089752800368e+18 -0 -0)
(3.44708340371322e+18 -0 -0)
(3.50348501845104e+18 -0 -0)
(3.56010216740748e+18 -0 -0)
(3.61693227568117e+18 -0 -0)
(3.67397421689675e+18 -0 -0)
(3.73123994803398e+18 -0 -0)
(3.78875683623419e+18 -0 -0)
(3.84654069508949e+18 -0 -0)
(3.90459229759771e+18 -0 -0)
(3.96290981636292e+18 -0 -0)
(4.02149096486976e+18 -0 -0)
(4.0803331808477e+18 -0 -0)
(4.13943372576858e+18 -0 -0)
(4.19878970571291e+18 -0 -0)
(4.25839806999495e+18 -0 -0)
(4.31825560288546e+18 -0 -0)
(4.37835891513168e+18 -0 -0)
(4.43870443473439e+18 -0 -0)
(4.49928839869111e+18 -0 -0)
(4.5601068449823e+18 -0 -0)
(4.62115560562774e+18 -0 -0)
(4.68243029971558e+18 -0 -0)
(4.74392632779764e+18 -0 -0)
(4.80563886613708e+18 -0 -0)
(4.8675628623207e+18 -0 -0)
(4.92969303088236e+18 -0 -0)
(4.99202384975794e+18 -0 -0)
(5.0545495572487e+18 -0 -0)
(5.11726414959915e+18 -0 -0)
(5.18016137928146e+18 -0 -0)
(5.24323475313851e+18 -0 -0)
(5.30647753207893e+18 -0 -0)
(5.36988273048998e+18 -0 -0)
(5.43344311625731e+18 -0 -0)
(5.49715121182947e+18 -0 -0)
(5.56099929488528e+18 -0 -0)
(5.62497940009771e+18 -0 -0)
(5.68908332129397e+18 -0 -0)
(5.75330261352259e+18 -0 -0)
(5.81762859621298e+18 -0 -0)
(5.88205235601548e+18 -0 -0)
(5.94656475071521e+18 -0 -0)
(6.01115641288793e+18 -0 -0)
(6.07581775405405e+18 -0 -0)
(6.14053896926197e+18 -0 -0)
(6.20531004170791e+18 -0 -0)
(6.27012074778684e+18 -0 -0)
(6.33496066212068e+18 -0 -0)
(6.39981916303188e+18 -0 -0)
(6.46468543772317e+18 -0 -0)
(6.52954848808457e+18 -0 -0)
(6.59439713614496e+18 -0 -0)
(6.65922002965375e+18 -0 -0)
(6.72400564778546e+18 -0 -0)
(6.78874230665022e+18 -0 -0)
(6.85341816471636e+18 -0 -0)
(6.91802122814271e+18 -0 -0)
(6.98253935585968e+18 -0 -0)
(7.04696026438401e+18 -0 -0)
(7.11127153261421e+18 -0 -0)
(7.17546060582706e+18 -0 -0)
(7.23951479986276e+18 -0 -0)
(7.30342130420578e+18 -0 -0)
(7.36716718526612e+18 -0 -0)
(7.4307393885901e+18 -0 -0)
(7.49412474082868e+18 -0 -0)
(7.55730995074843e+18 -0 -0)
(7.6202816099842e+18 -0 -0)
(7.68302619268146e+18 -0 -0)
(7.74553005344746e+18 -0 -0)
(7.80777942795898e+18 -0 -0)
(7.86976042925614e+18 -0 -0)
(7.93145903959215e+18 -0 -0)
(7.99286110238298e+18 -0 -0)
(8.05395236206569e+18 -0 -0)
(8.11471840553737e+18 -0 -0)
(8.17514444873571e+18 -0 -0)
(8.23521607028983e+18 -0 -0)
(8.29491872413266e+18 -0 -0)
(8.35423541307365e+18 -0 -0)
(8.41315211948081e+18 -0 -0)
(8.47165933479113e+18 -0 -0)
(8.52972908967591e+18 -0 -0)
(8.58733337197011e+18 -0 -0)
(8.64451896530241e+18 -0 -0)
(8.70128853268993e+18 -0 -0)
(8.75763133284618e+18 -0 -0)
(8.81352661663726e+18 -0 -0)
(8.86895715613784e+18 -0 -0)
(8.92392026065226e+18 -0 -0)
(8.9783403762913e+18 -0 -0)
(9.03236109911119e+18 -0 -0)
(9.08557538092837e+18 -0 -0)
(9.13879301992185e+18 -0 -0)
(9.19043350493192e+18 -0 -0)
(9.24309085644625e+18 -0 -0)
(9.29284231530208e+18 -0 -0)
(9.3443495269119e+18 -0 -0)
(9.39450733629551e+18 -0 -0)
(9.4439951021362e+18 -0 -0)
(9.49261499492637e+18 -0 -0)
(9.54128411800489e+18 -0 -0)
(9.58778301544943e+18 -0 -0)
(9.63640767062073e+18 -0 -0)
(9.68076056638227e+18 -0 -0)
(9.72945834755102e+18 -0 -0)
(9.77255479716397e+18 -0 -0)
(9.81634613448996e+18 -0 -0)
(9.85922776583652e+18 -0 -0)
(9.90469067317538e+18 -0 -0)
(9.93995426976344e+18 -0 -0)
(9.98083185022605e+18 -0 -0)
(1.00224733583391e+19 -0 -0)
(1.00554707660927e+19 -0 -0)
(1.00887058483392e+19 -0 -0)
(1.01314330916285e+19 -0 -0)
(1.01507585036796e+19 -0 -0)
(1.01910936159998e+19 -0 -0)
(1.02115023130603e+19 -0 -0)
(1.02457790071715e+19 -0 -0)
(1.02583609813636e+19 -0 -0)
(1.02997650283973e+19 -0 -0)
(1.03057467370597e+19 -0 -0)
(1.03427352241144e+19 -0 -0)
(1.03549710062506e+19 -0 -0)
(1.03954165674248e+19 -0 -0)
(1.04090528222695e+19 -0 -0)
(1.0456584217644e+19 -0 -0)
(1.04849991615598e+19 -0 -0)
(1.05517108383362e+19 -0 -0)
(1.06118516044304e+19 -0 -0)
(1.07291133637918e+19 -0 -0)
(1.08760875958424e+19 -0 -0)
(1.10902263082338e+19 -0 -0)
(1.13431250654057e+19 -0 -0)
(1.1609784048394e+19 -0 -0)
(1.18747177864062e+19 -0 -0)
(1.20655087739226e+19 -0 -0)
(1.22534391822615e+19 -0 -0)
(1.23774968405123e+19 -0 -0)
(1.24715196372282e+19 -0 -0)
(1.25456619749282e+19 -0 -0)
(1.26080984138195e+19 -0 -0)
(1.26629833624889e+19 -0 -0)
(1.27134737941269e+19 -0 -0)
(1.27614718120733e+19 -0 -0)
(1.28063781246734e+19 -0 -0)
(1.28532946636378e+19 -0 -0)
(1.28971110876176e+19 -0 -0)
(1.29437712036704e+19 -0 -0)
(1.29875459724384e+19 -0 -0)
(1.30347251212907e+19 -0 -0)
(1.30789902622078e+19 -0 -0)
(1.31269073846798e+19 -0 -0)
(1.31715704008107e+19 -0 -0)
(1.32197419721707e+19 -0 -0)
(1.32642592698157e+19 -0 -0)
(1.33124254609706e+19 -0 -0)
(1.33555649265921e+19 -0 -0)
(1.34042703722043e+19 -0 -0)
(1.34465898663027e+19 -0 -0)
(1.34948643810472e+19 -0 -0)
(1.35362422440902e+19 -0 -0)
(1.35838339113276e+19 -0 -0)
(1.36239474613009e+19 -0 -0)
(1.36705649059723e+19 -0 -0)
(1.37091418647075e+19 -0 -0)
(1.37544753742871e+19 -0 -0)
(1.37912337760659e+19 -0 -0)
(1.38350553286836e+19 -0 -0)
(1.38697640196462e+19 -0 -0)
(1.39119032168531e+19 -0 -0)
(1.39444935265349e+19 -0 -0)
(1.39849233406632e+19 -0 -0)
(1.40153923208121e+19 -0 -0)
(1.40539276727307e+19 -0 -0)
(1.40827289800366e+19 -0 -0)
(1.41196181632334e+19 -0 -0)
(1.41464458560691e+19 -0 -0)
(1.41818252146022e+19 -0 -0)
(1.42067333580783e+19 -0 -0)
(1.42406287757672e+19 -0 -0)
(1.42636937124139e+19 -0 -0)
(1.4296194943122e+19 -0 -0)
(1.43174851007472e+19 -0 -0)
(1.43486526065808e+19 -0 -0)
(1.4368245376728e+19 -0 -0)
(1.43981795126924e+19 -0 -0)
(1.44161128488339e+19 -0 -0)
(1.44448545858692e+19 -0 -0)
(1.44611858210149e+19 -0 -0)
(1.44888030308668e+19 -0 -0)
(1.4503587674268e+19 -0 -0)
(1.45301339878882e+19 -0 -0)
(1.4543484613954e+19 -0 -0)
(1.45690689435319e+19 -0 -0)
(1.4581094522536e+19 -0 -0)
(1.46058034463167e+19 -0 -0)
(1.4616559696113e+19 -0 -0)
(1.46406366307344e+19 -0 -0)
(1.46503666502334e+19 -0 -0)
(1.46737050857449e+19 -0 -0)
(1.46822703545229e+19 -0 -0)
(1.47049744420404e+19 -0 -0)
(1.47124301646294e+19 -0 -0)
(1.47345599694631e+19 -0 -0)
(1.47409598235816e+19 -0 -0)
(1.47625749315539e+19 -0 -0)
(1.47680108928441e+19 -0 -0)
(1.47891750778678e+19 -0 -0)
(1.47936951983924e+19 -0 -0)
(1.48144459484852e+19 -0 -0)
(1.48181066580624e+19 -0 -0)
(1.48384792638987e+19 -0 -0)
(1.48413588892174e+19 -0 -0)
(1.48613352648138e+19 -0 -0)
(1.48634974878129e+19 -0 -0)
(1.48830456477796e+19 -0 -0)
(1.48844901481112e+19 -0 -0)
(1.49036558335354e+19 -0 -0)
(1.49043696699637e+19 -0 -0)
(1.49231371151383e+19 -0 -0)
(1.49231503564708e+19 -0 -0)
(1.49414910929116e+19 -0 -0)
(1.4940760848613e+19 -0 -0)
(1.49586507392468e+19 -0 -0)
(1.49571792703255e+19 -0 -0)
(1.49745692502242e+19 -0 -0)
(1.49722453658193e+19 -0 -0)
(1.49891021802451e+19 -0 -0)
(1.4985759928881e+19 -0 -0)
(1.50018278840642e+19 -0 -0)
(1.49761839323065e+19 -0 -0)
)
;

boundaryField
{
    electrode
    {
        type            calculated;
        value           uniform (-13327579651.9973 -0 -0);
    }
    ground
    {
        type            calculated;
        value           uniform (1.50044173680798e+19 -0 -0);
    }
    otherfaces
    {
        type            empty;
    }
}


// ************************************************************************* //
