/*--------------------------------*- C++ -*----------------------------------*\
| =========                 |                                                 |
| \\      /  F ield         | foam-extend: Open Source CFD                    |
|  \\    /   O peration     | Version:     4.0                                |
|   \\  /    A nd           | Web:         http://www.foam-extend.org         |
|    \\/     M anipulation  |                                                 |
\*---------------------------------------------------------------------------*/
FoamFile
{
    version     2.0;
    format      ascii;
    class       volVectorField;
    location    "6.3e-06";
    object      J_electron;
}
// * * * * * * * * * * * * * * * * * * * * * * * * * * * * * * * * * * * * * //

dimensions      [1 -1 -1 0 0 0 0];

internalField   nonuniform List<vector> 
300
(
(-1.31584143700848e+19 0 0)
(-1.35034161547041e+19 0 0)
(-1.59511060552291e+19 0 0)
(-1.54688096954024e+19 0 0)
(-1.54694121200306e+19 0 0)
(-1.54557209459785e+19 0 0)
(-1.53935188254956e+19 0 0)
(-1.53469219857514e+19 0 0)
(-1.52979335193345e+19 0 0)
(-1.52483278833497e+19 0 0)
(-1.51990528518768e+19 0 0)
(-1.51496428338969e+19 0 0)
(-1.51001875719824e+19 0 0)
(-1.50506889056259e+19 0 0)
(-1.5001133696582e+19 0 0)
(-1.49515211473124e+19 0 0)
(-1.49018471777812e+19 0 0)
(-1.48521078913389e+19 0 0)
(-1.48022995888878e+19 0 0)
(-1.47524184806315e+19 0 0)
(-1.47024607308382e+19 0 0)
(-1.46524226449299e+19 0 0)
(-1.46023003332421e+19 0 0)
(-1.45520900611431e+19 0 0)
(-1.4501788006896e+19 0 0)
(-1.44513904159909e+19 0 0)
(-1.44008934543684e+19 0 0)
(-1.43502933624363e+19 0 0)
(-1.42995863220278e+19 0 0)
(-1.42487685955094e+19 0 0)
(-1.41978363818904e+19 0 0)
(-1.41467859125147e+19 0 0)
(-1.40956134241938e+19 0 0)
(-1.40443152314654e+19 0 0)
(-1.39928875175054e+19 0 0)
(-1.39413266489112e+19 0 0)
(-1.38896288747057e+19 0 0)
(-1.38377905540463e+19 0 0)
(-1.37858080125147e+19 0 0)
(-1.37336776194599e+19 0 0)
(-1.36813958148792e+19 0 0)
(-1.36289589821886e+19 0 0)
(-1.35763636301473e+19 0 0)
(-1.35236062390177e+19 0 0)
(-1.34706833352255e+19 0 0)
(-1.34175915695161e+19 0 0)
(-1.33643275265898e+19 0 0)
(-1.33108878652389e+19 0 0)
(-1.32572694029032e+19 0 0)
(-1.3203468864095e+19 0 0)
(-1.31494831053058e+19 0 0)
(-1.30953090741586e+19 0 0)
(-1.3040943716102e+19 0 0)
(-1.29863841075325e+19 0 0)
(-1.29316273536917e+19 0 0)
(-1.28766706970956e+19 0 0)
(-1.28215113580953e+19 0 0)
(-1.27661467834125e+19 0 0)
(-1.27105744065242e+19 0 0)
(-1.26547916392786e+19 0 0)
(-1.25987959397915e+19 0 0)
(-1.25425854784846e+19 0 0)
(-1.24861595775533e+19 0 0)
(-1.24295165522561e+19 0 0)
(-1.23726498617544e+19 0 0)
(-1.23155467905763e+19 0 0)
(-1.22582020305241e+19 0 0)
(-1.22006591514744e+19 0 0)
(-1.21430294545205e+19 0 0)
(-1.20853322896011e+19 0 0)
(-1.20270679253178e+19 0 0)
(-1.19670749351992e+19 0 0)
(-1.19051686818336e+19 0 0)
(-1.18438972319274e+19 0 0)
(-1.1784199972015e+19 0 0)
(-1.17247041274095e+19 0 0)
(-1.16650401717682e+19 0 0)
(-1.1605117781009e+19 0 0)
(-1.15449096849578e+19 0 0)
(-1.14844096937468e+19 0 0)
(-1.14236174887367e+19 0 0)
(-1.1362534667831e+19 0 0)
(-1.13011631404095e+19 0 0)
(-1.12395050631802e+19 0 0)
(-1.11775625544367e+19 0 0)
(-1.11153377610008e+19 0 0)
(-1.10528327555298e+19 0 0)
(-1.09900496893158e+19 0 0)
(-1.09269905731229e+19 0 0)
(-1.08636575058483e+19 0 0)
(-1.0800052444796e+19 0 0)
(-1.07361773938976e+19 0 0)
(-1.06720342815807e+19 0 0)
(-1.0607625003687e+19 0 0)
(-1.05429513688958e+19 0 0)
(-1.04780151034888e+19 0 0)
(-1.04128179498176e+19 0 0)
(-1.03473613889502e+19 0 0)
(-1.02816469093245e+19 0 0)
(-1.02156758462675e+19 0 0)
(-1.01494492918369e+19 0 0)
(-1.0082968285707e+19 0 0)
(-1.00162335715822e+19 0 0)
(-9.94924565445004e+18 0 0)
(-9.88200484819907e+18 0 0)
(-9.81451107401204e+18 0 0)
(-9.74676401081339e+18 0 0)
(-9.67876284066562e+18 0 0)
(-9.61050642413152e+18 0 0)
(-9.54199311450112e+18 0 0)
(-9.47322070931394e+18 0 0)
(-9.40418645779913e+18 0 0)
(-9.33488691770137e+18 0 0)
(-9.26531795546328e+18 0 0)
(-9.19547460402859e+18 0 0)
(-9.12535106922008e+18 0 0)
(-9.05494049358977e+18 0 0)
(-8.98423500453393e+18 0 0)
(-8.91322550934569e+18 0 0)
(-8.84190158500135e+18 0 0)
(-8.77025136993423e+18 0 0)
(-8.69826138747437e+18 0 0)
(-8.62591638288309e+18 0 0)
(-8.55319915200617e+18 0 0)
(-8.48009032231236e+18 0 0)
(-8.40656809051973e+18 0 0)
(-8.3326080849108e+18 0 0)
(-8.25818290140637e+18 0 0)
(-8.18326200976409e+18 0 0)
(-8.10781118395318e+18 0 0)
(-8.03179226244684e+18 0 0)
(-7.95516264185489e+18 0 0)
(-7.87787480362018e+18 0 0)
(-7.79987575298117e+18 0 0)
(-7.72110637608416e+18 0 0)
(-7.64150083488527e+18 0 0)
(-7.56098551536943e+18 0 0)
(-7.47947841980622e+18 0 0)
(-7.39688838528605e+18 0 0)
(-7.31311340274844e+18 0 0)
(-7.22803718002888e+18 0 0)
(-7.14153419993095e+18 0 0)
(-7.05347258683228e+18 0 0)
(-6.96366144071454e+18 0 0)
(-6.87192659064993e+18 0 0)
(-6.77819599831224e+18 0 0)
(-6.68203035613725e+18 0 0)
(-6.58294865128849e+18 0 0)
(-6.48173408821445e+18 0 0)
(-6.37752791665633e+18 0 0)
(-6.26521981191822e+18 0 0)
(-6.14748142715798e+18 0 0)
(-6.02862878645341e+18 0 0)
(-5.90631172164079e+18 0 0)
(-5.77874870388811e+18 0 0)
(-5.6442349208868e+18 0 0)
(-5.50491731142902e+18 0 0)
(-5.35240989543917e+18 0 0)
(-5.20285671131605e+18 0 0)
(-5.01990019747755e+18 0 0)
(-4.86311411072369e+18 0 0)
(-4.62869320735549e+18 0 0)
(-4.41699882448716e+18 0 0)
(-4.03012595306358e+18 0 0)
(-3.07007866700982e+18 0 0)
(-2.47264722502445e+18 0 0)
(-2.49079528359671e+18 0 0)
(-2.35803953429112e+18 0 0)
(-2.02634716055287e+18 0 0)
(-1.37119056486151e+18 0 0)
(-7.57434972586902e+17 0 0)
(-2.2865123702997e+17 0 0)
(9.8896217298174e+16 0 0)
(-6.54219012138336e+17 0 0)
(-1.11871818168218e+18 0 0)
(-5.22076300896109e+17 0 0)
(-9.83171339469718e+17 0 0)
(-2.1852717574049e+18 0 0)
(-2.6101814581883e+18 0 0)
(-3.06982846838237e+18 0 0)
(-4.4474985805628e+18 0 0)
(-4.39135641905031e+18 0 0)
(-4.31576213488245e+18 0 0)
(-4.24372772831704e+18 0 0)
(-2.76252928814298e+18 0 0)
(-9.24652637523018e+17 0 0)
(1.03876674097145e+18 0 0)
(3.90111430956443e+18 0 0)
(6.72801462730726e+18 0 0)
(8.96644528738769e+18 0 0)
(1.08900637441083e+19 0 0)
(1.21103113921571e+19 0 0)
(1.27087938941996e+19 0 0)
(1.24457278597539e+19 0 0)
(9.84089332494054e+18 0 0)
(9.42020725838683e+18 0 0)
(6.77638564940762e+18 0 0)
(5.74341101581527e+18 0 0)
(6.36792541504576e+18 0 0)
(-4.6373531352063e+18 0 0)
(2.09538730685145e+18 0 0)
(-1.07833253547662e+18 0 0)
(-2.24928180140497e+18 0 0)
(-2.167923317155e+18 0 0)
(-2.11437529527785e+18 0 0)
(-2.24612154007551e+18 0 0)
(-2.51418213865072e+18 0 0)
(-2.75881679376141e+18 0 0)
(-2.90879452678439e+18 0 0)
(-2.98033557488729e+18 0 0)
(-3.00118565550702e+18 0 0)
(-2.98864068381779e+18 0 0)
(-2.9661864697092e+18 0 0)
(-2.93026681549284e+18 0 0)
(-2.89386004611445e+18 0 0)
(-2.85404713610812e+18 0 0)
(-2.8100781454891e+18 0 0)
(-2.76364347046572e+18 0 0)
(-2.71703749882599e+18 0 0)
(-2.66918857141821e+18 0 0)
(-2.62244204300127e+18 0 0)
(-2.5750713023225e+18 0 0)
(-2.52718206733595e+18 0 0)
(-2.4791094147062e+18 0 0)
(-2.43103330907157e+18 0 0)
(-2.38305593589978e+18 0 0)
(-2.33526750266692e+18 0 0)
(-2.28777623629095e+18 0 0)
(-2.24066723720591e+18 0 0)
(-2.19401972154415e+18 0 0)
(-2.14790530973141e+18 0 0)
(-2.10238830273194e+18 0 0)
(-2.05752640607868e+18 0 0)
(-2.01337011374142e+18 0 0)
(-1.96996367624409e+18 0 0)
(-1.92734433632529e+18 0 0)
(-1.88554434496466e+18 0 0)
(-1.8445850884291e+18 0 0)
(-1.80449681336279e+18 0 0)
(-1.7652165866264e+18 0 0)
(-1.72690367499527e+18 0 0)
(-1.68957226865203e+18 0 0)
(-1.65305301528246e+18 0 0)
(-1.61743353509799e+18 0 0)
(-1.58270574119146e+18 0 0)
(-1.54886779438055e+18 0 0)
(-1.51591000567051e+18 0 0)
(-1.48382061326623e+18 0 0)
(-1.45258576462128e+18 0 0)
(-1.42218971312358e+18 0 0)
(-1.39261557564472e+18 0 0)
(-1.36384489282963e+18 0 0)
(-1.33585991676268e+18 0 0)
(-1.30863793654736e+18 0 0)
(-1.28218228857622e+18 0 0)
(-1.2563757098265e+18 0 0)
(-1.2313383253203e+18 0 0)
(-1.20701555734426e+18 0 0)
(-1.18328127502743e+18 0 0)
(-1.16021826359362e+18 0 0)
(-1.13777208077331e+18 0 0)
(-1.11592852851488e+18 0 0)
(-1.09466620449343e+18 0 0)
(-1.07396629936691e+18 0 0)
(-1.05381082557512e+18 0 0)
(-1.0341822205277e+18 0 0)
(-1.01506009391302e+18 0 0)
(-9.96427392242164e+17 0 0)
(-9.78262789258689e+17 0 0)
(-9.60559428420176e+17 0 0)
(-9.43181081073788e+17 0 0)
(-9.26487067924681e+17 0 0)
(-9.10070029272612e+17 0 0)
(-8.9406521321992e+17 0 0)
(-8.78441591490784e+17 0 0)
(-8.63195766748446e+17 0 0)
(-8.48315080518163e+17 0 0)
(-8.33788584435991e+17 0 0)
(-8.19605335978647e+17 0 0)
(-8.05753737156446e+17 0 0)
(-7.92225250899435e+17 0 0)
(-7.78993815742097e+17 0 0)
(-7.66083231415402e+17 0 0)
(-7.53180352774923e+17 0 0)
(-7.41181050164473e+17 0 0)
(-7.29194626792155e+17 0 0)
(-7.17490641830889e+17 0 0)
(-7.06039988204904e+17 0 0)
(-6.94802302939096e+17 0 0)
(-6.8365628888231e+17 0 0)
(-6.73492645211358e+17 0 0)
(-6.63219440154968e+17 0 0)
(-6.5286029391342e+17 0 0)
(-6.43510163339668e+17 0 0)
(-6.34178880950094e+17 0 0)
(-6.25271019258723e+17 0 0)
(-6.17096882391807e+17 0 0)
(-6.10067393133559e+17 0 0)
(-6.03753209945319e+17 0 0)
(-5.93102708078652e+17 0 0)
)
;

boundaryField
{
    electrode
    {
        type            calculated;
        value           uniform (-1.57181881140323e+19 0 0);
    }
    ground
    {
        type            calculated;
        value           uniform (-5.90481078180542e+17 0 0);
    }
    otherfaces
    {
        type            empty;
    }
}


// ************************************************************************* //
