/*--------------------------------*- C++ -*----------------------------------*\
| =========                 |                                                 |
| \\      /  F ield         | foam-extend: Open Source CFD                    |
|  \\    /   O peration     | Version:     4.0                                |
|   \\  /    A nd           | Web:         http://www.foam-extend.org         |
|    \\/     M anipulation  |                                                 |
\*---------------------------------------------------------------------------*/
FoamFile
{
    version     2.0;
    format      ascii;
    class       volScalarField;
    location    "6.3e-06";
    object      N_electronMean;
}
// * * * * * * * * * * * * * * * * * * * * * * * * * * * * * * * * * * * * * //

dimensions      [0 0 0 1 0 0 0];

internalField   nonuniform List<scalar> 
300
(
6.04852963655623e+16
6.04838106337369e+16
6.04797168129502e+16
6.04725445809627e+16
6.04623310273534e+16
6.04490400223941e+16
6.04326514586935e+16
6.04131542003613e+16
6.0390537675446e+16
6.0364794079584e+16
6.03359177683064e+16
6.03039050316815e+16
6.02687539637157e+16
6.0230464302665e+16
6.01890373237339e+16
6.01444757322473e+16
6.00967835725236e+16
6.00459661495939e+16
5.99920299530657e+16
5.99349825850197e+16
5.98748326962166e+16
5.98115899256626e+16
5.97452648422671e+16
5.96758688851066e+16
5.96034143196568e+16
5.95279142033475e+16
5.94493823229174e+16
5.93678331320712e+16
5.92832817005177e+16
5.91957436454554e+16
5.91052350869925e+16
5.90117726356383e+16
5.89153733298099e+16
5.88160545357171e+16
5.87138338751733e+16
5.8608729167657e+16
5.85007583732405e+16
5.83899395402132e+16
5.82762907478831e+16
5.81598300484868e+16
5.80405754193612e+16
5.79185447142382e+16
5.77937556055192e+16
5.76662255314394e+16
5.75359716503192e+16
5.74030107959907e+16
5.72673594362098e+16
5.71290336355558e+16
5.69880490266736e+16
5.68444207896176e+16
5.66981636507685e+16
5.65492918826742e+16
5.63978192727102e+16
5.62437590654997e+16
5.60871238808285e+16
5.59279256292195e+16
5.5766175439443e+16
5.5601883601505e+16
5.54350595228231e+16
5.52657116857392e+16
5.50938476093042e+16
5.49194738137175e+16
5.47425957809878e+16
5.45632179454881e+16
5.43813437205334e+16
5.4196975461082e+16
5.40101143665627e+16
5.38207604226732e+16
5.36289123730157e+16
5.34345676903627e+16
5.32377225473765e+16
5.3038371802901e+16
5.28365090196292e+16
5.26321264540628e+16
5.24252150131898e+16
5.22157642634327e+16
5.20037624554937e+16
5.1789196499012e+16
5.15720518914308e+16
5.1352312674186e+16
5.11299614276016e+16
5.09049791976413e+16
5.06773454256458e+16
5.044703792536e+16
5.02140328735494e+16
4.99783048234834e+16
4.97398266741004e+16
4.94985696026983e+16
4.92545030360616e+16
4.90075946498649e+16
4.8757810343869e+16
4.85051142600188e+16
4.82494688125942e+16
4.79908346058587e+16
4.77291703570419e+16
4.74644328795051e+16
4.71965770653673e+16
4.692555586898e+16
4.66513202909296e+16
4.6373819374281e+16
4.60930002000641e+16
4.58088078597718e+16
4.5521185463143e+16
4.52300741682498e+16
4.4935413147167e+16
4.46371395661475e+16
4.43351885906976e+16
4.40294933772417e+16
4.37199850839153e+16
4.34065928524939e+16
4.30892437801249e+16
4.27678629173048e+16
4.24423732786024e+16
4.21126958728188e+16
4.17787497150869e+16
4.14404518394549e+16
4.10977173647222e+16
4.07504595288529e+16
4.03985896548741e+16
4.00420171272304e+16
3.96806494312724e+16
3.93143922138944e+16
3.89431493355324e+16
3.85668229336234e+16
3.81853134213754e+16
3.77985194412971e+16
3.74063378893308e+16
3.70086639684742e+16
3.66053912024388e+16
3.61964114611657e+16
3.57816150169736e+16
3.53608906003226e+16
3.4934125445138e+16
3.45012053320424e+16
3.40620147018305e+16
3.36164367891565e+16
3.31643536462772e+16
3.27056461189314e+16
3.22401938795626e+16
3.17678755010265e+16
3.12885684977812e+16
3.08021493612673e+16
3.03084936199269e+16
2.98074759150512e+16
2.92989701417325e+16
2.87828495754201e+16
2.82589869004273e+16
2.77272542219442e+16
2.71875230776022e+16
2.66396645235747e+16
2.60835492936173e+16
2.55190478718159e+16
2.4946030615313e+16
2.43643679645328e+16
2.37739305435842e+16
2.31745893545037e+16
2.25662160327519e+16
2.19486832066148e+16
2.13218645131534e+16
2.06856341815594e+16
2.00398640699919e+16
1.93844072945917e+16
1.87190735958883e+16
1.8043620926906e+16
1.7357757505602e+16
1.66611497480573e+16
1.59534511811237e+16
1.52343270598581e+16
1.45034553088565e+16
1.37605373294702e+16
1.30053569203381e+16
1.22379095060311e+16
1.14585717478598e+16
1.06682831227328e+16
9.8687898363883e+15
9.06284967051652e+15
8.25436418407529e+15
7.44861008780052e+15
6.65233091937087e+15
5.87353607126866e+15
5.12124859576364e+15
4.40506275118064e+15
3.73439982680726e+15
3.11775833946805e+15
2.56197670355716e+15
2.0715233852181e+15
1.64811962882717e+15
1.29069743710558e+15
995628227644250
757275138261995
568692188882710
422336737936718
310727967569315
226941519751594
164531036540397
118338230215235
84412253955163.8
59626202445326.1
41538601570040.2
28500337160304.2
19342781678858.3
12983388579790.7
8649123944226.6
5840367710713.82
4127243018669.87
3131805249569.43
2563966895495.12
2235430027803.63
2038376028300.07
1914640355614.73
1833057559860.09
1776432444140.16
1734911781451.6
1702614337894.15
1675868774773.62
1652315418780.63
1630388752944.34
1609041624406.73
1587634092861.37
1565747200602.65
1543090018871.03
1519477389980.27
1494822810985.11
1469121312999.22
1442416326019.66
1414784650736.57
1386325527949.29
1357151189829.95
1327380936203.43
1297136585625.95
1266539097010.7
1235706792890.4
1204752741740.16
1173783787767.08
1142899896607.53
1112193138394.18
1081747246380.45
1051638077372.82
1021932863558.35
992690678544.823
963962870742.55
935791872157.685
908213246267.908
881257434868.186
854949723025.849
829310151834.577
804352712854.138
780086442426.148
756515977884.728
733642277056.092
711464173807.498
689978086982.428
669177669536.811
649054028820.461
629596406340.013
610793392472.219
592631074256.991
575091924491.112
558159230961.659
541817747635.345
526051232162.927
510842263256.077
496173205628.301
482026145934.332
468383236261.854
455226995977.988
442539153435.056
430301144029.399
418494969119.488
407102743856.989
396106164139.725
385488156868.505
375234436685.539
365332854748.213
355772036774.852
346541349577.341
337630781534.734
329030854772.631
320732883762.848
312729005438.325
305012048438.833
297574707258.092
290408885346.86
283494521510.975
276805541741.569
270334525426.211
264088924487.151
258078040726.583
252311613860.867
246774896078.785
241444335695.817
236335306465.088
231488494962.91
226902575517.073
222606312137.929
218679803423.16
215245667032.726
212557432369.28
211023186927.764
211380694207.15
)
;

boundaryField
{
    electrode
    {
        type            calculated;
        value           uniform 6.04852963657498e+16;
    }
    ground
    {
        type            calculated;
        value           uniform 213031952857.671;
    }
    otherfaces
    {
        type            empty;
    }
}


// ************************************************************************* //
