/*--------------------------------*- C++ -*----------------------------------*\
| =========                 |                                                 |
| \\      /  F ield         | foam-extend: Open Source CFD                    |
|  \\    /   O peration     | Version:     4.0                                |
|   \\  /    A nd           | Web:         http://www.foam-extend.org         |
|    \\/     M anipulation  |                                                 |
\*---------------------------------------------------------------------------*/
FoamFile
{
    version     2.0;
    format      ascii;
    class       volScalarField;
    location    "6.3e-06";
    object      Te;
}
// * * * * * * * * * * * * * * * * * * * * * * * * * * * * * * * * * * * * * //

dimensions      [0 0 0 1 0 0 0];

internalField   nonuniform List<scalar> 
300
(
40222.0022846717
40222.2989831555
40222.4795076952
40222.5889296546
40222.7607367973
40222.9693258922
40223.2180971738
40223.5088263623
40223.8407762485
40224.2141008152
40224.6288107118
40225.0848955278
40225.5823707223
40226.1212520771
40226.7015613368
40227.3233263728
40227.9865807081
40228.6913637124
40229.4377206101
40230.2257025069
40231.0553664326
40231.9267753755
40232.8399983281
40233.7951103368
40234.7921925484
40235.8313322665
40236.9126230103
40238.036164577
40239.2020631097
40240.4104311656
40241.6613877915
40242.9550586055
40244.291575879
40245.6710786223
40247.0937126807
40248.5596308317
40250.0689928859
40251.6219657952
40253.2187237653
40254.8594483747
40256.5443286947
40258.273561421
40260.0473510082
40261.8659098087
40263.7294582231
40265.6382248486
40267.5924466406
40269.5923690836
40271.6382463584
40273.7303415255
40275.8689267174
40278.0542833296
40280.2867022282
40282.5664839624
40284.8939389868
40287.2693878905
40289.6931616406
40292.1656018299
40294.6870609366
40297.2579026074
40299.87850195
40302.5492457944
40305.2705328981
40308.0427742684
40310.8663938602
40313.7418296117
40316.6695337592
40319.6499697927
40322.6836056431
40325.7709154262
40328.9124176199
40332.1087496033
40335.3606504307
40338.6687301992
40342.0334057715
40345.4551404924
40348.9345248901
40352.4721974365
40356.0688238065
40359.7250922785
40363.4417127357
40367.2194169045
40371.0589589764
40374.9611163696
40378.9266905523
40382.9565079162
40387.0514206961
40391.2123079279
40395.4400764582
40399.7356620009
40404.1000302463
40408.5341780262
40413.0391345344
40417.6159626131
40422.2657601041
40426.9896612735
40431.7888383043
40436.6645028775
40441.6179078374
40446.650348941
40451.7631667158
40456.9577484153
40462.2355300846
40467.5979987552
40473.0466947566
40478.5832141724
40484.2092114407
40489.9264021171
40495.7365658051
40501.6415492673
40507.6432697416
40513.7437184656
40519.9449644332
40526.2491584008
40532.6585371613
40539.1754281096
40545.8022541279
40552.5415388135
40559.3959120768
40566.3681161519
40573.4610120481
40580.677586484
40588.020959354
40595.4943917713
40603.1012947469
40610.8452385701
40618.7299629483
40626.7593879977
40634.9376261632
40643.268995168
40651.758032109
40660.4095088117
40669.228448595
40678.2201446023
40687.3901798836
40696.7444494239
40706.2891843817
40716.0309787885
40725.9768189627
40736.1341160839
40746.5107426086
40757.1150722267
40767.9560230668
40779.0431114586
40790.3865088167
40801.9970848982
40813.8865043705
40826.0673536706
40838.5530687829
40851.3580670432
40864.4986532693
40877.9927292329
40891.8586237432
40906.1158673942
40920.7862388285
40935.893925179
40951.4651925732
40967.5297134071
40984.1187067728
41001.2698511281
41019.0206924873
41037.4205451535
41056.5251839139
41076.4153130662
41097.3018449317
41119.3135896401
41142.3360289459
41166.3515755919
41191.5346498651
41218.1299904134
41246.3630705699
41276.386785893
41308.3365751054
41342.0730233678
41377.5655864155
41415.5136927052
41456.3074660106
41499.67804349
41546.0225386085
41596.192326581
41650.3925971697
41709.6075116721
41775.812022111
41850.5935636723
41937.1796559467
42040.6249582346
42166.7472129637
42324.5968561042
42527.4995067446
42792.2394976463
43142.323394012
43611.69562471
44248.5511075977
45121.7350183439
46314.1197971679
47963.2209180607
50286.4321650404
53570.4978228566
58334.1539619545
64427.0643862103
72476.1666261382
85246.0016272832
102656.921069598
126601.407428298
159679.893877671
203738.54833886
258621.73971123
321256.199663589
386862.402429413
450917.509188841
510332.533026843
563691.653370549
610685.123898788
651669.453443632
687310.965992967
718274.873657854
745309.980668431
769098.261261652
790183.977018544
809010.843267748
825925.147594444
841209.091208794
855125.581770191
867889.260759649
879673.81864126
890621.822442646
900851.31873004
910460.059893195
919528.925626828
928124.952914202
936303.591914369
944110.537910973
951583.202465372
958751.910215264
965640.878102075
972269.024299284
978650.629413403
984795.953558727
990711.569266023
996401.920888846
1001867.08996755
1007101.59052335
1012100.93709986
1016860.59490492
1021372.60015118
1025627.22980282
1029613.09280004
1033317.3815644
1036726.01376737
1039823.77067113
1042594.41709147
1045020.81513224
1047084.99874261
1048768.32289287
1050051.02204225
1050913.38141848
1051325.43127953
1051287.87775153
1050767.5251615
1049744.05682543
1048194.8548335
1046097.79653679
1043430.33345435
1040169.65211714
1036292.58531361
1031775.57857713
1026594.7757277
1020726.02835693
1014144.93336831
1006826.46330674
998749.163715557
989884.126458055
980201.948632624
969679.851297566
958288.764036744
945998.742783808
932778.06316927
918593.365843217
903409.379738044
887188.70587176
869891.41976781
851475.360386036
831894.239385996
811110.326363871
789067.451297325
765701.743245729
740956.608538926
714753.111365177
687005.495867186
657629.708600295
626515.523509671
593530.02431343
558537.599357603
521349.240430096
481733.22772468
439403.297832003
393961.457557839
344845.42371435
291238.839496415
232071.884479517
)
;

boundaryField
{
    electrode
    {
        type            electronTemperature;
        seec            0.05;
        Tse             1000;
        Edepend         1;
        TFN             1000;
        field_emission  0;
        field_enhancement_factor 55;
        work_function   5;
        value           uniform 40222.0022846717;
    }
    ground
    {
        type            electronTemperature;
        seec            0.05;
        Tse             1000;
        Edepend         1;
        TFN             1000;
        field_emission  0;
        field_enhancement_factor 55;
        work_function   5;
        value           uniform 198514.022565658;
    }
    otherfaces
    {
        type            empty;
    }
}


// ************************************************************************* //
