/*--------------------------------*- C++ -*----------------------------------*\
| =========                 |                                                 |
| \\      /  F ield         | foam-extend: Open Source CFD                    |
|  \\    /   O peration     | Version:     4.0                                |
|   \\  /    A nd           | Web:         http://www.foam-extend.org         |
|    \\/     M anipulation  |                                                 |
\*---------------------------------------------------------------------------*/
FoamFile
{
    version     2.0;
    format      ascii;
    class       volScalarField;
    location    "6.3e-06";
    object      TeMean;
}
// * * * * * * * * * * * * * * * * * * * * * * * * * * * * * * * * * * * * * //

dimensions      [0 0 0 1 0 0 0];

internalField   nonuniform List<scalar> 
300
(
35180.2526483433
35180.5453829413
35180.6720498466
35180.6665309877
35180.6786208625
35180.6877867482
35180.6969064521
35180.7088091738
35180.7235427255
35180.741771525
35180.7640696506
35180.7909770334
35180.823025978
35180.8607162634
35180.904532453
35180.9549424299
35181.0123960387
35181.0773299309
35181.1501670974
35181.2313166852
35181.3211768218
35181.4201324865
35181.5285579401
35181.6468159968
35181.7752576154
35181.9142330796
35182.0640845901
35182.2251435871
35182.3977394849
35182.5821878823
35182.778789263
35182.9878539049
35183.2096994127
35183.4446308166
35183.6929462773
35183.9549330276
35184.2308755387
35184.521064532
35184.8257881515
35185.1453274083
35185.479958205
35185.8299628837
35186.1956219667
35186.5772113438
35186.9750058746
35187.3892791499
35187.8203030627
35188.2683469096
35188.7336741583
35189.2165423972
35189.717203597
35190.2359190715
35190.7729679689
35191.328628693
35191.9031838602
35192.4969264142
35193.1101436212
35193.743119157
35194.3961463407
35195.0695218014
35195.7635439689
35196.4785223692
35197.2147531101
35197.9725293665
35198.7521773145
35199.5540411594
35200.3784643827
35201.2257918804
35202.0963739064
35202.9905712532
35203.9087471533
35204.8512580543
35205.8184792849
35206.8108015717
35207.8286109856
35208.872292301
35209.9422568839
35211.0389500319
35212.1628120923
35213.3142847631
35214.4938461735
35215.7019904391
35216.939205704
35218.2059820165
35219.5028214843
35220.8302616068
35222.1888710716
35223.5792219538
35225.0018923142
35226.4574863611
35227.9466124868
35229.4698953701
35231.0280254272
35232.621697173
35234.2516138255
35235.9185226668
35237.6231861046
35239.3663929794
35241.1489537226
35242.9717098723
35244.8355500517
35246.7413647319
35248.6900735082
35250.68266473
35252.7201569783
35254.8035989783
35256.934073788
35259.1127079533
35261.3406847025
35263.6192306333
35265.9496210728
35268.3331799552
35270.7712760958
35273.2653558596
35275.8169144921
35278.427495708
35281.0987047115
35283.8322385894
35286.6298905075
35289.4934913824
35292.4249479601
35295.4262674045
35298.4995438324
35301.6469875809
35304.870937973
35308.1738283927
35311.5581854772
35315.0266820293
35318.5821417399
35322.2275087917
35325.9658772384
35329.8005259833
35333.7349247415
35337.7726907946
35341.9176360579
35346.1738631766
35350.5457367355
35355.0378702876
35359.6551638473
35364.4028408555
35369.286476808
35374.3120208306
35379.4858284974
35384.8146931433
35390.3059332354
35395.9674780123
35401.807903368
35407.8365072808
35414.0633204815
35420.4992440187
35427.1562494477
35434.0473986546
35441.1870128919
35448.5909720117
35456.2767810651
35464.2639106021
35472.5740658287
35481.231899395
35490.2656747699
35499.7097659602
35509.6157844367
35520.051131925
35531.0773028187
35542.7536192255
35555.1447712735
35568.3097265212
35582.3283887576
35597.3273726717
35613.4539409591
35630.8344731038
35649.5423731382
35669.650442734
35691.2761571731
35714.461243429
35739.28138861
35765.9872202102
35794.6822911502
35825.5708294263
35859.4583406177
35897.4018231265
35941.0684490628
35993.68751525
36060.027256507
36147.1898753532
36266.4356397113
36434.143691819
36674.0719365009
37021.776700166
37529.9572003034
38278.0368276604
39388.5001385192
41054.3807302306
43587.7019613822
47586.8930560699
53656.8195448425
62215.0125753793
74661.9996444492
91674.6842525198
114506.70610798
143583.282474021
178978.652282717
219777.55610201
264733.842118351
312674.719245932
362487.45686508
413031.595267849
462950.14796208
510733.323670536
555118.995116545
595365.162554417
631251.177451915
662938.759390287
690823.995478606
715397.061925865
737125.427577914
756445.195755509
773758.686346288
789401.766955377
803645.873189198
816714.147515717
828784.60704047
840003.121263163
850500.295513589
860383.996338696
869741.874879988
878645.817827868
887155.038625992
895318.047157776
903174.344130203
910755.8739441
918088.14309514
925191.141235665
932080.092503271
938766.001098358
945256.213270574
951554.915953132
957663.447206572
963580.62903794
969303.044483157
974825.297756408
980140.341167391
985239.091752936
990110.81857716
994744.051898775
999126.336969312
1003244.28501182
1007083.38899181
1010628.36233831
1013863.36776555
1016771.72852713
1019336.70585661
1021541.32297118
1023367.933034
1024798.5560068
1025814.68209973
1026397.45142584
1026523.51768668
1026181.98303466
1025354.4997651
1024018.60471189
1022154.69376133
1019742.9480625
1016763.55249355
1013196.48714806
1009021.49729961
1004218.43188022
998766.444327939
992644.125846877
985830.400508443
978303.698208345
970041.331294504
961019.828201803
951215.699357564
940604.328938134
929159.48128836
916853.630501551
903657.798400367
889541.378947724
874471.962342716
858415.055601812
841333.980796552
823189.611417606
803944.359934043
783553.93173292
761964.443970761
739122.496337034
714966.335628311
689421.187560005
662412.996546512
633855.488753618
603640.877426039
571648.204055964
537741.194363717
501737.995652509
463418.928978767
422506.612055692
378610.044830371
331192.459011966
279469.692112069
222406.780617342
)
;

boundaryField
{
    electrode
    {
        type            calculated;
        value           uniform 35180.2526483452;
    }
    ground
    {
        type            calculated;
        value           uniform 190047.546999038;
    }
    otherfaces
    {
        type            empty;
    }
}


// ************************************************************************* //
