/*--------------------------------*- C++ -*----------------------------------*\
| =========                 |                                                 |
| \\      /  F ield         | foam-extend: Open Source CFD                    |
|  \\    /   O peration     | Version:     4.0                                |
|   \\  /    A nd           | Web:         http://www.foam-extend.org         |
|    \\/     M anipulation  |                                                 |
\*---------------------------------------------------------------------------*/
FoamFile
{
    version     2.0;
    format      ascii;
    class       volScalarField;
    location    "6.1e-06";
    object      Ar;
}
// * * * * * * * * * * * * * * * * * * * * * * * * * * * * * * * * * * * * * //

dimensions      [0 0 0 1 0 0 0];

internalField   nonuniform List<scalar> 
300
(
3.21880270433292e+22
3.21880270005451e+22
3.21880270287091e+22
3.21880270394635e+22
3.21880270581032e+22
3.21880270840424e+22
3.218802711568e+22
3.21880271536472e+22
3.2188027197823e+22
3.21880272481747e+22
3.21880273047063e+22
3.21880273674055e+22
3.21880274362667e+22
3.21880275112858e+22
3.21880275924602e+22
3.21880276797885e+22
3.21880277732736e+22
3.21880278729148e+22
3.21880279787122e+22
3.21880280906682e+22
3.21880282087856e+22
3.21880283330683e+22
3.21880284635205e+22
3.21880286001472e+22
3.21880287429701e+22
3.21880288919826e+22
3.21880290471928e+22
3.2188029208611e+22
3.21880293762361e+22
3.21880295500763e+22
3.21880297301591e+22
3.21880299164869e+22
3.21880301090562e+22
3.21880303078765e+22
3.21880305129583e+22
3.21880307243125e+22
3.21880309419554e+22
3.21880311658974e+22
3.21880313961487e+22
3.21880316327237e+22
3.21880318756372e+22
3.21880321249028e+22
3.21880323805359e+22
3.21880326425527e+22
3.218803291097e+22
3.21880331858053e+22
3.21880334670791e+22
3.21880337548117e+22
3.21880340490331e+22
3.21880343497676e+22
3.2188034657051e+22
3.21880349708945e+22
3.21880352913279e+22
3.2188035618358e+22
3.21880359520019e+22
3.21880362922688e+22
3.21880366391816e+22
3.21880369927636e+22
3.21880373530392e+22
3.21880377200355e+22
3.21880380937758e+22
3.21880384742862e+22
3.21880388615982e+22
3.21880392557586e+22
3.21880396567925e+22
3.21880400647058e+22
3.21880404795293e+22
3.21880409012881e+22
3.21880413299939e+22
3.21880417656825e+22
3.21880422084081e+22
3.21880426582111e+22
3.21880431151297e+22
3.21880435791934e+22
3.21880440504529e+22
3.21880445289445e+22
3.2188045014699e+22
3.21880455077577e+22
3.21880460081377e+22
3.21880465159065e+22
3.21880470310666e+22
3.21880475536526e+22
3.21880480837042e+22
3.21880486212556e+22
3.2188049166358e+22
3.21880497190396e+22
3.21880502793247e+22
3.21880508472485e+22
3.21880514228582e+22
3.21880520061811e+22
3.21880525972579e+22
3.21880531961678e+22
3.21880538028896e+22
3.21880544174551e+22
3.21880550398973e+22
3.21880556702488e+22
3.21880563085419e+22
3.21880569548086e+22
3.21880576090909e+22
3.21880582714192e+22
3.21880589418173e+22
3.21880596203129e+22
3.21880603069665e+22
3.21880610017769e+22
3.21880617047803e+22
3.21880624160127e+22
3.21880631354849e+22
3.21880638632415e+22
3.21880645992964e+22
3.21880653436676e+22
3.21880660963796e+22
3.21880668574567e+22
3.21880676269276e+22
3.21880684048147e+22
3.21880691911396e+22
3.21880699859386e+22
3.21880707892481e+22
3.21880716010602e+22
3.218807242139e+22
3.21880732502606e+22
3.21880740877126e+22
3.21880749337465e+22
3.21880757884039e+22
3.21880766516859e+22
3.21880775235921e+22
3.21880784041348e+22
3.21880792933513e+22
3.21880801912327e+22
3.21880810977975e+22
3.21880820130549e+22
3.21880829370266e+22
3.21880838697221e+22
3.21880848111513e+22
3.21880857613445e+22
3.21880867203417e+22
3.2188087688127e+22
3.21880886646987e+22
3.21880896500837e+22
3.21880906443017e+22
3.21880916473442e+22
3.21880926592269e+22
3.21880936799657e+22
3.21880947095911e+22
3.21880957481322e+22
3.21880967956104e+22
3.21880978520049e+22
3.21880989173164e+22
3.21880999915534e+22
3.21881010747757e+22
3.21881021669694e+22
3.21881032680582e+22
3.21881043781241e+22
3.21881054972224e+22
3.21881066253099e+22
3.21881077624096e+22
3.21881089084889e+22
3.2188110063595e+22
3.21881112276331e+22
3.21881124004892e+22
3.21881135824044e+22
3.21881147723998e+22
3.21881159725151e+22
3.21881171779173e+22
3.21881183977264e+22
3.21881196175939e+22
3.21881208321185e+22
3.21881220634857e+22
3.21881233046278e+22
3.21881245534165e+22
3.21881258077874e+22
3.21881270575078e+22
3.21881283163825e+22
3.21881295630811e+22
3.21881308145757e+22
3.21881321001363e+22
3.21881333573454e+22
3.21881345847558e+22
3.21881358391951e+22
3.21881370750466e+22
3.21881382542064e+22
3.21881394415328e+22
3.21881405982229e+22
3.21881416693701e+22
3.21881427421186e+22
3.21881437424773e+22
3.21881446546639e+22
3.21881455278937e+22
3.21881463367707e+22
3.21881470242916e+22
3.21881476665782e+22
3.21881482384917e+22
3.2188148733361e+22
3.21881491216152e+22
3.2188149489914e+22
3.21881497553317e+22
3.21881499431477e+22
3.2188150038282e+22
3.21881501250859e+22
3.2188150189461e+22
3.21881502469108e+22
3.21881502526934e+22
3.21881502522328e+22
3.21881502553438e+22
3.21881502742241e+22
3.21881503293843e+22
3.2188150397569e+22
3.2188150475474e+22
3.21881505479378e+22
3.21881506135783e+22
3.21881506710375e+22
3.21881507219749e+22
3.21881507664522e+22
3.21881508051869e+22
3.21881508631761e+22
3.218815091546e+22
3.2188150964298e+22
3.21881510078996e+22
3.21881510490936e+22
3.2188151085876e+22
3.21881511210582e+22
3.2188151152414e+22
3.21881511829213e+22
3.21881512102913e+22
3.21881512372164e+22
3.21881512618361e+22
3.21881513012738e+22
3.21881513370038e+22
3.21881513731173e+22
3.21881514056856e+22
3.21881514388779e+22
3.21881514686184e+22
3.21881514992338e+22
3.21881515264198e+22
3.2188151554687e+22
3.21881515795552e+22
3.21881516056437e+22
3.21881516283529e+22
3.21881516524204e+22
3.2188151673093e+22
3.21881516952741e+22
3.21881517140273e+22
3.21881517359071e+22
3.21881517631719e+22
3.21881517919761e+22
3.21881518174249e+22
3.21881518445451e+22
3.21881518682683e+22
3.21881518938004e+22
3.21881519158927e+22
3.21881519399452e+22
3.21881519605091e+22
3.21881519831683e+22
3.21881520023053e+22
3.2188152023664e+22
3.21881520414357e+22
3.21881520615623e+22
3.21881520780432e+22
3.21881520970012e+22
3.21881521122519e+22
3.21881521300967e+22
3.2188152144173e+22
3.21881521609553e+22
3.21881521739074e+22
3.21881521896861e+22
3.21881522015788e+22
3.21881522180469e+22
3.21881522355103e+22
3.21881522559784e+22
3.21881522724411e+22
3.21881522920182e+22
3.21881523075299e+22
3.21881523262683e+22
3.21881523408855e+22
3.2188152358845e+22
3.21881523726077e+22
3.21881523898326e+22
3.2188152402787e+22
3.21881524193192e+22
3.21881524314995e+22
3.21881524473659e+22
3.21881524588115e+22
3.21881524740889e+22
3.21881524850664e+22
3.21881525000298e+22
3.21881525104669e+22
3.21881525248953e+22
3.21881525347329e+22
3.21881525486428e+22
3.21881525578958e+22
3.21881525716836e+22
3.21881525808633e+22
3.21881525943202e+22
3.21881526029267e+22
3.21881526164401e+22
3.21881526251565e+22
3.21881526385601e+22
3.21881526475374e+22
3.21881526616259e+22
3.21881526713567e+22
3.21881526914054e+22
)
;

boundaryField
{
    electrode
    {
        type            zeroGradient;
    }
    ground
    {
        type            zeroGradient;
    }
    otherfaces
    {
        type            empty;
    }
}


// ************************************************************************* //
