/*--------------------------------*- C++ -*----------------------------------*\
| =========                 |                                                 |
| \\      /  F ield         | foam-extend: Open Source CFD                    |
|  \\    /   O peration     | Version:     4.0                                |
|   \\  /    A nd           | Web:         http://www.foam-extend.org         |
|    \\/     M anipulation  |                                                 |
\*---------------------------------------------------------------------------*/
FoamFile
{
    version     2.0;
    format      ascii;
    class       volScalarField;
    location    "6.1e-06";
    object      Arm;
}
// * * * * * * * * * * * * * * * * * * * * * * * * * * * * * * * * * * * * * //

dimensions      [0 0 0 1 0 0 0];

internalField   nonuniform List<scalar> 
300
(
3.57412713765015e+15
3.57600290792151e+15
3.57795110914544e+15
3.57925720273782e+15
3.58007346294262e+15
3.58045202078639e+15
3.58043707959702e+15
3.58006008229478e+15
3.57934668862557e+15
3.5783188809955e+15
3.57699243623529e+15
3.57538144022209e+15
3.57349794648405e+15
3.5713525577949e+15
3.56895473132629e+15
3.56631301028631e+15
3.56343222206997e+15
3.56032095117136e+15
3.55698753815048e+15
3.55343846333854e+15
3.54967992819222e+15
3.5457178543838e+15
3.54155793192842e+15
3.53720559938744e+15
3.53265020590502e+15
3.52790946560154e+15
3.52298708863924e+15
3.51788509764932e+15
3.51261707408314e+15
3.50718789368425e+15
3.50158382156218e+15
3.49581622203207e+15
3.48990319106337e+15
3.48385011856142e+15
3.47766209078434e+15
3.47134390687527e+15
3.46489574671588e+15
3.45832412334232e+15
3.4516361035145e+15
3.44483522456477e+15
3.43792499112136e+15
3.43091067766305e+15
3.42379616575026e+15
3.41658514694405e+15
3.40928112140542e+15
3.4018873516978e+15
3.39440478398605e+15
3.38683486126223e+15
3.37916982855032e+15
3.37140826631235e+15
3.36353759086151e+15
3.35557028423877e+15
3.34750097511292e+15
3.3393473650025e+15
3.33111759681629e+15
3.32282803003729e+15
3.31448197239731e+15
3.30608234005322e+15
3.29763170408758e+15
3.28913048569849e+15
3.28058299705323e+15
3.27199134754858e+15
3.26335218736444e+15
3.25464757272053e+15
3.24588148170771e+15
3.23707947658804e+15
3.22824366286961e+15
3.21937588029445e+15
3.21047771470311e+15
3.20155052460549e+15
3.19259346234518e+15
3.18359938283909e+15
3.17456675090962e+15
3.16550299723267e+15
3.15639459725952e+15
3.14724260504879e+15
3.13805335618045e+15
3.12882273786264e+15
3.11957069265862e+15
3.11026671767337e+15
3.10094535133997e+15
3.09160873339224e+15
3.08225378494166e+15
3.07288275546526e+15
3.06348084494294e+15
3.05405578608296e+15
3.04461927691123e+15
3.03517163733913e+15
3.02570097245948e+15
3.01621502020148e+15
3.00670775339969e+15
2.99713418519416e+15
2.98754951331629e+15
2.97795540149492e+15
2.96835187945976e+15
2.95873897322789e+15
2.94911646450403e+15
2.93948391568752e+15
2.92983040101677e+15
2.92015585722356e+15
2.9104665419919e+15
2.90076372160993e+15
2.89101567612104e+15
2.88125158481426e+15
2.87146224673024e+15
2.8616383284838e+15
2.85179482507028e+15
2.84191215418759e+15
2.8320007234821e+15
2.82206598350844e+15
2.81210606746442e+15
2.80211868644401e+15
2.79209610515031e+15
2.7820361087062e+15
2.7719364691419e+15
2.76177954105402e+15
2.75154645922338e+15
2.74126199131774e+15
2.73092701781346e+15
2.72053345453612e+15
2.71005494040059e+15
2.69950439908499e+15
2.68885288068721e+15
2.67811076123388e+15
2.66728946469749e+15
2.65638678448664e+15
2.64537464314153e+15
2.63427044061976e+15
2.62306336682556e+15
2.61175137005786e+15
2.60031881914445e+15
2.58876183797622e+15
2.57707541914374e+15
2.5652334807705e+15
2.55319959027799e+15
2.54099256929633e+15
2.52861633445149e+15
2.5160458593877e+15
2.50326229622491e+15
2.49027474069015e+15
2.47706721757012e+15
2.46362306466573e+15
2.44991014432211e+15
2.4358963614603e+15
2.42155712094353e+15
2.40691218497473e+15
2.39194670212503e+15
2.37664430244396e+15
2.36097444664438e+15
2.34488828290746e+15
2.32839819359669e+15
2.31147943036735e+15
2.29406977278541e+15
2.27616799556753e+15
2.2577558354102e+15
2.23878358128923e+15
2.21920800010808e+15
2.19902851083683e+15
2.1782259644416e+15
2.15675541765698e+15
2.13458126954882e+15
2.11168840798076e+15
2.08803861591358e+15
2.06364440020902e+15
2.0384927584758e+15
2.01252917755782e+15
1.98577445389761e+15
1.95827313748298e+15
1.93005420981305e+15
1.90115964667817e+15
1.87165802031892e+15
1.84158270287145e+15
1.81102608688661e+15
1.78015965660442e+15
1.74917733758237e+15
1.71824899398607e+15
1.68755381649709e+15
1.65729081445909e+15
1.62769873126341e+15
1.5989331764073e+15
1.57114842453644e+15
1.54449149292833e+15
1.51904378890078e+15
1.49492003766215e+15
1.47212012362192e+15
1.45055392713565e+15
1.43026116596277e+15
1.41119133898889e+15
1.39325849336256e+15
1.37638178923029e+15
1.36046651674951e+15
1.34556143189161e+15
1.3321473782566e+15
1.32526267398198e+15
1.35105077111666e+15
1.41649780099586e+15
1.49487757215709e+15
1.55631016346693e+15
1.60311263385401e+15
1.63968474083427e+15
1.66669462526927e+15
1.67528457109994e+15
1.65965108199424e+15
1.62675563867331e+15
1.58695848740791e+15
1.54986030205901e+15
1.51940064050235e+15
1.49704837172604e+15
1.48154812831865e+15
1.47113839010769e+15
1.46399476024135e+15
1.4585824241581e+15
1.45482901538426e+15
1.45181185482349e+15
1.4487341486286e+15
1.44588979880929e+15
1.4430397485323e+15
1.44001667035606e+15
1.43668617502037e+15
1.43297088844426e+15
1.42883082266083e+15
1.42406516861662e+15
1.41859726846471e+15
1.41252623484932e+15
1.40594160804786e+15
1.39900607253724e+15
1.39176518943556e+15
1.38424475461379e+15
1.37648661277982e+15
1.36853853347887e+15
1.36042533244823e+15
1.35218688601178e+15
1.34386685063892e+15
1.33549081441634e+15
1.32708631363885e+15
1.31869581693088e+15
1.31032709577909e+15
1.30202049269436e+15
1.29378389008608e+15
1.28564465844339e+15
1.27761798948063e+15
1.26970854226074e+15
1.2619414163991e+15
1.25431151882687e+15
1.24683263825342e+15
1.2395263983989e+15
1.2323837933119e+15
1.22541598911455e+15
1.21862786897794e+15
1.21201292975743e+15
1.20557900889472e+15
1.19932233125693e+15
1.19323989151791e+15
1.18733629099275e+15
1.18160403562503e+15
1.17604144072511e+15
1.1706469458296e+15
1.16540512819837e+15
1.16032432478979e+15
1.15539662055162e+15
1.15062726299572e+15
1.14600309533607e+15
1.14152629119359e+15
1.13718792600321e+15
1.13298502800515e+15
1.12891312178859e+15
1.12496385102968e+15
1.12113334683302e+15
1.11741027912181e+15
1.11379977704126e+15
1.11029313570174e+15
1.10689474443518e+15
1.10359105711228e+15
1.10038750532413e+15
1.09727172253163e+15
1.09424195669465e+15
1.09129617514479e+15
1.08843406986383e+15
1.08565729605093e+15
1.08295916928241e+15
1.08033818878221e+15
1.07775370610975e+15
1.07506284217295e+15
1.07234876157017e+15
1.0696988792342e+15
1.06710278326684e+15
1.06456904191451e+15
1.06209969742653e+15
1.05968474228639e+15
1.05696877121444e+15
1.05417360124198e+15
1.05144605941484e+15
1.04879093421695e+15
1.0456714373612e+15
1.04250596789801e+15
1.03920717501828e+15
1.0354096474463e+15
1.03119796613351e+15
1.02635198568793e+15
1.02046273301208e+15
)
;

boundaryField
{
    electrode
    {
        type            zeroGradient;
    }
    ground
    {
        type            zeroGradient;
    }
    otherfaces
    {
        type            empty;
    }
}


// ************************************************************************* //
