/*--------------------------------*- C++ -*----------------------------------*\
| =========                 |                                                 |
| \\      /  F ield         | foam-extend: Open Source CFD                    |
|  \\    /   O peration     | Version:     4.0                                |
|   \\  /    A nd           | Web:         http://www.foam-extend.org         |
|    \\/     M anipulation  |                                                 |
\*---------------------------------------------------------------------------*/
FoamFile
{
    version     2.0;
    format      ascii;
    class       volScalarField;
    location    "6.1e-06";
    object      Arp1;
}
// * * * * * * * * * * * * * * * * * * * * * * * * * * * * * * * * * * * * * //

dimensions      [0 0 0 1 0 0 0];

internalField   nonuniform List<scalar> 
300
(
6.31750622069879e+16
6.32175418923948e+16
6.31915786168427e+16
6.31866292743289e+16
6.31771875896279e+16
6.31638105048762e+16
6.3148060288702e+16
6.31292745180771e+16
6.3107551716819e+16
6.30829049121956e+16
6.3055317143172e+16
6.30247893292027e+16
6.29913182441421e+16
6.295490043449e+16
6.29155325998148e+16
6.28732111313258e+16
6.28279322415706e+16
6.27796919522627e+16
6.27284860850116e+16
6.26743102623412e+16
6.26171599041931e+16
6.2557030225838e+16
6.24939162353095e+16
6.24278127305117e+16
6.23587142969377e+16
6.22866153051913e+16
6.22115099078484e+16
6.2133392037389e+16
6.2052255403619e+16
6.19680934908791e+16
6.18808995557205e+16
6.17906666249298e+16
6.16973874927368e+16
6.16010547188188e+16
6.15016606266243e+16
6.13991973009163e+16
6.12936565863471e+16
6.1185030086076e+16
6.10733091598364e+16
6.09584849231234e+16
6.08405482463899e+16
6.07194897537391e+16
6.05952998228583e+16
6.04679685848271e+16
6.03374859237291e+16
6.0203841477325e+16
6.00670246377593e+16
5.99270245520533e+16
5.97838301237543e+16
5.96374300145702e+16
5.94878126460334e+16
5.93349662018982e+16
5.91788786313705e+16
5.90195376512073e+16
5.88569307496289e+16
5.86910451901128e+16
5.85218680169831e+16
5.83493860615858e+16
5.81735859452966e+16
5.7994454065491e+16
5.78119765989074e+16
5.7626139563989e+16
5.74369289462311e+16
5.7244330743874e+16
5.70483303291911e+16
5.6848911079618e+16
5.66460552078192e+16
5.64397506431364e+16
5.62299998081151e+16
5.60167826200394e+16
5.58000637451172e+16
5.5579828418534e+16
5.53560589261989e+16
5.51287369483844e+16
5.48978440580973e+16
5.46633618011553e+16
5.44252717340216e+16
5.41835554400358e+16
5.39381945406481e+16
5.36891707056706e+16
5.34364656630071e+16
5.31800612091693e+16
5.29199392205923e+16
5.2656081664699e+16
5.23884706118772e+16
5.21170882480885e+16
5.18419168872061e+16
5.15629389841852e+16
5.12801371486482e+16
5.09934941581707e+16
5.07029929723286e+16
5.0408616746934e+16
5.01103488481322e+16
4.98081728666537e+16
4.95020726327289e+16
4.91920322302465e+16
4.88780360114453e+16
4.85600686117036e+16
4.82381149637358e+16
4.79121603121533e+16
4.75821902280044e+16
4.7248190622732e+16
4.69101477620955e+16
4.65680482803451e+16
4.62218791935019e+16
4.58716279125919e+16
4.55172822569762e+16
4.51588304668496e+16
4.47962612154724e+16
4.44295636216004e+16
4.40587272608804e+16
4.3683742177106e+16
4.33045988935233e+16
4.29212884231895e+16
4.25338022791902e+16
4.21421324849209e+16
4.17462715835419e+16
4.13462126473895e+16
4.09419492875629e+16
4.0533475662777e+16
4.01207864887115e+16
3.97038770473843e+16
3.92827431965067e+16
3.88573813794913e+16
3.8427788636198e+16
3.79939626141911e+16
3.75559015812644e+16
3.71136044398923e+16
3.66670707426994e+16
3.62163007112495e+16
3.57612952572782e+16
3.53020560073149e+16
3.48385853331535e+16
3.43708863850649e+16
3.38989631356513e+16
3.342282042498e+16
3.294246402802e+16
3.24579007187029e+16
3.19691383340334e+16
3.14761859411536e+16
3.09790539238186e+16
3.047775397817e+16
2.99722994314771e+16
2.94627062777216e+16
2.89489914647231e+16
2.84311713037295e+16
2.79092766353915e+16
2.73833338586724e+16
2.68533336819174e+16
2.63193609453398e+16
2.57815051965163e+16
2.52397393312234e+16
2.46941042477788e+16
2.41446812893098e+16
2.35915060643055e+16
2.30347046818951e+16
2.24743207952581e+16
2.19105008520013e+16
2.13434339560627e+16
2.07729835661601e+16
2.02002295864705e+16
1.96232155255148e+16
1.90468932666416e+16
1.84622209140495e+16
1.78837010747807e+16
1.73171600556266e+16
1.6740965832007e+16
1.61626510435036e+16
1.55846858366964e+16
1.50094084210827e+16
1.4447340024293e+16
1.38850439074136e+16
1.33441273678749e+16
1.28076805414568e+16
1.22459416459457e+16
1.17201745724135e+16
1.12303307817799e+16
1.07176084018068e+16
1.02246043047204e+16
9.78559909309769e+15
9.33114904315082e+15
8.89445269245065e+15
8.52415193398292e+15
8.12637527497852e+15
7.76817158191762e+15
7.45870962823414e+15
7.14275643075345e+15
6.84078350765771e+15
6.60640328153463e+15
6.36191163358187e+15
6.13268069388663e+15
5.9272282852354e+15
5.77811555089146e+15
5.59847680637819e+15
5.45073307294344e+15
5.30826745209455e+15
5.21875332434612e+15
5.13328536633568e+15
5.06890133807432e+15
5.01049654968879e+15
5.00382397003235e+15
5.01429812090424e+15
5.04024832797134e+15
5.06353241949544e+15
5.05408535992793e+15
5.02648164227499e+15
4.98097569325279e+15
4.93192624209253e+15
4.88237518407227e+15
4.83566117493048e+15
4.7920632461491e+15
4.75311437818001e+15
4.71820200586554e+15
4.66326996582036e+15
4.6140861532584e+15
4.56810367611642e+15
4.52735677349847e+15
4.48918691608279e+15
4.4557342636539e+15
4.42426607811072e+15
4.39704958574069e+15
4.37130801474531e+15
4.34940737805154e+15
4.32855636987157e+15
4.31052612483591e+15
4.27803051470839e+15
4.2495497648317e+15
4.22096674767358e+15
4.19616815986596e+15
4.17093701003363e+15
4.14932426185426e+15
4.12696297743255e+15
4.10811381959843e+15
4.08824045866052e+15
4.07179536895914e+15
4.05411665090364e+15
4.03979602860196e+15
4.02405541368527e+15
4.01164002321032e+15
3.99761898109148e+15
3.98691347440634e+15
3.97296414017444e+15
3.953487497071e+15
3.93233402724124e+15
3.91438488106167e+15
3.89459143035724e+15
3.87803110293924e+15
3.85948659633726e+15
3.84420198581401e+15
3.82678349600923e+15
3.81267226645697e+15
3.79628794945829e+15
3.78325109861029e+15
3.76781325819743e+15
3.75579058151308e+15
3.7412428279853e+15
3.73017223425266e+15
3.71647132490076e+15
3.70631624291317e+15
3.69341345816635e+15
3.68412038646694e+15
3.67197564982145e+15
3.66351320997843e+15
3.65208536057153e+15
3.64440769773942e+15
3.63202305494012e+15
3.61852021087554e+15
3.60189337872583e+15
3.58916421480934e+15
3.57320770011003e+15
3.56121228133116e+15
3.54588167367802e+15
3.53457722268549e+15
3.51983001899354e+15
3.50919164641929e+15
3.49500467065974e+15
3.48500397506596e+15
3.47134154894772e+15
3.46194534958387e+15
3.44878422873171e+15
3.43996644876471e+15
3.42728025533353e+15
3.41899998703285e+15
3.40675681770736e+15
3.39897556865975e+15
3.3871490191267e+15
3.37985080613263e+15
3.36841559980981e+15
3.36158272297975e+15
3.3505159728326e+15
3.34413619130367e+15
3.33341144804621e+15
3.32746440729463e+15
3.31707464297256e+15
3.31152754456814e+15
3.30142617852475e+15
3.29624942550385e+15
3.28637477133484e+15
3.281490856025e+15
3.26733030546651e+15
)
;

boundaryField
{
    electrode
    {
        type            driftDiffusionPositiveIonDensity;
        seec            0;
        fieldName       Arp1;
        value           uniform 6.29943311171061e+16;
    }
    ground
    {
        type            driftDiffusionPositiveIonDensity;
        seec            0;
        fieldName       Arp1;
        value           uniform 3.26733030546651e+15;
    }
    otherfaces
    {
        type            empty;
    }
}


// ************************************************************************* //
