/*--------------------------------*- C++ -*----------------------------------*\
| =========                 |                                                 |
| \\      /  F ield         | foam-extend: Open Source CFD                    |
|  \\    /   O peration     | Version:     4.0                                |
|   \\  /    A nd           | Web:         http://www.foam-extend.org         |
|    \\/     M anipulation  |                                                 |
\*---------------------------------------------------------------------------*/
FoamFile
{
    version     2.0;
    format      ascii;
    class       volVectorField;
    location    "6.1e-06";
    object      E;
}
// * * * * * * * * * * * * * * * * * * * * * * * * * * * * * * * * * * * * * //

dimensions      [0 0 0 1 0 0 0];

internalField   nonuniform List<vector> 
300
(
(5.40812375715572 -0 -0)
(10.7300138690869 -0 -0)
(18.9553080190419 -0 -0)
(26.5506915578254 -0 -0)
(34.0989614544533 -0 -0)
(41.7139160005524 -0 -0)
(49.3216123068079 -0 -0)
(56.9436525765787 -0 -0)
(64.5807184063159 -0 -0)
(72.2331118460658 -0 -0)
(79.9029824014015 -0 -0)
(87.5918568427067 -0 -0)
(95.3013535712209 -0 -0)
(103.033131339245 -0 -0)
(110.788851022393 -0 -0)
(118.570195378755 -0 -0)
(126.378866946439 -0 -0)
(134.216588951188 -0 -0)
(142.085106996649 -0 -0)
(149.986190180193 -0 -0)
(157.921632379378 -0 -0)
(165.89325350508 -0 -0)
(173.902900767183 -0 -0)
(181.952449969382 -0 -0)
(190.043806758136 -0 -0)
(198.178907896691 -0 -0)
(206.359722547402 -0 -0)
(214.588253583117 -0 -0)
(222.866538832073 -0 -0)
(231.196652389356 -0 -0)
(239.580705978262 -0 -0)
(248.020850157576 -0 -0)
(256.519275708436 -0 -0)
(265.078215003239 -0 -0)
(273.69994326365 -0 -0)
(282.386779955375 -0 -0)
(291.141090190435 -0 -0)
(299.96528609349 -0 -0)
(308.861828217409 -0 -0)
(317.833226957974 -0 -0)
(326.882044082644 -0 -0)
(336.010894100326 -0 -0)
(345.222445917482 -0 -0)
(354.519424262886 -0 -0)
(363.904611340483 -0 -0)
(373.380848485467 -0 -0)
(382.951037755575 -0 -0)
(392.618143713091 -0 -0)
(402.385195222329 -0 -0)
(412.255287215919 -0 -0)
(422.231582647469 -0 -0)
(432.317314459682 -0 -0)
(442.515787629683 -0 -0)
(452.830381313153 -0 -0)
(463.264550983101 -0 -0)
(473.821830824968 -0 -0)
(484.505836263796 -0 -0)
(495.320266993887 -0 -0)
(506.268909174112 -0 -0)
(517.35563594007 -0 -0)
(528.584407914808 -0 -0)
(539.959283422822 -0 -0)
(551.48444502307 -0 -0)
(563.164216689559 -0 -0)
(575.002977931555 -0 -0)
(587.004925459213 -0 -0)
(599.174057994214 -0 -0)
(611.515272943995 -0 -0)
(624.036264991526 -0 -0)
(636.746355425825 -0 -0)
(649.652925446703 -0 -0)
(662.761414270481 -0 -0)
(676.077099116889 -0 -0)
(689.60541507998 -0 -0)
(703.351960224046 -0 -0)
(717.322510786278 -0 -0)
(731.523029896684 -0 -0)
(745.959674888843 -0 -0)
(760.638804779631 -0 -0)
(775.566988127203 -0 -0)
(790.751011461953 -0 -0)
(806.197888397835 -0 -0)
(821.914869256039 -0 -0)
(837.909451444156 -0 -0)
(854.189390561782 -0 -0)
(870.76271228069 -0 -0)
(887.63772495569 -0 -0)
(904.823033257095 -0 -0)
(922.32755257419 -0 -0)
(940.160524527758 -0 -0)
(958.331533479448 -0 -0)
(976.850524232553 -0 -0)
(995.727820858702 -0 -0)
(1014.97414692907 -0 -0)
(1034.60064710799 -0 -0)
(1054.61891017632 -0 -0)
(1075.04099377554 -0 -0)
(1095.87945083927 -0 -0)
(1117.14735785012 -0 -0)
(1138.8583451914 -0 -0)
(1161.02662958672 -0 -0)
(1183.66704894304 -0 -0)
(1206.79509969257 -0 -0)
(1230.42697682238 -0 -0)
(1254.57961701476 -0 -0)
(1279.27074479046 -0 -0)
(1304.51892233045 -0 -0)
(1330.34360289981 -0 -0)
(1356.76518851504 -0 -0)
(1383.80509201841 -0 -0)
(1411.48580399555 -0 -0)
(1439.83096508471 -0 -0)
(1468.8654439887 -0 -0)
(1498.61542188282 -0 -0)
(1529.10848377501 -0 -0)
(1560.37371738496 -0 -0)
(1592.44182044177 -0 -0)
(1625.34521712402 -0 -0)
(1659.11818460451 -0 -0)
(1693.79699058187 -0 -0)
(1729.4200433062 -0 -0)
(1766.02805489859 -0 -0)
(1803.66421979203 -0 -0)
(1842.37440977891 -0 -0)
(1882.20738740714 -0 -0)
(1923.21503992725 -0 -0)
(1965.45263602288 -0 -0)
(2008.97910804065 -0 -0)
(2053.85736250806 -0 -0)
(2100.15462267533 -0 -0)
(2147.94280648896 -0 -0)
(2197.29894476596 -0 -0)
(2248.3056445216 -0 -0)
(2301.051602951 -0 -0)
(2355.63217902716 -0 -0)
(2412.15002994723 -0 -0)
(2470.71582187514 -0 -0)
(2531.44902421399 -0 -0)
(2594.47879741055 -0 -0)
(2659.94499570545 -0 -0)
(2727.99929485224 -0 -0)
(2798.80644084466 -0 -0)
(2872.54568398451 -0 -0)
(2949.41249699176 -0 -0)
(3029.62028616044 -0 -0)
(3113.40217322923 -0 -0)
(3201.01457809867 -0 -0)
(3292.73950059775 -0 -0)
(3388.88303145428 -0 -0)
(3489.78793054571 -0 -0)
(3595.84885411863 -0 -0)
(3707.50023979604 -0 -0)
(3825.21157099616 -0 -0)
(3949.50485461577 -0 -0)
(4080.96257431605 -0 -0)
(4220.23910853956 -0 -0)
(4368.06852167108 -0 -0)
(4525.2779243032 -0 -0)
(4692.80782895757 -0 -0)
(4871.70663979379 -0 -0)
(5063.21837365939 -0 -0)
(5268.64628843574 -0 -0)
(5489.76618477471 -0 -0)
(5728.08662696202 -0 -0)
(5986.82003698569 -0 -0)
(6272.69765216595 -0 -0)
(6590.1259311219 -0 -0)
(6941.0260401187 -0 -0)
(7329.08734926781 -0 -0)
(7759.99839026087 -0 -0)
(8242.38809594764 -0 -0)
(8785.34056137325 -0 -0)
(9399.97453061147 -0 -0)
(10097.3534072231 -0 -0)
(10880.0032279043 -0 -0)
(11757.0070705733 -0 -0)
(12749.3391165661 -0 -0)
(13865.900802755 -0 -0)
(15110.8309798267 -0 -0)
(16502.4742522502 -0 -0)
(18050.0261797062 -0 -0)
(19752.2614816736 -0 -0)
(21622.2779822322 -0 -0)
(23659.5350158793 -0 -0)
(25853.3642371667 -0 -0)
(28206.9443771627 -0 -0)
(30708.6859798995 -0 -0)
(33334.4259364112 -0 -0)
(36076.8067276638 -0 -0)
(38920.6482031478 -0 -0)
(41835.8318687815 -0 -0)
(44801.6559044181 -0 -0)
(47811.372444307 -0 -0)
(50845.6984496409 -0 -0)
(53879.5538103098 -0 -0)
(56902.5777152798 -0 -0)
(59915.1568565965 -0 -0)
(62918.547953029 -0 -0)
(65913.757954253 -0 -0)
(68895.8205159977 -0 -0)
(71871.1877750916 -0 -0)
(74864.4850123526 -0 -0)
(77880.2209652633 -0 -0)
(80915.700057784 -0 -0)
(83959.6075278991 -0 -0)
(86995.2155746386 -0 -0)
(90010.5963231981 -0 -0)
(92998.4919979985 -0 -0)
(95957.1443335619 -0 -0)
(98886.9965832176 -0 -0)
(101789.731799697 -0 -0)
(104667.638828664 -0 -0)
(107523.311760865 -0 -0)
(110351.914427128 -0 -0)
(113149.131686515 -0 -0)
(115917.657036409 -0 -0)
(118660.033088136 -0 -0)
(121378.612284663 -0 -0)
(124075.589838878 -0 -0)
(126752.987628774 -0 -0)
(129412.686186418 -0 -0)
(132056.412429068 -0 -0)
(134685.771632932 -0 -0)
(137302.239123398 -0 -0)
(139906.983094724 -0 -0)
(142496.492771476 -0 -0)
(145067.617485702 -0 -0)
(147621.538170477 -0 -0)
(150159.366289832 -0 -0)
(152682.113635836 -0 -0)
(155190.741868573 -0 -0)
(157686.117279927 -0 -0)
(160169.074025991 -0 -0)
(162640.363053455 -0 -0)
(165100.709923754 -0 -0)
(167550.77696698 -0 -0)
(169991.205269635 -0 -0)
(172422.579641886 -0 -0)
(174845.474908752 -0 -0)
(177260.409810398 -0 -0)
(179667.900166914 -0 -0)
(182067.967667621 -0 -0)
(184457.967039193 -0 -0)
(186835.725598519 -0 -0)
(189201.703944346 -0 -0)
(191556.312103136 -0 -0)
(193899.968758446 -0 -0)
(196233.050385169 -0 -0)
(198555.941510436 -0 -0)
(200868.981492366 -0 -0)
(203172.523950729 -0 -0)
(205466.880516939 -0 -0)
(207752.37492897 -0 -0)
(210029.292345761 -0 -0)
(212297.938288388 -0 -0)
(214558.581069761 -0 -0)
(216811.507287145 -0 -0)
(219056.972058562 -0 -0)
(221295.251405092 -0 -0)
(223526.585555985 -0 -0)
(225751.234249219 -0 -0)
(227969.425806025 -0 -0)
(230181.410458252 -0 -0)
(232387.404142652 -0 -0)
(234587.643265196 -0 -0)
(236781.838985076 -0 -0)
(238968.234282151 -0 -0)
(241145.549555034 -0 -0)
(243314.017900225 -0 -0)
(245473.841223121 -0 -0)
(247625.240611005 -0 -0)
(249768.404656114 -0 -0)
(251903.541498591 -0 -0)
(254030.826902426 -0 -0)
(256150.461589809 -0 -0)
(258262.614332233 -0 -0)
(260367.477277394 -0 -0)
(262465.208460683 -0 -0)
(264555.990026462 -0 -0)
(266639.973008512 -0 -0)
(268717.331693044 -0 -0)
(270788.209201172 -0 -0)
(272852.767431324 -0 -0)
(274911.139856048 -0 -0)
(276963.47693501 -0 -0)
(279009.904094022 -0 -0)
(281050.566914943 -0 -0)
(283085.58339153 -0 -0)
(285115.093641219 -0 -0)
(287139.208648968 -0 -0)
(289158.065026403 -0 -0)
(291171.765689407 -0 -0)
(293180.440998543 -0 -0)
(295184.19190911 -0 -0)
(297183.138728143 -0 -0)
(299177.368141319 -0 -0)
(301166.991042437 -0 -0)
(303152.075151996 -0 -0)
(305132.717014958 -0 -0)
(307107.613836389 -0 -0)
)
;

boundaryField
{
    electrode
    {
        type            calculated;
        value           uniform (4.45016838739321 -0 -0);
    }
    ground
    {
        type            calculated;
        value           uniform (308092.922009734 -0 -0);
    }
    otherfaces
    {
        type            empty;
    }
}


// ************************************************************************* //
