/*--------------------------------*- C++ -*----------------------------------*\
| =========                 |                                                 |
| \\      /  F ield         | foam-extend: Open Source CFD                    |
|  \\    /   O peration     | Version:     4.0                                |
|   \\  /    A nd           | Web:         http://www.foam-extend.org         |
|    \\/     M anipulation  |                                                 |
\*---------------------------------------------------------------------------*/
FoamFile
{
    version     2.0;
    format      ascii;
    class       volScalarField;
    location    "6.1e-06";
    object      electron;
}
// * * * * * * * * * * * * * * * * * * * * * * * * * * * * * * * * * * * * * //

dimensions      [0 0 0 1 0 0 0];

internalField   nonuniform List<scalar> 
300
(
6.31870882041672e+16
6.3185516861216e+16
6.31813679298487e+16
6.31742567310712e+16
6.31642424158808e+16
6.31513016437338e+16
6.31354292345575e+16
6.31166246572166e+16
6.30948849881995e+16
6.30702077564779e+16
6.30425903104005e+16
6.30120297708792e+16
6.29785230890386e+16
6.29420670248674e+16
6.29026581470021e+16
6.28602928315868e+16
6.28149672596566e+16
6.27666774150048e+16
6.27154190818783e+16
6.26611878425814e+16
6.26039790750297e+16
6.25437879502481e+16
6.24806094298272e+16
6.24144382633446e+16
6.23452689857664e+16
6.22730959148443e+16
6.21979131485189e+16
6.21197145623367e+16
6.20384938069026e+16
6.19542443053825e+16
6.18669592510555e+16
6.17766316049481e+16
6.16832540935635e+16
6.15868192067001e+16
6.14873191953968e+16
6.13847460700212e+16
6.12790915984973e+16
6.11703473046979e+16
6.1058504467022e+16
6.09435541171678e+16
6.08254870391108e+16
6.07042937683131e+16
6.057996459117e+16
6.04524895447082e+16
6.03218584165625e+16
6.01880607452202e+16
6.00510858205691e+16
5.99109226847574e+16
5.9767560133362e+16
5.96209867168949e+16
5.94711907426561e+16
5.93181602769307e+16
5.91618831475494e+16
5.90023469468178e+16
5.88395390348323e+16
5.86734465431765e+16
5.85040563789823e+16
5.83313552293119e+16
5.81553295659628e+16
5.79759656510439e+16
5.77932495434543e+16
5.76071671048556e+16
5.74177040021005e+16
5.72248457067131e+16
5.70285775071589e+16
5.68288845623073e+16
5.66257519716764e+16
5.64191646806608e+16
5.62091069788439e+16
5.59955619194275e+16
5.57785114185084e+16
5.55579368807296e+16
5.53338195799887e+16
5.51061407497992e+16
5.487488161311e+16
5.46400233952603e+16
5.44015473324469e+16
5.4159434679428e+16
5.39136667174562e+16
5.36642247626861e+16
5.3411090175101e+16
5.31542443679238e+16
5.28936688174869e+16
5.26293450735283e+16
5.2361254769864e+16
5.20893796353953e+16
5.18137015054198e+16
5.15342023331961e+16
5.12508642017192e+16
5.09636693356712e+16
5.0672600113492e+16
5.0377639079528e+16
5.00787689562158e+16
4.977597265625e+16
4.94692332946802e+16
4.91585342008981e+16
4.88438589304591e+16
4.8525191276679e+16
4.82025152819619e+16
4.78758152487992e+16
4.75450757503821e+16
4.72102816407721e+16
4.68714180645667e+16
4.65284704660068e+16
4.61814245974526e+16
4.58302665271689e+16
4.54749826463539e+16
4.5115559675342e+16
4.47519846689123e+16
4.43842450206236e+16
4.40123284661096e+16
4.36362230852494e+16
4.3255917303133e+16
4.28713998897444e+16
4.24826599582614e+16
4.20896869618918e+16
4.16924706891479e+16
4.12910012574511e+16
4.0885269104962e+16
4.0475264980533e+16
4.00609799316484e+16
3.96424052902302e+16
3.92195326561803e+16
3.8792353878503e+16
3.83608610338556e+16
3.79250464023646e+16
3.74849024405184e+16
3.70404217509406e+16
3.6591597048839e+16
3.61384211248908e+16
3.56808868043176e+16
3.52189869018868e+16
3.4752714172524e+16
3.42820612572266e+16
3.38070206239245e+16
3.33275845029081e+16
3.28437448163862e+16
3.23554931017002e+16
3.18628204278876e+16
3.1365717304826e+16
3.08641735839657e+16
3.03581783514915e+16
2.98477198136607e+16
2.93327851663768e+16
2.88133604547749e+16
2.82894304514829e+16
2.77609784728128e+16
2.72279861177164e+16
2.66904332902422e+16
2.61482979090226e+16
2.5601554370298e+16
2.50501725249018e+16
2.44941184475224e+16
2.39333550723145e+16
2.33678421163595e+16
2.27975358270064e+16
2.22223886945825e+16
2.16423493640305e+16
2.10573620196906e+16
2.04673671608143e+16
1.98722992209455e+16
1.92720902065576e+16
1.86666594440553e+16
1.80559161738653e+16
1.74397195213939e+16
1.68176988547986e+16
1.6189279974105e+16
1.55539533148293e+16
1.49113480896755e+16
1.42611485207354e+16
1.36029974702419e+16
1.2936493584103e+16
1.22612674188236e+16
1.15770854024498e+16
1.08842451965281e+16
1.01837304967854e+16
9.47685793199993e+15
8.76540265483246e+15
8.05214577913296e+15
7.3407547863015e+15
6.63566084705388e+15
5.94232133399369e+15
5.26691932358153e+15
4.61606766336344e+15
3.99670843827825e+15
3.41554549677815e+15
2.87855691420592e+15
2.39071777873689e+15
1.95550500494158e+15
1.57458194681769e+15
1.24781007679754e+15
973294020645442
747562855248544
565784281737654
422319542409265
311519877689669
227518131153057
164748245750969
117953785595652
82335890505583.6
56215422064576.3
37611507298532.3
24183515100840.1
14914307752547.3
8998164429370.92
5515321991137.19
3575866780621.97
2513716256256.13
1924473480224.31
1589029715757.85
1393174265883.9
1277074004522.05
1208206547023.26
1168111078540.72
1145826914370.44
1134607017875.57
1129980326369.78
1128939060475.46
1129635542439.91
1130882384817.97
1131716226296.72
1131607748488.86
1130132006909.95
1127053424694.77
1122248264249.28
1115674087671.27
1107348205474.25
1097330541254.85
1085710644352.45
1072598830968.43
1058119287467.73
1042404721137.2
1025592136638.65
1007819504126.95
989223138973.118
969935656825.225
950084397980.973
929790244342.472
909166627391.618
888318771860.277
867340599703.781
846309414822.038
825300565429.127
804392233964.603
783654601701.2
763149997893.263
742932674996.757
723049267664.99
703539264014.848
684435533835.689
665764862087.759
647548487090.451
629802623312.206
612539055990.739
595765607358.135
579488230108.349
563706915334.422
548415763356.525
533611503600.929
519290198963.977
505444133862.205
492064274576.997
479140352028.531
466661231067.134
454615123839.269
442989839191.889
431773122755.455
420952827229.333
410516689450.036
400451919171.428
390743272709.437
381366661413.119
372301492471.243
363537302892.646
355064552854.363
346874734564.422
338959868536.324
331312566753.469
323926065459.198
316794306361.441
309911954524.485
303274552433.351
296877226331.186
290715446244.667
284755645334.112
278969435783.644
273366608303.116
267961132636.534
262768887629.508
257795170313.399
253008248044.74
248403114528.475
244035100722.264
239917660876.149
236074041749.644
232597719701.004
229624573801.121
227432618826.16
226503478421.44
227667283343.349
)
;

boundaryField
{
    electrode
    {
        type            driftDiffusionElectronDensity;
        seec            0.05;
        Edepend         1;
        field_emission  0;
        field_enhancement_factor 55;
        work_function   5;
        value           uniform 6.31870882041672e+16;
    }
    ground
    {
        type            driftDiffusionElectronDensity;
        seec            0.05;
        Edepend         1;
        field_emission  0;
        field_enhancement_factor 55;
        work_function   5;
        value           uniform 229890247411.558;
    }
    otherfaces
    {
        type            empty;
    }
}


// ************************************************************************* //
