/*--------------------------------*- C++ -*----------------------------------*\
| =========                 |                                                 |
| \\      /  F ield         | foam-extend: Open Source CFD                    |
|  \\    /   O peration     | Version:     4.0                                |
|   \\  /    A nd           | Web:         http://www.foam-extend.org         |
|    \\/     M anipulation  |                                                 |
\*---------------------------------------------------------------------------*/
FoamFile
{
    version     2.0;
    format      ascii;
    class       volVectorField;
    location    "6.1e-06";
    object      J_electron;
}
// * * * * * * * * * * * * * * * * * * * * * * * * * * * * * * * * * * * * * //

dimensions      [1 -1 -1 0 0 0 0];

internalField   nonuniform List<vector> 
300
(
(-1.31268808893422e+19 0 0)
(-1.34706517360846e+19 0 0)
(-1.59112923358644e+19 0 0)
(-1.54312322186801e+19 0 0)
(-1.54321408990387e+19 0 0)
(-1.54185998332826e+19 0 0)
(-1.53568525338524e+19 0 0)
(-1.53106229257446e+19 0 0)
(-1.52620117979934e+19 0 0)
(-1.52127895708118e+19 0 0)
(-1.51638963022283e+19 0 0)
(-1.51148696648273e+19 0 0)
(-1.50657989469825e+19 0 0)
(-1.50166859712468e+19 0 0)
(-1.49675177303334e+19 0 0)
(-1.49182934275146e+19 0 0)
(-1.48690090941404e+19 0 0)
(-1.48196608026954e+19 0 0)
(-1.47702449028932e+19 0 0)
(-1.47207575927527e+19 0 0)
(-1.46711950965193e+19 0 0)
(-1.46215536142184e+19 0 0)
(-1.45718293139173e+19 0 0)
(-1.45220183959711e+19 0 0)
(-1.44721170218733e+19 0 0)
(-1.44221213448578e+19 0 0)
(-1.43720274884387e+19 0 0)
(-1.43218316157282e+19 0 0)
(-1.4271529845289e+19 0 0)
(-1.4221118256891e+19 0 0)
(-1.41705930462693e+19 0 0)
(-1.41199502700406e+19 0 0)
(-1.40691860124386e+19 0 0)
(-1.40182964573623e+19 0 0)
(-1.39672776874548e+19 0 0)
(-1.39161258061329e+19 0 0)
(-1.38648369604509e+19 0 0)
(-1.38134072860266e+19 0 0)
(-1.37618329546959e+19 0 0)
(-1.37101100732324e+19 0 0)
(-1.36582349359248e+19 0 0)
(-1.36062036390781e+19 0 0)
(-1.35540125232689e+19 0 0)
(-1.35016578010706e+19 0 0)
(-1.34491357534337e+19 0 0)
(-1.33964427857376e+19 0 0)
(-1.33435752213326e+19 0 0)
(-1.32905294709124e+19 0 0)
(-1.32373020646095e+19 0 0)
(-1.31838894764259e+19 0 0)
(-1.31302882894055e+19 0 0)
(-1.30764951386571e+19 0 0)
(-1.30225067084155e+19 0 0)
(-1.29683198296219e+19 0 0)
(-1.29139312606307e+19 0 0)
(-1.28593378622775e+19 0 0)
(-1.2804536341721e+19 0 0)
(-1.27495241618825e+19 0 0)
(-1.26942998016347e+19 0 0)
(-1.26388615121092e+19 0 0)
(-1.25832014482556e+19 0 0)
(-1.25273039336574e+19 0 0)
(-1.24711639402238e+19 0 0)
(-1.24148388701182e+19 0 0)
(-1.23584560356849e+19 0 0)
(-1.23019613794041e+19 0 0)
(-1.22446400659495e+19 0 0)
(-1.21853104317281e+19 0 0)
(-1.21247632421295e+19 0 0)
(-1.2065339119366e+19 0 0)
(-1.20070410055553e+19 0 0)
(-1.19487462062673e+19 0 0)
(-1.18902354862455e+19 0 0)
(-1.18314476886876e+19 0 0)
(-1.17723653016647e+19 0 0)
(-1.17129844459244e+19 0 0)
(-1.16533049922811e+19 0 0)
(-1.15933278312879e+19 0 0)
(-1.15330541945341e+19 0 0)
(-1.14724853992396e+19 0 0)
(-1.14116227602163e+19 0 0)
(-1.13504677247996e+19 0 0)
(-1.12890217297084e+19 0 0)
(-1.12272862560943e+19 0 0)
(-1.11652628230617e+19 0 0)
(-1.11029530540785e+19 0 0)
(-1.10403585134559e+19 0 0)
(-1.09774809224504e+19 0 0)
(-1.09143219521223e+19 0 0)
(-1.08508833520529e+19 0 0)
(-1.07871668626506e+19 0 0)
(-1.07231743038839e+19 0 0)
(-1.06589074361743e+19 0 0)
(-1.059436804621e+19 0 0)
(-1.0529557954571e+19 0 0)
(-1.04644788849753e+19 0 0)
(-1.03991325503143e+19 0 0)
(-1.03335206324551e+19 0 0)
(-1.02676446846685e+19 0 0)
(-1.02015062161537e+19 0 0)
(-1.01351065736829e+19 0 0)
(-1.00684469858772e+19 0 0)
(-1.00015285362392e+19 0 0)
(-9.93435200047546e+18 0 0)
(-9.86691805900335e+18 0 0)
(-9.79922698767801e+18 0 0)
(-9.7312788623073e+18 0 0)
(-9.66307332386927e+18 0 0)
(-9.5946096470655e+18 0 0)
(-9.52588666863983e+18 0 0)
(-9.4569026650673e+18 0 0)
(-9.38765540007241e+18 0 0)
(-9.31814196796562e+18 0 0)
(-9.24835874338295e+18 0 0)
(-9.17830135805746e+18 0 0)
(-9.10796452195153e+18 0 0)
(-9.03734198770912e+18 0 0)
(-8.96642641578531e+18 0 0)
(-8.89520934601936e+18 0 0)
(-8.82368086313638e+18 0 0)
(-8.75182973116429e+18 0 0)
(-8.67964302251472e+18 0 0)
(-8.60710602443797e+18 0 0)
(-8.53420209996143e+18 0 0)
(-8.46091239456086e+18 0 0)
(-8.38721564968118e+18 0 0)
(-8.31308791552724e+18 0 0)
(-8.23850236081236e+18 0 0)
(-8.16342876183383e+18 0 0)
(-8.08783339244696e+18 0 0)
(-8.0116784305406e+18 0 0)
(-7.93492155152099e+18 0 0)
(-7.85751555271505e+18 0 0)
(-7.77940760402225e+18 0 0)
(-7.70053880700889e+18 0 0)
(-7.62084322640973e+18 0 0)
(-7.54024730424351e+18 0 0)
(-7.45866969601697e+18 0 0)
(-7.37601757767795e+18 0 0)
(-7.2921872721783e+18 0 0)
(-7.20706973336496e+18 0 0)
(-7.12053762733166e+18 0 0)
(-7.03241969296527e+18 0 0)
(-6.94258494022667e+18 0 0)
(-6.85096156608017e+18 0 0)
(-6.75701342034566e+18 0 0)
(-6.66054303075847e+18 0 0)
(-6.56262182003225e+18 0 0)
(-6.46030739292815e+18 0 0)
(-6.35021117097404e+18 0 0)
(-6.23725741294171e+18 0 0)
(-6.12391194761311e+18 0 0)
(-6.00641109222438e+18 0 0)
(-5.88431460926593e+18 0 0)
(-5.75618228372688e+18 0 0)
(-5.62201365656686e+18 0 0)
(-5.48126954791476e+18 0 0)
(-5.33039643863758e+18 0 0)
(-5.17721570162088e+18 0 0)
(-4.99748204684142e+18 0 0)
(-4.83932935956831e+18 0 0)
(-4.58971788533983e+18 0 0)
(-4.41177299275901e+18 0 0)
(-3.94794688748664e+18 0 0)
(-2.8927548833577e+18 0 0)
(-2.44034207700484e+18 0 0)
(-2.5295161241098e+18 0 0)
(-2.36401199213865e+18 0 0)
(-1.99045526099644e+18 0 0)
(-1.27415304712933e+18 0 0)
(-7.24237959963869e+17 0 0)
(-1.76535973222416e+17 0 0)
(1.13268431514501e+17 0 0)
(-9.14784947504415e+17 0 0)
(-1.23460539670279e+18 0 0)
(-4.78311001416008e+17 0 0)
(-1.02227833629075e+18 0 0)
(-2.54057954724859e+18 0 0)
(-2.55145401289749e+18 0 0)
(-3.33347558376499e+18 0 0)
(-4.56685543626375e+18 0 0)
(-4.28993619162772e+18 0 0)
(-4.38205805664036e+18 0 0)
(-4.17268150634965e+18 0 0)
(-2.48002682373957e+18 0 0)
(-7.43541722086113e+17 0 0)
(1.29627450941427e+18 0 0)
(4.23701512618194e+18 0 0)
(6.9328514478873e+18 0 0)
(9.11221842851031e+18 0 0)
(1.09599832266344e+19 0 0)
(1.19887351283563e+19 0 0)
(1.27508836240135e+19 0 0)
(1.18575023049262e+19 0 0)
(9.45556853312966e+18 0 0)
(9.22166700952637e+18 0 0)
(6.26319672454965e+18 0 0)
(6.09775270334733e+18 0 0)
(4.55958215872643e+18 0 0)
(-3.85800264205124e+18 0 0)
(1.85796011614509e+18 0 0)
(-1.43498392476586e+18 0 0)
(-2.26430211266588e+18 0 0)
(-2.16496770840383e+18 0 0)
(-2.13675627040293e+18 0 0)
(-2.28105517072127e+18 0 0)
(-2.54954983339351e+18 0 0)
(-2.78248740012402e+18 0 0)
(-2.92357191904753e+18 0 0)
(-2.98505991463669e+18 0 0)
(-3.00289021645005e+18 0 0)
(-2.98807888319115e+18 0 0)
(-2.96406913912265e+18 0 0)
(-2.92736853151729e+18 0 0)
(-2.89068256695157e+18 0 0)
(-2.85033377542467e+18 0 0)
(-2.80608671855295e+18 0 0)
(-2.75949718369957e+18 0 0)
(-2.7127964794853e+18 0 0)
(-2.66480759889543e+18 0 0)
(-2.61798403366737e+18 0 0)
(-2.57052950222238e+18 0 0)
(-2.52250452220625e+18 0 0)
(-2.47436284954435e+18 0 0)
(-2.42622766223974e+18 0 0)
(-2.3782074223027e+18 0 0)
(-2.33038908250367e+18 0 0)
(-2.28288000909307e+18 0 0)
(-2.23576432533407e+18 0 0)
(-2.18912046692171e+18 0 0)
(-2.14301922125158e+18 0 0)
(-2.09752408450684e+18 0 0)
(-2.05269195019235e+18 0 0)
(-2.00857253018402e+18 0 0)
(-1.96520924648964e+18 0 0)
(-1.92263878398353e+18 0 0)
(-1.88089214507511e+18 0 0)
(-1.83999265893222e+18 0 0)
(-1.79996115519839e+18 0 0)
(-1.76078198880104e+18 0 0)
(-1.72246580765092e+18 0 0)
(-1.68524092985041e+18 0 0)
(-1.6487866666967e+18 0 0)
(-1.6132395586458e+18 0 0)
(-1.57858203080992e+18 0 0)
(-1.54481475183656e+18 0 0)
(-1.51192723802859e+18 0 0)
(-1.47990764327857e+18 0 0)
(-1.44874189287178e+18 0 0)
(-1.41841403928181e+18 0 0)
(-1.38890706012297e+18 0 0)
(-1.36020237697844e+18 0 0)
(-1.33228205705242e+18 0 0)
(-1.30512375137282e+18 0 0)
(-1.27872903310006e+18 0 0)
(-1.25298371818161e+18 0 0)
(-1.22800567836257e+18 0 0)
(-1.20373931962457e+18 0 0)
(-1.18006130825437e+18 0 0)
(-1.15705256883641e+18 0 0)
(-1.13465922044421e+18 0 0)
(-1.11286697176245e+18 0 0)
(-1.09165447780528e+18 0 0)
(-1.07100295959533e+18 0 0)
(-1.0508942606844e+18 0 0)
(-1.03131122140644e+18 0 0)
(-1.01223369674273e+18 0 0)
(-9.93642867273892e+17 0 0)
(-9.7552196847426e+17 0 0)
(-9.57838150383412e+17 0 0)
(-9.40542103375709e+17 0 0)
(-9.23863020561087e+17 0 0)
(-9.07485278229289e+17 0 0)
(-8.91515724277492e+17 0 0)
(-8.75927977674846e+17 0 0)
(-8.60716990188347e+17 0 0)
(-8.45870389461947e+17 0 0)
(-8.31377136213378e+17 0 0)
(-8.17226338444417e+17 0 0)
(-8.03406361652153e+17 0 0)
(-7.89908850706701e+17 0 0)
(-7.76706959643663e+17 0 0)
(-7.63827279527382e+17 0 0)
(-7.5094022112034e+17 0 0)
(-7.3900115141834e+17 0 0)
(-7.27025696953902e+17 0 0)
(-7.15349456726761e+17 0 0)
(-7.03925660442932e+17 0 0)
(-6.92701696789693e+17 0 0)
(-6.81612729733993e+17 0 0)
(-6.7145720091224e+17 0 0)
(-6.61210151512263e+17 0 0)
(-6.5086543380696e+17 0 0)
(-6.41563913614329e+17 0 0)
(-6.32233947017955e+17 0 0)
(-6.23371822293272e+17 0 0)
(-6.15200358584703e+17 0 0)
(-6.08201669256462e+17 0 0)
(-6.0189845251947e+17 0 0)
(-5.91289871707459e+17 0 0)
)
;

boundaryField
{
    electrode
    {
        type            calculated;
        value           uniform (-1.56790276251278e+19 0 0);
    }
    ground
    {
        type            calculated;
        value           uniform (-5.8867257389337e+17 0 0);
    }
    otherfaces
    {
        type            empty;
    }
}


// ************************************************************************* //
