/*--------------------------------*- C++ -*----------------------------------*\
| =========                 |                                                 |
| \\      /  F ield         | foam-extend: Open Source CFD                    |
|  \\    /   O peration     | Version:     4.0                                |
|   \\  /    A nd           | Web:         http://www.foam-extend.org         |
|    \\/     M anipulation  |                                                 |
\*---------------------------------------------------------------------------*/
FoamFile
{
    version     2.0;
    format      ascii;
    class       volScalarField;
    location    "6.1e-06";
    object      Phi;
}
// * * * * * * * * * * * * * * * * * * * * * * * * * * * * * * * * * * * * * //

dimensions      [0 0 0 1 0 0 0];

internalField   nonuniform List<scalar> 
300
(
699.999925830527
699.999713627889
699.999210496269
699.998449940688
699.997440450165
699.996176676591
699.994659522432
699.992888569104
699.990863278927
699.988583187877
699.986047738137
699.983256322383
699.980208281014
699.976902898812
699.973339405592
699.96951697541
699.9654347259
699.961091717614
699.956486953303
699.951619377148
699.946487873957
699.941091268322
699.935428323724
699.929497741604
699.923298160393
699.916828154487
699.910086233199
699.903070839651
699.895780349627
699.888213070395
699.880367239468
699.87224102333
699.863832516124
699.855139738283
699.846160635124
699.836893075399
699.827334849793
699.817483669386
699.807337164054
699.796892880838
699.786148282256
699.775100744566
699.763747555983
699.752085914839
699.740112927699
699.727825607416
699.715220871133
699.702295538232
699.689046328219
699.675469858551
699.661562642404
699.647321086374
699.632741488107
699.617820033866
699.60255279602
699.586935730466
699.570964673965
699.554635341382
699.537943322832
699.52088408077
699.503452947103
699.485645120242
699.467455661542
699.448879490574
699.429911380429
699.410545958712
699.390777718732
699.370601021513
699.350010033869
699.328998603847
699.30756027684
699.285688408817
699.263376182555
699.240616602209
699.217402488217
699.193726471527
699.169580987498
699.144958269535
699.119850342505
699.094249015882
699.06814587663
699.041532281785
699.014399350737
698.986737957168
698.95853872064
698.929791997797
698.900487873155
698.870616149466
698.840166337605
698.809127645962
698.777488969303
698.745238877063
698.712365601021
698.678857022339
698.644700657892
698.609883645865
698.574392730547
698.53821424628
698.501334100491
698.463737755756
698.425410210812
698.386335980451
698.346499074216
698.305882973805
698.264470609094
698.222244332671
698.179185892774
698.135276404515
698.090496319248
698.044825391948
697.998242646447
697.950726338348
697.902253915441
697.852801975415
697.802346220649
697.75086140983
697.698321306156
697.644698621801
697.589964958348
697.534090742828
697.477045158975
697.418796073274
697.359309955316
697.298551791954
697.236484994664
697.173071299461
697.108270658669
697.042041123726
696.974338718133
696.905117299558
696.834328409955
696.761921112459
696.687841813637
696.612034069491
696.53443837344
696.454991924222
696.373628371443
696.290277536097
696.204865103163
696.117312282937
696.027535436782
695.93544566328
695.840948340726
695.743942617681
695.644320840927
695.541967931937
695.436760696045
695.328566960064
695.217244729338
695.102641424633
694.984592200635
694.862918167692
694.737425517982
694.607904062959
694.474125194341
694.335839891338
694.192775920438
694.044635323227
693.891090725484
693.731781467963
693.566310282832
693.394233576386
693.215067196936
693.028249164067
692.833194755138
692.629127828268
692.415014911661
692.189786099527
691.95227984232
691.701180276242
691.434946616302
691.151687736512
690.849257245544
690.525022767805
690.176100351729
689.799689219278
689.392299880358
688.949733278173
688.467906493507
687.942344546185
687.367741543358
686.739009467538
686.050924111246
685.297524268722
684.473621776854
683.573966652911
682.593158818377
681.526720920917
680.370863755949
679.121600472407
677.776153875739
676.332545014488
674.789376815444
673.145120184868
671.399663585468
669.553149930847
667.60615840445
665.558806140407
663.411588540915
661.164555610123
658.818533839848
656.373143091784
653.827568172358
651.181128360767
648.433188168506
645.58382119224
642.633507130196
639.583114770694
636.433607663663
633.185971815123
629.841141224781
626.399989695142
622.863298636204
619.231768911086
615.506504341063
611.688493465318
607.778660538636
603.777824592775
599.686753052991
595.506118603517
591.23655387774
586.878606191088
582.432793049136
577.899554748892
573.279310440909
568.572422542578
563.779544256144
558.90124804353
553.938108378113
548.890623624209
543.75930080239
538.544574166304
533.246892983728
527.866635897903
522.404202113498
516.859921902987
511.234150315699
505.527174885011
499.739311672907
493.870809891093
487.921951018881
481.892949879967
475.784086507706
469.595752077354
463.328371467804
456.98230514773
450.55795066093
444.055640563833
437.475747301918
430.818577796472
424.084481869094
417.273742866422
410.386689834631
403.423584537825
396.38473701158
389.270388651931
382.08083160693
374.816288166121
367.477033469693
360.063271405782
352.575261099293
345.013189122503
337.377299378892
329.667761758618
321.884805769382
314.028585540939
306.099349837042
298.097369922129
290.022979866708
281.876435395447
273.658057118499
265.36808602138
257.006830141424
248.574516588138
240.071441681261
231.49781914882
222.853934059114
214.139987330327
205.356253495069
196.502921328563
187.580255294502
178.588432549026
169.527708014424
160.398248053605
151.200298690686
141.934016257938
132.599638417751
123.197311796941
113.727266191651
104.189638887526
94.584652281717
84.912434552434
75.1732012357582
65.3670718191967
55.494255108485
45.5548625706555
35.5490972323971
25.4770631678256
15.3389588889287
5.13488203349393
)
;

boundaryField
{
    electrode
    {
        type            fixedValue;
        value           uniform 700;
    }
    ground
    {
        type            fixedValue;
        value           uniform 0;
    }
    otherfaces
    {
        type            empty;
    }
}


// ************************************************************************* //
