/*--------------------------------*- C++ -*----------------------------------*\
| =========                 |                                                 |
| \\      /  F ield         | foam-extend: Open Source CFD                    |
|  \\    /   O peration     | Version:     4.0                                |
|   \\  /    A nd           | Web:         http://www.foam-extend.org         |
|    \\/     M anipulation  |                                                 |
\*---------------------------------------------------------------------------*/
FoamFile
{
    version     2.0;
    format      ascii;
    class       volScalarField;
    location    "6.1e-06";
    object      TeMean;
}
// * * * * * * * * * * * * * * * * * * * * * * * * * * * * * * * * * * * * * //

dimensions      [0 0 0 1 0 0 0];

internalField   nonuniform List<scalar> 
300
(
35014.7374450742
35015.0300306665
35015.154915721
35015.1456137956
35015.1524470448
35015.1550497271
35015.1562822948
35015.1590085029
35015.1633019015
35015.1698436392
35015.1792262655
35015.1920077517
35015.208737345
35015.2299306885
35015.256087515
35015.2876901291
35015.3252020192
35015.3690728557
35015.4197380086
35015.4776183552
35015.543123199
35015.6166480666
35015.698577218
35015.7892828925
35015.8891248835
35015.9984620851
35016.1176448387
35016.2470121661
35016.386900788
35016.5376329451
35016.6995150532
35016.8728634294
35017.0580017364
35017.2552404293
35017.4648826435
35017.6872199987
35017.9225410334
35018.171140504
35018.4333102669
35018.709334568
35018.9994921325
35019.304068083
35019.6233454082
35019.9576020518
35020.3071146287
35020.6721581734
35021.0530056913
35021.4499272252
35021.8631865124
35022.2930409242
35022.7397417314
35023.2035495502
35023.6847431019
35024.1836000217
35024.7004019678
35025.2354409305
35025.7890026946
35026.3613689866
35026.9528311325
35027.5636835111
35028.1942219857
35028.8447534876
35029.515570679
35030.2069627751
35030.9192527095
35031.6527817566
35032.4078900136
35033.1849179145
35033.9842095181
35034.806118506
35035.6510013875
35036.519208551
35037.4111108956
35038.3270957349
35039.2675444255
35040.232835103
35041.2233720822
35042.2395939276
35043.2819333952
35044.3508239531
35045.4467359978
35046.5701557194
35047.7215623996
35048.901436518
35050.1102702147
35051.3485913561
35052.6169591647
35053.9159354764
35055.2460873887
35056.6080080483
35058.0022939334
35059.4295573113
35060.8904772736
35062.3857360322
35063.916023629
35065.4820744125
35067.084637097
35068.7244863917
35070.4024179451
35072.1192581107
35073.8758803931
35075.6731586598
35077.5119952444
35079.3933618036
35081.3182594545
35083.2877186038
35085.3028031877
35087.3646200344
35089.4743323975
35091.6331460992
35093.84231496
35096.1031405544
35098.4169682386
35100.7852207567
35103.2093684916
35105.6909288901
35108.2314797443
35110.8326904127
35113.4963259668
35116.2241867513
35119.0181474989
35121.8801824945
35124.8123514226
35127.816829327
35130.8959195076
35134.0520171417
35137.2876081118
35140.60532329
35144.0079430204
35147.4983652986
35151.0796356451
35154.7549827246
35158.5278239463
35162.4017201958
35166.3804237778
35170.4679769351
35174.6686813112
35178.987083668
35183.4280136354
35187.9966208013
35192.6984030833
35197.5392277048
35202.5253635759
35207.6635118654
35212.9608947516
35218.4253417156
35224.065322608
35229.8900256694
35235.9093676478
35242.1341149778
35248.5760846848
35255.2481969751
35262.1646466004
35269.3411779034
35276.7951424622
35284.5458480572
35292.6148390935
35301.0265965876
35309.8092709778
35318.9971153199
35328.6422047731
35338.8124483716
35349.5696014394
35360.9721487569
35373.0794451268
35385.9487208864
35399.6669601365
35414.3649455363
35430.1885631847
35447.2600524938
35465.6480717013
35485.4230601827
35506.7015697832
35529.5324475025
35553.9945246023
35580.321366661
35608.6075539016
35639.0755974898
35672.5415691349
35710.0685038281
35753.3735624166
35805.7542215505
35872.0716377401
35959.6087722488
36079.8818083815
36249.6395879035
36493.2260172298
36847.0552735907
37365.1102293388
38128.8588068071
39264.0100469309
40968.7937786657
43563.833370389
47664.9039821742
53893.9715782955
62677.4967252797
75454.7070639471
92914.9601385332
116336.773832796
146164.071748414
182448.897801445
224159.072355487
270010.013211286
318724.748630735
369070.217944994
419810.296186066
469553.39531669
516844.993530396
560538.833069073
600014.174008104
635141.06404575
666131.369904864
693402.507804324
717448.34700548
738729.876487441
757675.727431829
774676.955264683
790058.346811931
804082.60754455
816965.79546676
828880.538856222
839968.370638119
850355.6229057
860146.721153545
869426.571155823
878264.789937918
886718.702617886
894835.237106494
902652.564245866
910201.500068644
917506.587849648
924586.990009477
931457.216393931
938127.648923275
944605.090246784
950893.252504285
956993.056379671
962902.955359877
968619.209137907
974136.112604964
979446.368543842
984540.779439354
989408.434353964
994037.627964316
998415.761313873
1002529.32624721
1006363.71478628
1009903.55991594
1013132.96744343
1016035.21322114
1018593.54216281
1020790.98277397
1022609.89848798
1024032.33086155
1025039.81042665
1025613.50723351
1025730.28459482
1025378.87031466
1024541.39983064
1023195.33897101
1021321.18116365
1018899.18195109
1015909.61460215
1012332.54955235
1008147.82619251
1003335.40372663
997874.533281307
991743.894077371
984922.518926613
977388.93864113
969120.442118777
960093.735268499
950285.50135443
939671.077546412
928224.319142197
915917.779466349
902722.569362636
888608.172129829
873542.270758977
857490.466466758
840416.186726954
822280.402939008
803045.812675445
782667.896343809
761092.856186672
738267.635218088
714130.298400515
688606.220122522
661621.715383094
633090.443751478
602904.699667213
570943.908570405
537071.775343764
501106.679701551
462829.330434498
421962.631149856
378115.813910293
330752.932740828
279090.868927775
222095.785090607
)
;

boundaryField
{
    electrode
    {
        type            calculated;
        value           uniform 35014.7374450762;
    }
    ground
    {
        type            calculated;
        value           uniform 189775.214039161;
    }
    otherfaces
    {
        type            empty;
    }
}


// ************************************************************************* //
