/*--------------------------------*- C++ -*----------------------------------*\
| =========                 |                                                 |
| \\      /  F ield         | foam-extend: Open Source CFD                    |
|  \\    /   O peration     | Version:     4.0                                |
|   \\  /    A nd           | Web:         http://www.foam-extend.org         |
|    \\/     M anipulation  |                                                 |
\*---------------------------------------------------------------------------*/
FoamFile
{
    version     2.0;
    format      ascii;
    class       volScalarField;
    location    "1e-07";
    object      Ar;
}
// * * * * * * * * * * * * * * * * * * * * * * * * * * * * * * * * * * * * * //

dimensions      [0 0 0 1 0 0 0];

internalField   nonuniform List<scalar> 
300
(
3.21880302605053e+22
3.21880299536155e+22
3.21880301374233e+22
3.21880301152387e+22
3.21880300940301e+22
3.21880300951765e+22
3.218803010104e+22
3.21880301132434e+22
3.21880301332086e+22
3.21880301618944e+22
3.21880302001942e+22
3.21880302485364e+22
3.21880303074406e+22
3.21880303771915e+22
3.21880304579535e+22
3.21880305497871e+22
3.21880306526776e+22
3.21880307665264e+22
3.21880308911786e+22
3.21880310264444e+22
3.21880311720983e+22
3.21880313278947e+22
3.21880314935744e+22
3.21880316688477e+22
3.2188031853501e+22
3.21880320472106e+22
3.21880322497143e+22
3.2188032460763e+22
3.21880326800738e+22
3.21880329073614e+22
3.21880331424499e+22
3.21880333850692e+22
3.21880336349409e+22
3.21880338918541e+22
3.21880341555822e+22
3.21880344259021e+22
3.21880347026148e+22
3.21880349855127e+22
3.21880352743916e+22
3.21880355690669e+22
3.21880358693646e+22
3.21880361750957e+22
3.21880364860968e+22
3.21880368022049e+22
3.21880371232636e+22
3.21880374491201e+22
3.21880377796323e+22
3.21880381146559e+22
3.21880384540685e+22
3.21880387977178e+22
3.21880391455298e+22
3.21880394973119e+22
3.21880398529847e+22
3.21880402123569e+22
3.21880405753164e+22
3.21880409417012e+22
3.21880413113921e+22
3.21880416842659e+22
3.21880420601987e+22
3.21880424390813e+22
3.21880428208033e+22
3.21880432052618e+22
3.21880435923241e+22
3.21880439819782e+22
3.21880443741286e+22
3.21880447686097e+22
3.21880451653709e+22
3.2188045564335e+22
3.2188045965429e+22
3.21880463685876e+22
3.21880467737259e+22
3.21880471808242e+22
3.21880475898474e+22
3.21880480006735e+22
3.21880484132882e+22
3.21880488276787e+22
3.21880492437524e+22
3.21880496615e+22
3.21880500807492e+22
3.21880505016455e+22
3.21880509239819e+22
3.21880513477474e+22
3.21880517729201e+22
3.21880521994173e+22
3.21880526272808e+22
3.21880530564532e+22
3.21880534868721e+22
3.21880539185181e+22
3.21880543514181e+22
3.21880547855301e+22
3.21880552207957e+22
3.21880556574154e+22
3.2188056095185e+22
3.21880565341509e+22
3.21880569743331e+22
3.21880574157395e+22
3.21880578584059e+22
3.2188058302344e+22
3.21880587476177e+22
3.21880591942804e+22
3.21880596423722e+22
3.21880600919058e+22
3.21880605430981e+22
3.21880609958924e+22
3.21880614504113e+22
3.21880619067958e+22
3.21880623650611e+22
3.21880628254194e+22
3.21880632879362e+22
3.21880637527349e+22
3.21880642199778e+22
3.21880646897989e+22
3.21880651623995e+22
3.21880656379697e+22
3.21880661166409e+22
3.21880665986996e+22
3.21880670843994e+22
3.21880675738954e+22
3.21880680674447e+22
3.21880685652902e+22
3.21880690678128e+22
3.218806957519e+22
3.21880700878819e+22
3.21880706061575e+22
3.21880711303283e+22
3.21880716607675e+22
3.21880721979797e+22
3.21880727423019e+22
3.21880732942368e+22
3.21880738542733e+22
3.21880744229744e+22
3.21880750009105e+22
3.21880755886753e+22
3.21880761869145e+22
3.21880767965055e+22
3.21880774180786e+22
3.21880780523937e+22
3.21880787003537e+22
3.21880793629524e+22
3.2188080041073e+22
3.21880807357728e+22
3.21880814481829e+22
3.21880821794785e+22
3.21880829309535e+22
3.21880837040483e+22
3.21880845000429e+22
3.21880853205035e+22
3.2188086166961e+22
3.21880870410347e+22
3.21880879447222e+22
3.21880888797083e+22
3.21880898478768e+22
3.21880908515576e+22
3.21880918926188e+22
3.21880929733037e+22
3.21880940958485e+22
3.21880952625989e+22
3.21880964758013e+22
3.21880977375322e+22
3.21880990503371e+22
3.21881004163991e+22
3.21881018373333e+22
3.21881033163425e+22
3.21881048566437e+22
3.21881064459045e+22
3.21881080790165e+22
3.21881097791411e+22
3.21881115421719e+22
3.21881133485977e+22
3.21881152161559e+22
3.21881171676986e+22
3.21881191702154e+22
3.21881212375494e+22
3.21881233563791e+22
3.2188125515029e+22
3.2188127697305e+22
3.21881298802361e+22
3.21881320434118e+22
3.21881341482745e+22
3.21881361581583e+22
3.21881380624022e+22
3.21881398255574e+22
3.21881413458792e+22
3.21881427631825e+22
3.21881440175898e+22
3.21881449270907e+22
3.21881457353332e+22
3.21881465400421e+22
3.21881471434904e+22
3.21881475171489e+22
3.21881478758781e+22
3.21881482960625e+22
3.21881486508773e+22
3.21881489407873e+22
3.21881491923886e+22
3.21881493679147e+22
3.21881495261589e+22
3.21881497516299e+22
3.21881499998594e+22
3.21881502214057e+22
3.21881504185874e+22
3.2188150596147e+22
3.21881507649342e+22
3.2188150921022e+22
3.21881510687578e+22
3.21881512219345e+22
3.21881513571015e+22
3.21881514853014e+22
3.21881516332532e+22
3.21881517854218e+22
3.21881519282857e+22
3.2188152060211e+22
3.21881521823029e+22
3.21881522967541e+22
3.21881524052305e+22
3.21881525092377e+22
3.21881526097363e+22
3.21881527070663e+22
3.21881528015141e+22
3.21881528932662e+22
3.21881529822936e+22
3.21881530687888e+22
3.21881531528525e+22
3.2188153234364e+22
3.21881533135276e+22
3.2188153390412e+22
3.21881534649726e+22
3.21881535374257e+22
3.21881536074444e+22
3.21881536758334e+22
3.21881537418966e+22
3.21881538066222e+22
3.21881538713029e+22
3.2188153933739e+22
3.2188153993707e+22
3.21881540515671e+22
3.21881541074773e+22
3.218815416145e+22
3.21881542136059e+22
3.21881542637318e+22
3.21881543119064e+22
3.21881543583122e+22
3.21881544029475e+22
3.21881544460376e+22
3.21881544877247e+22
3.2188154527991e+22
3.21881545669534e+22
3.21881546046495e+22
3.21881546410846e+22
3.2188154676438e+22
3.21881547105824e+22
3.21881547436926e+22
3.21881547756757e+22
3.21881548066319e+22
3.2188154836513e+22
3.21881548654011e+22
3.21881548932869e+22
3.21881549201946e+22
3.21881549462089e+22
3.21881549712965e+22
3.21881549955218e+22
3.21881550188218e+22
3.21881550413456e+22
3.2188155063038e+22
3.21881550840356e+22
3.21881551042691e+22
3.21881551238149e+22
3.21881551426354e+22
3.21881551607439e+22
3.21881551782034e+22
3.21881551949698e+22
3.21881552110697e+22
3.21881552264988e+22
3.21881552413229e+22
3.21881552555881e+22
3.21881552693022e+22
3.21881552825072e+22
3.21881552952219e+22
3.21881553073515e+22
3.21881553189529e+22
3.21881553300408e+22
3.21881553405887e+22
3.21881553507121e+22
3.21881553604867e+22
3.21881553697545e+22
3.21881553785505e+22
3.2188155386943e+22
3.21881553949324e+22
3.21881554025077e+22
3.21881554097359e+22
3.21881554164648e+22
3.21881554230944e+22
3.21881554288215e+22
3.21881554351577e+22
3.2188155439663e+22
3.21881554458162e+22
3.2188155449317e+22
3.21881554549797e+22
3.2188155457664e+22
3.21881554637927e+22
)
;

boundaryField
{
    electrode
    {
        type            zeroGradient;
    }
    ground
    {
        type            zeroGradient;
    }
    otherfaces
    {
        type            empty;
    }
}


// ************************************************************************* //
