/*--------------------------------*- C++ -*----------------------------------*\
| =========                 |                                                 |
| \\      /  F ield         | foam-extend: Open Source CFD                    |
|  \\    /   O peration     | Version:     4.0                                |
|   \\  /    A nd           | Web:         http://www.foam-extend.org         |
|    \\/     M anipulation  |                                                 |
\*---------------------------------------------------------------------------*/
FoamFile
{
    version     2.0;
    format      ascii;
    class       volScalarField;
    location    "1e-07";
    object      Arm;
}
// * * * * * * * * * * * * * * * * * * * * * * * * * * * * * * * * * * * * * //

dimensions      [0 0 0 1 0 0 0];

internalField   nonuniform List<scalar> 
300
(
3.57417118404732e+15
3.57605232426456e+15
3.57800266251367e+15
3.57930831675805e+15
3.58012443025018e+15
3.58050285693947e+15
3.58048781561346e+15
3.58011072893173e+15
3.57939725070007e+15
3.57836937122989e+15
3.57704285418602e+15
3.57543178658816e+15
3.57354822050228e+15
3.57140275795079e+15
3.5690048554586e+15
3.5663630647932e+15
3.56348219122213e+15
3.56037083119774e+15
3.55703733024035e+15
3.55348816410495e+15
3.54972953426917e+15
3.5457673624704e+15
3.54160733871529e+15
3.53725494881447e+15
3.53269940976778e+15
3.52795856181741e+15
3.52303607848687e+15
3.51793394321062e+15
3.51266579773655e+15
3.50723654731251e+15
3.50163232722217e+15
3.49586455643793e+15
3.48995138886679e+15
3.48389817764669e+15
3.47771000906737e+15
3.4713916953032e+15
3.46494338368622e+15
3.45837160455247e+15
3.45168343690191e+15
3.44488240770079e+15
3.43797201633237e+15
3.43095754677016e+15
3.42384287701904e+15
3.41663169876367e+15
3.40932751233372e+15
3.4019335865402e+15
3.39445085920469e+15
3.3868808021498e+15
3.37921561415774e+15
3.37145392778396e+15
3.36358305151353e+15
3.35561559514358e+15
3.34754606565676e+15
3.33939226180849e+15
3.33116227368571e+15
3.32287252424773e+15
3.31452628359107e+15
3.30612646789202e+15
3.29767565363772e+15
3.28917424408078e+15
3.28062656957031e+15
3.27203474912448e+15
3.26339546011647e+15
3.25469065022568e+15
3.24592429856875e+15
3.23712210141784e+15
3.22828609536651e+15
3.21941812023165e+15
3.21051976180638e+15
3.20159238449557e+15
3.19263515282401e+15
3.18364088625491e+15
3.17460803961574e+15
3.16554413257242e+15
3.15643553486662e+15
3.14728332820441e+15
3.1380938950745e+15
3.12886301984842e+15
3.11961086700226e+15
3.11030658998839e+15
3.1009850172933e+15
3.09164820769335e+15
3.08229305099389e+15
3.07292186327605e+15
3.06351972680204e+15
3.05409442952636e+15
3.04465771506106e+15
3.0352099058546e+15
3.02573901226452e+15
3.01625287137775e+15
3.00674553114215e+15
2.99717159069388e+15
2.98758670518273e+15
2.9779923837504e+15
2.9683886515341e+15
2.95877553523502e+15
2.94915281646232e+15
2.93952008813461e+15
2.92986636098974e+15
2.92019158524442e+15
2.91050205207588e+15
2.90079911112462e+15
2.89105076310228e+15
2.88128648264521e+15
2.87149695489471e+15
2.86167277372641e+15
2.85182910939315e+15
2.84194618746516e+15
2.83203451961794e+15
2.82209956332578e+15
2.81213943126915e+15
2.80215184950469e+15
2.79212905006727e+15
2.78206883443062e+15
2.77196902030707e+15
2.76181192010054e+15
2.75157853510845e+15
2.7412938338316e+15
2.73095865209502e+15
2.72056493359757e+15
2.71008614582757e+15
2.69953545390893e+15
2.68888366628902e+15
2.6781412728774e+15
2.66731974114468e+15
2.65641690097047e+15
2.64540446264547e+15
2.63430004529668e+15
2.62309272869618e+15
2.61178052758786e+15
2.60034773538786e+15
2.58879051416966e+15
2.5771039156003e+15
2.56526182596151e+15
2.55322761745172e+15
2.54102032023023e+15
2.52864389242243e+15
2.51607320333502e+15
2.50328934028878e+15
2.49030155654611e+15
2.47709380414554e+15
2.46364946477383e+15
2.44993635443591e+15
2.43592235587298e+15
2.42158276413762e+15
2.4069375761978e+15
2.39197184197224e+15
2.3766692290307e+15
2.36099921047591e+15
2.34491269768222e+15
2.32842236530979e+15
2.31150346585458e+15
2.29409348600195e+15
2.27619143238898e+15
2.25777908414604e+15
2.23880661757589e+15
2.21923069188721e+15
2.19905090786946e+15
2.17824813778982e+15
2.15677733389632e+15
2.13460286202245e+15
2.11170973967512e+15
2.08805953013987e+15
2.06366496683681e+15
2.03851309506772e+15
2.01254905465275e+15
1.98579379551962e+15
1.95829198462587e+15
1.93007251895783e+15
1.90117733409469e+15
1.87167518655631e+15
1.84159916905668e+15
1.81104161536933e+15
1.78017417849534e+15
1.7491909227769e+15
1.71826161404083e+15
1.68756541433826e+15
1.65730127364667e+15
1.62770830043199e+15
1.59894185843233e+15
1.57115623343988e+15
1.54449860216976e+15
1.51905006770021e+15
1.4949257503095e+15
1.47212535909823e+15
1.45055794973122e+15
1.43026344710901e+15
1.41119009280578e+15
1.39324880509796e+15
1.37635027534735e+15
1.36037246282564e+15
1.34526832787811e+15
1.33102242199387e+15
1.31756507625801e+15
1.30490871752235e+15
1.29305801147966e+15
1.28182216420991e+15
1.27078932960415e+15
1.26001672183475e+15
1.24967489771137e+15
1.23981021077868e+15
1.23037099057715e+15
1.22135513953667e+15
1.21276072104211e+15
1.20452649244754e+15
1.19660235264937e+15
1.18901082442204e+15
1.18172187430739e+15
1.1747078446062e+15
1.16795911104742e+15
1.16146138890333e+15
1.1552119970082e+15
1.14919671539322e+15
1.14338312083676e+15
1.13779751585953e+15
1.13241613261309e+15
1.12721068085804e+15
1.12220591779987e+15
1.11737787083706e+15
1.11271615960818e+15
1.10822523392946e+15
1.10388773148775e+15
1.09970373666637e+15
1.09566944143871e+15
1.09177168768878e+15
1.08800855776171e+15
1.08438600457348e+15
1.08088768444356e+15
1.07751242553856e+15
1.07426504440369e+15
1.0711280008297e+15
1.06810034806154e+15
1.06518677931647e+15
1.06237595793134e+15
1.05966089291237e+15
1.05705221304918e+15
1.05452808455562e+15
1.0521022413235e+15
1.04975818705436e+15
1.04750169693485e+15
1.04532870115617e+15
1.04322717923928e+15
1.04120815870589e+15
1.03925376630215e+15
1.03736675078699e+15
1.03555946177161e+15
1.03381519947389e+15
1.03213924119214e+15
1.03053182725773e+15
1.02898292914063e+15
1.02749766724377e+15
1.02607014649101e+15
1.02469620615988e+15
1.02338016799476e+15
1.02211485253174e+15
1.02089931412129e+15
1.01973386647605e+15
1.01860514344985e+15
1.01752416058836e+15
1.01648533546448e+15
1.01549660906331e+15
1.01454770339514e+15
1.01364397714734e+15
1.01277964738738e+15
1.01195501203902e+15
1.01116885570465e+15
1.01041641538502e+15
1.00969777284316e+15
1.00900526717772e+15
1.00834786653877e+15
1.00772069091932e+15
1.00713166732733e+15
1.00656972891519e+15
1.00604260271545e+15
1.0055398860533e+15
1.00506178827184e+15
1.00460809517478e+15
1.00418022568526e+15
1.00378151352673e+15
1.00340684951461e+15
1.00305654477046e+15
1.00272562102952e+15
1.00241410043972e+15
1.00212843609849e+15
1.00186687614963e+15
1.00161987350747e+15
1.00139383373261e+15
1.00118931292266e+15
1.00100165413312e+15
1.00083236614076e+15
1.00068315754465e+15
1.00054904378886e+15
1.00043297543515e+15
1.000334325746e+15
1.00025077217561e+15
1.0001838170573e+15
1.0001304002853e+15
1.00009055258356e+15
1.00006182622777e+15
1.00004036398277e+15
)
;

boundaryField
{
    electrode
    {
        type            zeroGradient;
    }
    ground
    {
        type            zeroGradient;
    }
    otherfaces
    {
        type            empty;
    }
}


// ************************************************************************* //
