/*--------------------------------*- C++ -*----------------------------------*\
| =========                 |                                                 |
| \\      /  F ield         | foam-extend: Open Source CFD                    |
|  \\    /   O peration     | Version:     4.0                                |
|   \\  /    A nd           | Web:         http://www.foam-extend.org         |
|    \\/     M anipulation  |                                                 |
\*---------------------------------------------------------------------------*/
FoamFile
{
    version     2.0;
    format      ascii;
    class       volScalarField;
    location    "1e-07";
    object      Arp1;
}
// * * * * * * * * * * * * * * * * * * * * * * * * * * * * * * * * * * * * * //

dimensions      [0 0 0 1 0 0 0];

internalField   nonuniform List<scalar> 
300
(
6.15058314098243e+16
6.1806635404699e+16
6.16179511079568e+16
6.16379133521752e+16
6.16582694486513e+16
6.16583073245704e+16
6.16564494518757e+16
6.16516718546075e+16
6.16430630771668e+16
6.16301032215686e+16
6.16122682441749e+16
6.15894243356656e+16
6.15612769776331e+16
6.15277003224738e+16
6.14886295178257e+16
6.14440510400116e+16
6.13939848749906e+16
6.13384939599127e+16
6.12776673308782e+16
6.12116071553576e+16
6.11404340516542e+16
6.10642753950244e+16
6.09832637561748e+16
6.08975564018129e+16
6.08072478755264e+16
6.07125125231659e+16
6.06134773084688e+16
6.05102593803598e+16
6.04029995953552e+16
6.02918529616054e+16
6.01768869569656e+16
6.00582403247884e+16
5.9936056459593e+16
5.9810427523865e+16
5.9681464977361e+16
5.95492809734114e+16
5.9413971238847e+16
5.92756376260223e+16
5.91343810434537e+16
5.89902901849278e+16
5.8843446171638e+16
5.86939468654762e+16
5.85418686081339e+16
5.8387290985361e+16
5.82302895452324e+16
5.80709391591992e+16
5.79093084692444e+16
5.77454699685613e+16
5.75794849584329e+16
5.74114397837876e+16
5.72413546318597e+16
5.7069343791851e+16
5.68954262415099e+16
5.6719710442461e+16
5.65422359609377e+16
5.63630850099904e+16
5.61823118941601e+16
5.59999771282143e+16
5.58161439156701e+16
5.56308652203561e+16
5.54441935500129e+16
5.52561783236652e+16
5.50669069563341e+16
5.48763636283752e+16
5.46845955477445e+16
5.44916997149367e+16
5.42976845385546e+16
5.41025876561723e+16
5.3906445074182e+16
5.37092872383435e+16
5.35111686768235e+16
5.33120868946418e+16
5.31120502036755e+16
5.29111457248748e+16
5.27093753995567e+16
5.25067258970769e+16
5.23032585510123e+16
5.20989620882938e+16
5.18939645526039e+16
5.16881283308628e+16
5.14816027975588e+16
5.1274375493397e+16
5.10664514348965e+16
5.085789314452e+16
5.06486579331102e+16
5.04387804922145e+16
5.02282986954611e+16
5.00172206259661e+16
4.9805523201802e+16
4.95932345998371e+16
4.93804157847568e+16
4.91669106312529e+16
4.89528678227356e+16
4.87382422195298e+16
4.85230200379267e+16
4.8307202776334e+16
4.80907674182465e+16
4.78737188664994e+16
4.76560242360084e+16
4.74376537972023e+16
4.7218588451446e+16
4.69988457317524e+16
4.67782763682036e+16
4.65569467893725e+16
4.6334787301748e+16
4.61117140132883e+16
4.58877492950641e+16
4.56627577874185e+16
4.54367256954925e+16
4.52095909844141e+16
4.49812661665513e+16
4.475169843631e+16
4.45207792341853e+16
4.42884118640468e+16
4.40545645004025e+16
4.38190731997535e+16
4.35818142804236e+16
4.33427250517145e+16
4.31016722048101e+16
4.28585543092678e+16
4.26131593465004e+16
4.23654481497613e+16
4.21151505246241e+16
4.18621572593347e+16
4.16063264020563e+16
4.13474807463116e+16
4.10853517873327e+16
4.08198071459314e+16
4.05505930322464e+16
4.02774785335095e+16
4.00001904206076e+16
3.97184561890763e+16
3.94320020385672e+16
3.91405470309909e+16
3.88436124911748e+16
3.85409354213535e+16
3.82321642569127e+16
3.7916863171164e+16
3.75945298949707e+16
3.726477571363e+16
3.69270975259442e+16
3.65809558943338e+16
3.62258218656508e+16
3.58610887164018e+16
3.5486037427729e+16
3.51001069141016e+16
3.47025292489537e+16
3.42926200016115e+16
3.38696695420119e+16
3.34326584018833e+16
3.29808665056444e+16
3.25134681961867e+16
3.20293099450127e+16
3.15276802622937e+16
3.10075296028252e+16
3.04678937326168e+16
2.9907732547753e+16
2.93260957730107e+16
2.87222501897672e+16
2.80950412065131e+16
2.74436773509367e+16
2.67679193058542e+16
2.60659697885859e+16
2.53359954413052e+16
2.45919626614911e+16
2.38412320611811e+16
2.30634279987398e+16
2.22657266280964e+16
2.14709988385955e+16
2.0665090645562e+16
1.98282610748506e+16
1.89954748999038e+16
1.81531004960988e+16
1.7312156525645e+16
1.64786569047283e+16
1.56589874405725e+16
1.48614392914202e+16
1.40865474638828e+16
1.33481468491077e+16
1.26547644070761e+16
1.19875653750885e+16
1.13540255797569e+16
1.08330261041515e+16
1.02697251898917e+16
9.71850944049676e+15
9.36612598151653e+15
8.98235052008352e+15
8.48871523198058e+15
8.10494731956369e+15
7.88152555186252e+15
7.62315605026397e+15
7.26931641792053e+15
6.95870920268646e+15
6.69923534781687e+15
6.46972749069738e+15
6.31150699947396e+15
6.16775327195259e+15
5.95518018746943e+15
5.71864851002475e+15
5.5078610166818e+15
5.32072876959392e+15
5.15269247610062e+15
4.99296077561224e+15
4.84548629728658e+15
4.70599327362934e+15
4.56074373648948e+15
4.43316862987734e+15
4.31225652575484e+15
4.17131661803189e+15
4.02589420544501e+15
3.88952543771879e+15
3.7638469216667e+15
3.64776797507167e+15
3.53912826853064e+15
3.43623582180559e+15
3.33760855291363e+15
3.24231443429701e+15
3.14998847460135e+15
3.06036841778412e+15
2.97327809865752e+15
2.88874198022697e+15
2.8065849342137e+15
2.72670620334339e+15
2.64923012405092e+15
2.57396578703857e+15
2.50084610977148e+15
2.42990989558743e+15
2.36095720347136e+15
2.29431590831504e+15
2.2291765416782e+15
2.16625283614516e+15
2.10455734018655e+15
2.04279272071201e+15
1.98317011770046e+15
1.92591981043171e+15
1.87067106700268e+15
1.81728763333357e+15
1.76574357027351e+15
1.71593439559865e+15
1.66806771643333e+15
1.62206869825675e+15
1.57776709848889e+15
1.53515348810813e+15
1.49402035349373e+15
1.45422279342733e+15
1.41576629796658e+15
1.37855056478956e+15
1.342532861333e+15
1.30770753422181e+15
1.27390534265936e+15
1.24124846224714e+15
1.20956805848118e+15
1.17896109095409e+15
1.14932299409392e+15
1.12070930050634e+15
1.09303873263233e+15
1.06632026979879e+15
1.04054319293056e+15
1.0156118195458e+15
991564838699561
968329947608518
945980618436247
924362224177985
903535745352965
883364354765394
863918480584972
845126700362503
827026226974626
809611684516635
792810976739321
776673097420532
761163518102218
746297603728870
732001888117141
718240684757677
705005765661677
692255688561908
679969930952443
668240117194868
657014486928981
646277843711138
636061878825397
626251071042129
616763091900278
607757784523712
599209642660050
591044081808424
583259981736931
575873208172673
568815095742170
562236136277132
555741344936962
550131006081272
543894078348071
539472874058875
533387152837134
529940206831346
524317528281587
521661995012221
515554454103986
)
;

boundaryField
{
    electrode
    {
        type            driftDiffusionPositiveIonDensity;
        seec            0;
        fieldName       Arp1;
        value           uniform 6.14079091334865e+16;
    }
    ground
    {
        type            driftDiffusionPositiveIonDensity;
        seec            0;
        fieldName       Arp1;
        value           uniform 515554454103986;
    }
    otherfaces
    {
        type            empty;
    }
}


// ************************************************************************* //
