/*--------------------------------*- C++ -*----------------------------------*\
| =========                 |                                                 |
| \\      /  F ield         | foam-extend: Open Source CFD                    |
|  \\    /   O peration     | Version:     4.0                                |
|   \\  /    A nd           | Web:         http://www.foam-extend.org         |
|    \\/     M anipulation  |                                                 |
\*---------------------------------------------------------------------------*/
FoamFile
{
    version     2.0;
    format      ascii;
    class       volVectorField;
    location    "1e-07";
    object      E;
}
// * * * * * * * * * * * * * * * * * * * * * * * * * * * * * * * * * * * * * //

dimensions      [0 0 0 1 0 0 0];

internalField   nonuniform List<vector> 
300
(
(-9.40342289035279 -0 -0)
(-11.4829358729973 -0 -0)
(0.144281561698101 -0 -0)
(2.20997288802318 -0 -0)
(4.86406985522593 -0 -0)
(10.817632177529 -0 -0)
(18.6769582008474 -0 -0)
(28.0369899005589 -0 -0)
(38.7296547915698 -0 -0)
(50.565171100248 -0 -0)
(63.3388272538992 -0 -0)
(76.8514889518131 -0 -0)
(90.9207096652662 -0 -0)
(105.376307217573 -0 -0)
(120.067682309045 -0 -0)
(134.866511766753 -0 -0)
(149.665790519224 -0 -0)
(164.378563240199 -0 -0)
(178.936649318508 -0 -0)
(193.288050336078 -0 -0)
(207.394380402628 -0 -0)
(221.228688872257 -0 -0)
(234.773560862929 -0 -0)
(248.019972239058 -0 -0)
(260.962934944823 -0 -0)
(273.601372016702 -0 -0)
(285.939151910278 -0 -0)
(297.981006965046 -0 -0)
(309.733230709201 -0 -0)
(321.205649761461 -0 -0)
(332.40629028073 -0 -0)
(343.340706469783 -0 -0)
(354.017866754964 -0 -0)
(364.448054876492 -0 -0)
(374.640328235012 -0 -0)
(384.603858236172 -0 -0)
(394.347676542545 -0 -0)
(403.880508836802 -0 -0)
(413.211560193514 -0 -0)
(422.349905482331 -0 -0)
(431.303538471397 -0 -0)
(440.08043622178 -0 -0)
(448.688743305602 -0 -0)
(457.135809597741 -0 -0)
(465.428268696433 -0 -0)
(473.572087773872 -0 -0)
(481.572411244094 -0 -0)
(489.433587395941 -0 -0)
(497.159181585322 -0 -0)
(504.752430810395 -0 -0)
(512.213873740728 -0 -0)
(519.543222672663 -0 -0)
(526.74020789279 -0 -0)
(533.804993599395 -0 -0)
(540.739658296038 -0 -0)
(547.546982999806 -0 -0)
(554.230974118884 -0 -0)
(560.795804027736 -0 -0)
(567.246366703243 -0 -0)
(573.588060069686 -0 -0)
(579.82623070807 -0 -0)
(585.966943579423 -0 -0)
(592.018883037514 -0 -0)
(597.987835453176 -0 -0)
(603.874868201782 -0 -0)
(609.685514237128 -0 -0)
(615.428252701071 -0 -0)
(621.10936424041 -0 -0)
(626.73426084742 -0 -0)
(632.308394527051 -0 -0)
(637.838453112923 -0 -0)
(643.329111994844 -0 -0)
(648.780631155928 -0 -0)
(654.196282420673 -0 -0)
(659.581788237174 -0 -0)
(664.93743851876 -0 -0)
(670.261612291266 -0 -0)
(675.554303972211 -0 -0)
(680.820782017543 -0 -0)
(686.062114464561 -0 -0)
(691.277418399326 -0 -0)
(696.473121970868 -0 -0)
(701.654579342154 -0 -0)
(706.828702006015 -0 -0)
(712.000775425561 -0 -0)
(717.173316341764 -0 -0)
(722.353102621056 -0 -0)
(727.549767307116 -0 -0)
(732.770463040951 -0 -0)
(738.02261578722 -0 -0)
(743.318493223808 -0 -0)
(748.662453822623 -0 -0)
(754.058602238445 -0 -0)
(759.520677334831 -0 -0)
(765.06107319753 -0 -0)
(770.691806048571 -0 -0)
(776.425576531988 -0 -0)
(782.276755194161 -0 -0)
(788.260684429853 -0 -0)
(794.391528112581 -0 -0)
(800.684967981588 -0 -0)
(807.16107153942 -0 -0)
(813.834978087644 -0 -0)
(820.721744194787 -0 -0)
(827.843148802712 -0 -0)
(835.218363404244 -0 -0)
(842.869381914427 -0 -0)
(850.81859690508 -0 -0)
(859.087407512144 -0 -0)
(867.702560244757 -0 -0)
(876.692447263154 -0 -0)
(886.087273338604 -0 -0)
(895.917771945125 -0 -0)
(906.214082474576 -0 -0)
(917.012665194265 -0 -0)
(928.350943830797 -0 -0)
(940.260936069348 -0 -0)
(952.779696714119 -0 -0)
(965.952591322288 -0 -0)
(979.829631685236 -0 -0)
(994.460145577302 -0 -0)
(1009.89836046263 -0 -0)
(1026.20035463832 -0 -0)
(1043.42238779627 -0 -0)
(1061.63485319839 -0 -0)
(1080.91921113424 -0 -0)
(1101.35816431415 -0 -0)
(1123.04211422032 -0 -0)
(1146.07456219035 -0 -0)
(1170.5670989058 -0 -0)
(1196.63968531612 -0 -0)
(1224.42228349267 -0 -0)
(1254.0604258081 -0 -0)
(1285.71608219138 -0 -0)
(1319.55337989307 -0 -0)
(1355.747468182 -0 -0)
(1394.5040433641 -0 -0)
(1436.04958923476 -0 -0)
(1480.62157542833 -0 -0)
(1528.48099783634 -0 -0)
(1579.92214628602 -0 -0)
(1635.26810736271 -0 -0)
(1694.87525078331 -0 -0)
(1759.13374685385 -0 -0)
(1828.46044279611 -0 -0)
(1903.31442005798 -0 -0)
(1984.2072296302 -0 -0)
(2071.70717568558 -0 -0)
(2166.45218767091 -0 -0)
(2269.12874947853 -0 -0)
(2380.47767932596 -0 -0)
(2501.36570887435 -0 -0)
(2632.74700378926 -0 -0)
(2775.65012091641 -0 -0)
(2931.27271152548 -0 -0)
(3100.96419865905 -0 -0)
(3286.21067821083 -0 -0)
(3488.68836245397 -0 -0)
(3710.32168162321 -0 -0)
(3953.2919286202 -0 -0)
(4220.08430443125 -0 -0)
(4513.64024994701 -0 -0)
(4837.34144790159 -0 -0)
(5195.45485461627 -0 -0)
(5595.82120146846 -0 -0)
(6050.87442519993 -0 -0)
(6573.2038446773 -0 -0)
(7175.92588182994 -0 -0)
(7878.64396265072 -0 -0)
(8704.42530785219 -0 -0)
(9673.81354840886 -0 -0)
(10811.0365278495 -0 -0)
(12145.2232934586 -0 -0)
(13706.394741346 -0 -0)
(15526.2363529891 -0 -0)
(17636.0087648532 -0 -0)
(20064.1161621127 -0 -0)
(22832.2669919826 -0 -0)
(25953.6965033787 -0 -0)
(29431.690524041 -0 -0)
(33250.7278191391 -0 -0)
(37376.922359543 -0 -0)
(41780.8757662373 -0 -0)
(46401.8515051115 -0 -0)
(51147.8145584719 -0 -0)
(55989.3086076764 -0 -0)
(60891.3739887988 -0 -0)
(65741.6411104409 -0 -0)
(70478.5011709322 -0 -0)
(75133.7306646635 -0 -0)
(79710.2762671946 -0 -0)
(84144.6083919862 -0 -0)
(88404.0367949153 -0 -0)
(92505.7310093124 -0 -0)
(96468.6842051294 -0 -0)
(100319.455629791 -0 -0)
(104080.535175907 -0 -0)
(107735.158210824 -0 -0)
(111255.149556483 -0 -0)
(114640.75861205 -0 -0)
(117906.533183597 -0 -0)
(121065.202029388 -0 -0)
(124125.005292932 -0 -0)
(127092.150785967 -0 -0)
(129972.751855393 -0 -0)
(132767.485570475 -0 -0)
(135479.936261882 -0 -0)
(138117.444423588 -0 -0)
(140675.991142314 -0 -0)
(143148.178541221 -0 -0)
(145535.376262762 -0 -0)
(147843.536463132 -0 -0)
(150078.778471522 -0 -0)
(152246.242560464 -0 -0)
(154349.907334457 -0 -0)
(156392.793852113 -0 -0)
(158377.194691092 -0 -0)
(160305.010871516 -0 -0)
(162177.953377369 -0 -0)
(163997.601512834 -0 -0)
(165765.48903721 -0 -0)
(167483.103615188 -0 -0)
(169151.849960279 -0 -0)
(170773.139785598 -0 -0)
(172348.364830157 -0 -0)
(173878.839013314 -0 -0)
(175365.867688055 -0 -0)
(176810.707566028 -0 -0)
(178214.654030656 -0 -0)
(179578.8572906 -0 -0)
(180904.438302133 -0 -0)
(182192.435612733 -0 -0)
(183443.199032709 -0 -0)
(184657.353616769 -0 -0)
(185836.260643597 -0 -0)
(186981.239371978 -0 -0)
(188093.456163618 -0 -0)
(189174.028315604 -0 -0)
(190224.033723955 -0 -0)
(191244.581296062 -0 -0)
(192236.820096234 -0 -0)
(193201.825380362 -0 -0)
(194140.618208059 -0 -0)
(195054.154269583 -0 -0)
(195943.282947464 -0 -0)
(196808.811495141 -0 -0)
(197651.51857533 -0 -0)
(198472.139700479 -0 -0)
(199271.395801004 -0 -0)
(200049.955063147 -0 -0)
(200808.471436452 -0 -0)
(201547.584808824 -0 -0)
(202267.913380061 -0 -0)
(202970.073049254 -0 -0)
(203654.664936125 -0 -0)
(204322.282404474 -0 -0)
(204973.497008027 -0 -0)
(205608.87978847 -0 -0)
(206228.969718643 -0 -0)
(206834.288558474 -0 -0)
(207425.347913144 -0 -0)
(208002.65975872 -0 -0)
(208566.711630025 -0 -0)
(209117.962818192 -0 -0)
(209656.849731543 -0 -0)
(210183.788728919 -0 -0)
(210699.195860965 -0 -0)
(211203.47684722 -0 -0)
(211697.047026944 -0 -0)
(212180.298403704 -0 -0)
(212653.615971157 -0 -0)
(213117.389087652 -0 -0)
(213572.001367849 -0 -0)
(214017.818930031 -0 -0)
(214455.174967535 -0 -0)
(214884.38941025 -0 -0)
(215305.767214256 -0 -0)
(215719.594606272 -0 -0)
(216126.179223525 -0 -0)
(216525.840766604 -0 -0)
(216918.878760557 -0 -0)
(217305.597718927 -0 -0)
(217686.276930919 -0 -0)
(218061.135970025 -0 -0)
(218430.417680695 -0 -0)
(218794.405464311 -0 -0)
(219153.352615963 -0 -0)
(219507.489571289 -0 -0)
(219857.051190184 -0 -0)
(220202.256387232 -0 -0)
(220543.348823445 -0 -0)
(220880.498319006 -0 -0)
(221213.997059201 -0 -0)
(221543.922709477 -0 -0)
(221870.633892122 -0 -0)
(222194.176237014 -0 -0)
(222514.843198602 -0 -0)
(222832.774706874 -0 -0)
(223148.210509597 -0 -0)
(223461.002240178 -0 -0)
)
;

boundaryField
{
    electrode
    {
        type            calculated;
        value           uniform (2.47338941562703 -0 -0);
    }
    ground
    {
        type            calculated;
        value           uniform (223616.476110589 -0 -0);
    }
    otherfaces
    {
        type            empty;
    }
}


// ************************************************************************* //
