/*--------------------------------*- C++ -*----------------------------------*\
| =========                 |                                                 |
| \\      /  F ield         | foam-extend: Open Source CFD                    |
|  \\    /   O peration     | Version:     4.0                                |
|   \\  /    A nd           | Web:         http://www.foam-extend.org         |
|    \\/     M anipulation  |                                                 |
\*---------------------------------------------------------------------------*/
FoamFile
{
    version     2.0;
    format      ascii;
    class       volScalarField;
    location    "1e-07";
    object      electron;
}
// * * * * * * * * * * * * * * * * * * * * * * * * * * * * * * * * * * * * * //

dimensions      [0 0 0 1 0 0 0];

internalField   nonuniform List<scalar> 
300
(
6.16391821723561e+16
6.16433731875038e+16
6.16462814583692e+16
6.16471800629168e+16
6.16471974439228e+16
6.16456147547894e+16
6.16416042181726e+16
6.16345367537908e+16
6.16238766844237e+16
6.16091636552242e+16
6.15900128416597e+16
6.15661153541506e+16
6.15372343380831e+16
6.15031998269945e+16
6.14639028062178e+16
6.14192875276142e+16
6.136934348569e+16
6.13140976804047e+16
6.12536073205065e+16
6.11879532259411e+16
6.11172341530282e+16
6.10415619827557e+16
6.09610576967046e+16
6.08758479616133e+16
6.07860626714235e+16
6.06918332989143e+16
6.05932911989146e+16
6.04905664478317e+16
6.03837872719869e+16
6.0273079134503e+16
6.01585643673677e+16
6.00403627294228e+16
5.99185911929353e+16
5.97933631890358e+16
5.96647885583113e+16
5.95329736723506e+16
5.93980214182188e+16
5.92600312617901e+16
5.9119099221026e+16
5.89753178188664e+16
5.88287762718066e+16
5.8679560666841e+16
5.85277539628751e+16
5.83734361155968e+16
5.82166843331645e+16
5.80575733182498e+16
5.78961755330098e+16
5.77325614776204e+16
5.75667999765355e+16
5.7398958393652e+16
5.72291031170849e+16
5.70573000986862e+16
5.68836149671948e+16
5.67081129478219e+16
5.65308584766532e+16
5.63519147748768e+16
5.61713435232293e+16
5.59892046191235e+16
5.58055560260155e+16
5.56204535801719e+16
5.5433950904104e+16
5.52460993155737e+16
5.50569474053315e+16
5.48665411026294e+16
5.46749247466449e+16
5.44821411339389e+16
5.42882305257769e+16
5.40932305778928e+16
5.38971767576853e+16
5.37001024942745e+16
5.3502039091267e+16
5.33030158874007e+16
5.3103061162095e+16
5.29022023809846e+16
5.2700465528572e+16
5.24978755677002e+16
5.22944574048204e+16
5.20902359419239e+16
5.18852351995335e+16
5.16794781372723e+16
5.14729874307508e+16
5.12657847133637e+16
5.10578897680722e+16
5.08493204793976e+16
5.06400928181672e+16
5.0430221420909e+16
5.02197194031339e+16
5.00085974677585e+16
4.97968638538315e+16
4.95845246521483e+16
4.93715832144743e+16
4.9158040567711e+16
4.89438964573588e+16
4.87291481653276e+16
4.8513789521449e+16
4.82978111210156e+16
4.8081200273457e+16
4.78639407853886e+16
4.7646012704067e+16
4.74273923843677e+16
4.72080525240749e+16
4.69879615373389e+16
4.67670836897361e+16
4.65453797836937e+16
4.63228064238942e+16
4.60993156325664e+16
4.58748549178684e+16
4.56493669562112e+16
4.54227897713673e+16
4.51950563063591e+16
4.49660937218968e+16
4.47358231391134e+16
4.45041594854423e+16
4.42710116607526e+16
4.40362820889948e+16
4.37998660983522e+16
4.35616526179174e+16
4.33215243774035e+16
4.30793566210925e+16
4.28350158987832e+16
4.25883598704717e+16
4.23392371434671e+16
4.20874868292504e+16
4.18329386252775e+16
4.15754115826834e+16
4.13147117626654e+16
4.1050631338459e+16
4.07829481006298e+16
4.05114238202373e+16
4.0235802709743e+16
3.99558104483162e+16
3.96711531013335e+16
3.93815155127869e+16
3.9086559218783e+16
3.87859218526992e+16
3.84792172485448e+16
3.81660329200373e+16
3.78459268776671e+16
3.75184266392373e+16
3.71830282587197e+16
3.68391936055328e+16
3.64863476508804e+16
3.61238763437584e+16
3.57511246524052e+16
3.53673959593639e+16
3.49719514228561e+16
3.45640078239648e+16
3.41427352997815e+16
3.3707254851337e+16
3.32566377758059e+16
3.27899072234863e+16
3.23060254222822e+16
3.18038786266995e+16
3.12823159141616e+16
3.07401619348098e+16
3.01761948840879e+16
2.95891530983919e+16
2.89777412904649e+16
2.83406358006583e+16
2.76764916707818e+16
2.69839538243903e+16
2.62616623148723e+16
2.5508251499484e+16
2.47223265130993e+16
2.39022688613976e+16
2.30458839690593e+16
2.21503677293729e+16
2.12126082547382e+16
2.02292198663997e+16
1.9196579201867e+16
1.8111506683578e+16
1.69720140126926e+16
1.57777948175498e+16
1.45309756649016e+16
1.32370166922391e+16
1.19055465675063e+16
1.05510538984533e+16
9.19320150232517e+15
7.85645951923844e+15
6.56880014367051e+15
5.35955783460829e+15
4.25655751957898e+15
3.28258838600364e+15
2.45257398084467e+15
1.77202147381054e+15
1.23630386468362e+15
831972820199674
539833770604239
337981997044268
204558578501995
120116335440462
68835929023647.1
38849656959458.4
21856092098081.7
12411265253308.9
6952023102240.76
3694992639067.66
1828340187034.74
902284860712.131
484796276183.157
299927924776.842
215695495151.736
175965714378.608
157086029247.809
148601371269.686
145505897427.45
145120975825.518
146331280707.35
148431835169.428
150953983927.696
153588831278.212
156143778938.431
158496398654.246
160569126788.001
162314814158.261
163707278604.979
164734573930.101
165391476885.521
165681204602.993
165648225634.552
165293248313.483
164634318192.513
163692376469.035
162490271907.707
161051351191.28
159398977840.367
157556124160.754
155545092487.953
153387300777.135
151103129256.295
148711820380.58
146231405682.777
143678769499.74
141069606181.493
138417939415.547
135736419942.063
133036950280.876
130330280712.356
127625852069.145
124932037386.167
122256193159.871
119604738135.194
116983224471.211
114396408695.516
111848321892.486
109342336747.205
106881229201.243
104467237121.359
102102115364.374
99787187914.8505
97523396744.8628
95311346173.0348
93151344103.8599
91043439829.9788
88987458793.8566
86983034608.6246
85029638153.7532
83126603804.8591
81273153697.9301
79468419623.165
77711462158.3344
76001287613.5567
74336863209.7493
72717131007.4654
71141020825.8039
69607457942.3523
68115381204.5494
66663692918.1242
65251410718.126
63875738389.8044
62533250380.7839
61222698072.1017
59943897067.2673
58696798683.1812
57481384801.1686
56297622313.7355
55145466945.8089
54024866598.2155
52935734406.4626
51877805378.9116
50849797237.3923
49847019871.0104
48866834259.1885
47911210110.5265
46982446991.0384
46082789540.7829
45214218872.9062
44372453228.781
43554398007.864
42765305166.9092
42011757220.3007
41292759919.1019
40609344313.6669
39973845062.1558
39394147856.6172
38887276567.876
38486025522.3653
38256929420.0434
38233930510.3514
38606581948.5274
)
;

boundaryField
{
    electrode
    {
        type            driftDiffusionElectronDensity;
        seec            0.05;
        Edepend         1;
        field_emission  0;
        field_enhancement_factor 55;
        work_function   5;
        value           uniform 6.16391821723571e+16;
    }
    ground
    {
        type            driftDiffusionElectronDensity;
        seec            0.05;
        Edepend         1;
        field_emission  0;
        field_enhancement_factor 55;
        work_function   5;
        value           uniform 39044511381.5728;
    }
    otherfaces
    {
        type            empty;
    }
}


// ************************************************************************* //
