/*--------------------------------*- C++ -*----------------------------------*\
| =========                 |                                                 |
| \\      /  F ield         | foam-extend: Open Source CFD                    |
|  \\    /   O peration     | Version:     4.0                                |
|   \\  /    A nd           | Web:         http://www.foam-extend.org         |
|    \\/     M anipulation  |                                                 |
\*---------------------------------------------------------------------------*/
FoamFile
{
    version     2.0;
    format      ascii;
    class       volVectorField;
    location    "1e-07";
    object      J_Arp1;
}
// * * * * * * * * * * * * * * * * * * * * * * * * * * * * * * * * * * * * * //

dimensions      [1 -1 -1 0 0 0 0];

internalField   nonuniform List<vector> 
300
(
(-7.75912464758353e+16 -0 -0)
(-7.57025635576129e+16 -0 -0)
(7.5949713309078e+15 -0 -0)
(1.22439568134169e+16 -0 -0)
(2.94739320404666e+16 -0 -0)
(6.71382838583692e+16 -0 -0)
(1.15460304846483e+17 -0 -0)
(1.73263396814607e+17 -0 -0)
(2.39371137013468e+17 -0 -0)
(3.12475732225241e+17 -0 -0)
(3.91270203786491e+17 -0 -0)
(4.74488899858816e+17 -0 -0)
(5.60976759478338e+17 -0 -0)
(6.49648035813333e+17 -0 -0)
(7.39544725842107e+17 -0 -0)
(8.2985005597769e+17 -0 -0)
(9.19881884242521e+17 -0 -0)
(1.0090850342124e+18 -0 -0)
(1.09702397337842e+18 -0 -0)
(1.18336559497026e+18 -0 -0)
(1.26786322083503e+18 -0 -0)
(1.35034300493601e+18 -0 -0)
(1.4306907331375e+18 -0 -0)
(1.5088482475571e+18 -0 -0)
(1.58477992057523e+18 -0 -0)
(1.65847665012691e+18 -0 -0)
(1.72996269680614e+18 -0 -0)
(1.79926556538257e+18 -0 -0)
(1.8664228396382e+18 -0 -0)
(1.93149877667445e+18 -0 -0)
(1.99454260954319e+18 -0 -0)
(2.0555882273892e+18 -0 -0)
(2.11469533907221e+18 -0 -0)
(2.17192953488359e+18 -0 -0)
(2.22734813935457e+18 -0 -0)
(2.281010859843e+18 -0 -0)
(2.33297599774386e+18 -0 -0)
(2.38329988410581e+18 -0 -0)
(2.43204246005905e+18 -0 -0)
(2.47926274115491e+18 -0 -0)
(2.52501207765984e+18 -0 -0)
(2.56934301038285e+18 -0 -0)
(2.6123086507037e+18 -0 -0)
(2.65395697118772e+18 -0 -0)
(2.69433179362974e+18 -0 -0)
(2.73347318421759e+18 -0 -0)
(2.77141607844539e+18 -0 -0)
(2.80819131245019e+18 -0 -0)
(2.84382402289928e+18 -0 -0)
(2.87834094065032e+18 -0 -0)
(2.91174786689246e+18 -0 -0)
(2.94405210476832e+18 -0 -0)
(2.97525675407459e+18 -0 -0)
(3.00537122740894e+18 -0 -0)
(3.03441402438826e+18 -0 -0)
(3.06240830879588e+18 -0 -0)
(3.08938394155693e+18 -0 -0)
(3.1153707956479e+18 -0 -0)
(3.14040337640126e+18 -0 -0)
(3.16451832554005e+18 -0 -0)
(3.18775149470535e+18 -0 -0)
(3.21014073035986e+18 -0 -0)
(3.2317436803593e+18 -0 -0)
(3.25259503480281e+18 -0 -0)
(3.27270182508053e+18 -0 -0)
(3.29210362606405e+18 -0 -0)
(3.31085079734506e+18 -0 -0)
(3.32897996747122e+18 -0 -0)
(3.34652405006847e+18 -0 -0)
(3.36351450524075e+18 -0 -0)
(3.379992346642e+18 -0 -0)
(3.39598464702181e+18 -0 -0)
(3.41149083259805e+18 -0 -0)
(3.42653456746867e+18 -0 -0)
(3.44115004054556e+18 -0 -0)
(3.45533619213353e+18 -0 -0)
(3.46908934901142e+18 -0 -0)
(3.48240697618138e+18 -0 -0)
(3.49532978465809e+18 -0 -0)
(3.50785367512391e+18 -0 -0)
(3.51998002416265e+18 -0 -0)
(3.53174611497298e+18 -0 -0)
(3.54317618473416e+18 -0 -0)
(3.55431038612569e+18 -0 -0)
(3.56517230310875e+18 -0 -0)
(3.57577278766087e+18 -0 -0)
(3.58614757727199e+18 -0 -0)
(3.59634489647173e+18 -0 -0)
(3.60639486032493e+18 -0 -0)
(3.61632950480906e+18 -0 -0)
(3.62621602065916e+18 -0 -0)
(3.63605669492728e+18 -0 -0)
(3.64587360951338e+18 -0 -0)
(3.65573010482162e+18 -0 -0)
(3.6656762835273e+18 -0 -0)
(3.67576262988057e+18 -0 -0)
(3.68603936794739e+18 -0 -0)
(3.69656588042339e+18 -0 -0)
(3.70740273044202e+18 -0 -0)
(3.71860199779087e+18 -0 -0)
(3.73022084075431e+18 -0 -0)
(3.74234443055642e+18 -0 -0)
(3.75501372784983e+18 -0 -0)
(3.76828368496267e+18 -0 -0)
(3.78223564846327e+18 -0 -0)
(3.79692669351598e+18 -0 -0)
(3.81243846962512e+18 -0 -0)
(3.82883850067037e+18 -0 -0)
(3.84619336075735e+18 -0 -0)
(3.86459209115424e+18 -0 -0)
(3.8841225317968e+18 -0 -0)
(3.90488119545257e+18 -0 -0)
(3.92695941766029e+18 -0 -0)
(3.95043872334706e+18 -0 -0)
(3.9754348953797e+18 -0 -0)
(4.00205248169106e+18 -0 -0)
(4.03036483251248e+18 -0 -0)
(4.06047167831013e+18 -0 -0)
(4.09249667742488e+18 -0 -0)
(4.12658095479766e+18 -0 -0)
(4.16284007739114e+18 -0 -0)
(4.20142360900018e+18 -0 -0)
(4.2424586048042e+18 -0 -0)
(4.28607258676847e+18 -0 -0)
(4.33244466645008e+18 -0 -0)
(4.38178538971815e+18 -0 -0)
(4.43428128387385e+18 -0 -0)
(4.49015078397062e+18 -0 -0)
(4.5496390601872e+18 -0 -0)
(4.61300408666936e+18 -0 -0)
(4.68051211455385e+18 -0 -0)
(4.75244373325899e+18 -0 -0)
(4.82911349670905e+18 -0 -0)
(4.91087566581749e+18 -0 -0)
(4.99802744702723e+18 -0 -0)
(5.09089436484025e+18 -0 -0)
(5.18987429638422e+18 -0 -0)
(5.29538205013829e+18 -0 -0)
(5.40780269348022e+18 -0 -0)
(5.52756417094709e+18 -0 -0)
(5.65513426412213e+18 -0 -0)
(5.79099379725168e+18 -0 -0)
(5.93565365198624e+18 -0 -0)
(6.08963204098424e+18 -0 -0)
(6.25339544944255e+18 -0 -0)
(6.42745267116493e+18 -0 -0)
(6.61230400379196e+18 -0 -0)
(6.80847195452103e+18 -0 -0)
(7.01651667738021e+18 -0 -0)
(7.23685201595764e+18 -0 -0)
(7.46986073937815e+18 -0 -0)
(7.71601803943061e+18 -0 -0)
(7.97562187368057e+18 -0 -0)
(8.24890765417489e+18 -0 -0)
(8.536080128056e+18 -0 -0)
(8.83725872588309e+18 -0 -0)
(9.152317782879e+18 -0 -0)
(9.48096750032271e+18 -0 -0)
(9.82285844628136e+18 -0 -0)
(1.01772240384197e+19 -0 -0)
(1.05430555939058e+19 -0 -0)
(1.09194584158526e+19 -0 -0)
(1.13044643828226e+19 -0 -0)
(1.16955039155467e+19 -0 -0)
(1.21024336892358e+19 -0 -0)
(1.2535295180751e+19 -0 -0)
(1.29512895102978e+19 -0 -0)
(1.33790940276893e+19 -0 -0)
(1.38297485928015e+19 -0 -0)
(1.42774591415169e+19 -0 -0)
(1.46886907820402e+19 -0 -0)
(1.511899863547e+19 -0 -0)
(1.55263726729648e+19 -0 -0)
(1.58939373735829e+19 -0 -0)
(1.62887013167902e+19 -0 -0)
(1.65893228500816e+19 -0 -0)
(1.69546684962216e+19 -0 -0)
(1.71805616766086e+19 -0 -0)
(1.74954186018412e+19 -0 -0)
(1.76505067525379e+19 -0 -0)
(1.79020261014667e+19 -0 -0)
(1.79236488793758e+19 -0 -0)
(1.820185721272e+19 -0 -0)
(1.81834898141303e+19 -0 -0)
(1.80682418505754e+19 -0 -0)
(1.82861983958916e+19 -0 -0)
(1.82583738740356e+19 -0 -0)
(1.79205617465684e+19 -0 -0)
(1.77796012881157e+19 -0 -0)
(1.78592185330593e+19 -0 -0)
(1.77517748929297e+19 -0 -0)
(1.73668223774044e+19 -0 -0)
(1.70972032201847e+19 -0 -0)
(1.68654537801249e+19 -0 -0)
(1.66369693288693e+19 -0 -0)
(1.65346305403977e+19 -0 -0)
(1.64252576787239e+19 -0 -0)
(1.60936211931002e+19 -0 -0)
(1.57463207135646e+19 -0 -0)
(1.54236366257428e+19 -0 -0)
(1.5128792388973e+19 -0 -0)
(1.48558336639474e+19 -0 -0)
(1.4578588542227e+19 -0 -0)
(1.43122184884508e+19 -0 -0)
(1.40476556832873e+19 -0 -0)
(1.37457689595225e+19 -0 -0)
(1.34790882255031e+19 -0 -0)
(1.32174213877591e+19 -0 -0)
(1.28957300229309e+19 -0 -0)
(1.25732087658265e+19 -0 -0)
(1.2262818231574e+19 -0 -0)
(1.19720074990806e+19 -0 -0)
(1.16993620532059e+19 -0 -0)
(1.1439634457188e+19 -0 -0)
(1.11886794590513e+19 -0 -0)
(1.09427309027347e+19 -0 -0)
(1.06995914626753e+19 -0 -0)
(1.04587924014266e+19 -0 -0)
(1.0220122271915e+19 -0 -0)
(9.98358639133955e+18 -0 -0)
(9.74981299152982e+18 -0 -0)
(9.51871593458539e+18 -0 -0)
(9.2904098515078e+18 -0 -0)
(9.06574424734977e+18 -0 -0)
(8.84446285070036e+18 -0 -0)
(8.62669282196607e+18 -0 -0)
(8.41290161596671e+18 -0 -0)
(8.20270149265061e+18 -0 -0)
(7.99752080664158e+18 -0 -0)
(7.79479566633107e+18 -0 -0)
(7.59725455344943e+18 -0 -0)
(7.40540383885668e+18 -0 -0)
(7.2170396604869e+18 -0 -0)
(7.03342220153635e+18 -0 -0)
(6.85562684553751e+18 -0 -0)
(6.68256182386311e+18 -0 -0)
(6.51393520027765e+18 -0 -0)
(6.34983481775427e+18 -0 -0)
(6.19005111961137e+18 -0 -0)
(6.03549121911517e+18 -0 -0)
(5.88604060697317e+18 -0 -0)
(5.74122090933244e+18 -0 -0)
(5.60112533327655e+18 -0 -0)
(5.46511453690993e+18 -0 -0)
(5.33276028889048e+18 -0 -0)
(5.20417683033987e+18 -0 -0)
(5.07908396098857e+18 -0 -0)
(4.95740428376187e+18 -0 -0)
(4.83919329861543e+18 -0 -0)
(4.72389324934484e+18 -0 -0)
(4.61202105175601e+18 -0 -0)
(4.50301061091585e+18 -0 -0)
(4.39727824091843e+18 -0 -0)
(4.29448783642251e+18 -0 -0)
(4.19489632420839e+18 -0 -0)
(4.09824702451819e+18 -0 -0)
(4.00461668860459e+18 -0 -0)
(3.91400722549191e+18 -0 -0)
(3.82609673977135e+18 -0 -0)
(3.74106618849265e+18 -0 -0)
(3.65867613372587e+18 -0 -0)
(3.57923626706866e+18 -0 -0)
(3.50219142051089e+18 -0 -0)
(3.427799289675e+18 -0 -0)
(3.35556603497545e+18 -0 -0)
(3.28578164824442e+18 -0 -0)
(3.21819694294842e+18 -0 -0)
(3.15297375977723e+18 -0 -0)
(3.09011240414248e+18 -0 -0)
(3.02935593101608e+18 -0 -0)
(2.97090856415914e+18 -0 -0)
(2.91465527430774e+18 -0 -0)
(2.86067095682202e+18 -0 -0)
(2.80868919279182e+18 -0 -0)
(2.75858587345586e+18 -0 -0)
(2.71034176060849e+18 -0 -0)
(2.66380913257793e+18 -0 -0)
(2.61891865371005e+18 -0 -0)
(2.5760338279126e+18 -0 -0)
(2.53496637667944e+18 -0 -0)
(2.49566666336434e+18 -0 -0)
(2.45826696869407e+18 -0 -0)
(2.42233018947664e+18 -0 -0)
(2.38754294055695e+18 -0 -0)
(2.354530351314e+18 -0 -0)
(2.3232028495019e+18 -0 -0)
(2.29327793193784e+18 -0 -0)
(2.26475666289428e+18 -0 -0)
(2.23770698955732e+18 -0 -0)
(2.21186668687433e+18 -0 -0)
(2.18782862414386e+18 -0 -0)
(2.16405611923273e+18 -0 -0)
(2.14367809894638e+18 -0 -0)
(2.1207998173408e+18 -0 -0)
(2.10496147521917e+18 -0 -0)
(2.08257737208379e+18 -0 -0)
(2.07045809851335e+18 -0 -0)
(2.04979741785918e+18 -0 -0)
(2.04070954734689e+18 -0 -0)
(2.01805992533056e+18 -0 -0)
)
;

boundaryField
{
    electrode
    {
        type            calculated;
        value           uniform (-352664509961.395 -0 -0);
    }
    ground
    {
        type            calculated;
        value           uniform (2.01864313714484e+18 -0 -0);
    }
    otherfaces
    {
        type            empty;
    }
}


// ************************************************************************* //
