/*--------------------------------*- C++ -*----------------------------------*\
| =========                 |                                                 |
| \\      /  F ield         | foam-extend: Open Source CFD                    |
|  \\    /   O peration     | Version:     4.0                                |
|   \\  /    A nd           | Web:         http://www.foam-extend.org         |
|    \\/     M anipulation  |                                                 |
\*---------------------------------------------------------------------------*/
FoamFile
{
    version     2.0;
    format      ascii;
    class       volVectorField;
    location    "1e-07";
    object      J_electron;
}
// * * * * * * * * * * * * * * * * * * * * * * * * * * * * * * * * * * * * * //

dimensions      [1 -1 -1 0 0 0 0];

internalField   nonuniform List<vector> 
300
(
(7.16707163653304e+18 0 0)
(1.13285153472514e+18 0 0)
(-1.48575952245783e+19 0 0)
(-7.43936303211074e+18 0 0)
(-6.24218825647111e+18 0 0)
(-6.87218937373192e+18 0 0)
(-7.08056606665577e+18 0 0)
(-7.2006783064178e+18 0 0)
(-7.30610527974087e+18 0 0)
(-7.41088916790929e+18 0 0)
(-7.50478837688333e+18 0 0)
(-7.58090757224713e+18 0 0)
(-7.64302129765967e+18 0 0)
(-7.68613169562308e+18 0 0)
(-7.70929204814211e+18 0 0)
(-7.71375044536697e+18 0 0)
(-7.70115847563064e+18 0 0)
(-7.67318597448886e+18 0 0)
(-7.63241400372049e+18 0 0)
(-7.58131174876368e+18 0 0)
(-7.52197933856968e+18 0 0)
(-7.45636504621181e+18 0 0)
(-7.38559938283307e+18 0 0)
(-7.31313796459607e+18 0 0)
(-7.23934878656666e+18 0 0)
(-7.16364380827458e+18 0 0)
(-7.0890540049468e+18 0 0)
(-7.0152096998553e+18 0 0)
(-6.94079963789145e+18 0 0)
(-6.86954795656256e+18 0 0)
(-6.80191855883531e+18 0 0)
(-6.73376078707176e+18 0 0)
(-6.66658795825136e+18 0 0)
(-6.60203330760632e+18 0 0)
(-6.53913401847448e+18 0 0)
(-6.4780901272786e+18 0 0)
(-6.41894401228485e+18 0 0)
(-6.36111339534995e+18 0 0)
(-6.30496281734493e+18 0 0)
(-6.25110325001008e+18 0 0)
(-6.19875796538596e+18 0 0)
(-6.14777743326708e+18 0 0)
(-6.09877712661643e+18 0 0)
(-6.05165062995496e+18 0 0)
(-6.00634956120693e+18 0 0)
(-5.96294608933539e+18 0 0)
(-5.92135843160339e+18 0 0)
(-5.88164148991623e+18 0 0)
(-5.84335818674851e+18 0 0)
(-5.80815639514133e+18 0 0)
(-5.77462377764042e+18 0 0)
(-5.74217488178532e+18 0 0)
(-5.71048023844323e+18 0 0)
(-5.67842984176255e+18 0 0)
(-5.64690984609251e+18 0 0)
(-5.61545673589968e+18 0 0)
(-5.58486140535675e+18 0 0)
(-5.55470117731618e+18 0 0)
(-5.52513028510502e+18 0 0)
(-5.49641607282714e+18 0 0)
(-5.46819354496126e+18 0 0)
(-5.43920238958268e+18 0 0)
(-5.41287855611786e+18 0 0)
(-5.39040431266647e+18 0 0)
(-5.36578582228999e+18 0 0)
(-5.34008641443987e+18 0 0)
(-5.31644896157657e+18 0 0)
(-5.29393260540749e+18 0 0)
(-5.27216361863407e+18 0 0)
(-5.250341419696e+18 0 0)
(-5.23035150795014e+18 0 0)
(-5.21373398027207e+18 0 0)
(-5.19585292599086e+18 0 0)
(-5.17703996134706e+18 0 0)
(-5.1621711787317e+18 0 0)
(-5.14873248774095e+18 0 0)
(-5.13497550085449e+18 0 0)
(-5.11829787134683e+18 0 0)
(-5.10450825190834e+18 0 0)
(-5.09225550051043e+18 0 0)
(-5.07571210732385e+18 0 0)
(-5.0603954929318e+18 0 0)
(-5.04429155613147e+18 0 0)
(-5.02950165834131e+18 0 0)
(-5.01665340449803e+18 0 0)
(-5.00150233363408e+18 0 0)
(-4.98491927916551e+18 0 0)
(-4.96987428987811e+18 0 0)
(-4.95504979600448e+18 0 0)
(-4.93745393907663e+18 0 0)
(-4.92467523944946e+18 0 0)
(-4.91204094555849e+18 0 0)
(-4.89375351109557e+18 0 0)
(-4.87638564205704e+18 0 0)
(-4.85892387041391e+18 0 0)
(-4.8410457988441e+18 0 0)
(-4.82212140683205e+18 0 0)
(-4.80244850378015e+18 0 0)
(-4.78315582705238e+18 0 0)
(-4.76287202912685e+18 0 0)
(-4.73974952321614e+18 0 0)
(-4.71905668758241e+18 0 0)
(-4.6980068119882e+18 0 0)
(-4.6726087087759e+18 0 0)
(-4.64832219524628e+18 0 0)
(-4.62168673170542e+18 0 0)
(-4.59419065229325e+18 0 0)
(-4.56652394191389e+18 0 0)
(-4.53499880534416e+18 0 0)
(-4.50182263425047e+18 0 0)
(-4.46668616271318e+18 0 0)
(-4.43018536026872e+18 0 0)
(-4.39303284361108e+18 0 0)
(-4.35143787804387e+18 0 0)
(-4.30814502477051e+18 0 0)
(-4.26638198154618e+18 0 0)
(-4.22040876133384e+18 0 0)
(-4.1687298590916e+18 0 0)
(-4.11291055522631e+18 0 0)
(-4.05585825324755e+18 0 0)
(-3.99454250081504e+18 0 0)
(-3.930352009475e+18 0 0)
(-3.86404986185214e+18 0 0)
(-3.78835310526176e+18 0 0)
(-3.70484743819913e+18 0 0)
(-3.61826785385198e+18 0 0)
(-3.52531354944851e+18 0 0)
(-3.42335287833605e+18 0 0)
(-3.31484708852099e+18 0 0)
(-3.19935185424063e+18 0 0)
(-3.07611666626694e+18 0 0)
(-2.94264736207654e+18 0 0)
(-2.79832475004148e+18 0 0)
(-2.64989578920618e+18 0 0)
(-2.49305375223474e+18 0 0)
(-2.31872276543255e+18 0 0)
(-2.13163313895886e+18 0 0)
(-1.93619345574304e+18 0 0)
(-1.72684262817084e+18 0 0)
(-1.49943176520951e+18 0 0)
(-1.25651381316852e+18 0 0)
(-9.96613129549906e+17 0 0)
(-7.20114573945864e+17 0 0)
(-4.3105191976344e+17 0 0)
(-1.2319575115196e+17 0 0)
(2.06717293620625e+17 0 0)
(5.58533567485313e+17 0 0)
(9.36237511728955e+17 0 0)
(1.32973070765051e+18 0 0)
(1.74171926181446e+18 0 0)
(2.24151852720429e+18 0 0)
(2.75514422641925e+18 0 0)
(3.12939993525073e+18 0 0)
(3.65799339399001e+18 0 0)
(4.20472309408596e+18 0 0)
(4.77566221405913e+18 0 0)
(5.37263971490175e+18 0 0)
(6.00628463650053e+18 0 0)
(6.666853716513e+18 0 0)
(7.35524734733124e+18 0 0)
(8.11158547736402e+18 0 0)
(8.94224210047428e+18 0 0)
(9.97143206893191e+18 0 0)
(1.19291669282585e+19 0 0)
(1.49436942151991e+19 0 0)
(1.75060146926964e+19 0 0)
(1.95877764529673e+19 0 0)
(2.25823114300353e+19 0 0)
(2.53307301127143e+19 0 0)
(2.61042255652937e+19 0 0)
(2.63659045280515e+19 0 0)
(2.60925513576187e+19 0 0)
(2.42897650272573e+19 0 0)
(2.12981408915385e+19 0 0)
(1.70760326422137e+19 0 0)
(1.20893371419774e+19 0 0)
(7.09823606694085e+18 0 0)
(3.60595866466753e+18 0 0)
(3.27431063213389e+18 0 0)
(6.92026258913598e+18 0 0)
(1.55202768703807e+19 0 0)
(2.99130795779089e+19 0 0)
(4.59925751851584e+19 0 0)
(6.16440738339965e+19 0 0)
(7.59054648190268e+19 0 0)
(8.32241954662347e+19 0 0)
(8.24081896812881e+19 0 0)
(7.57956088718615e+19 0 0)
(6.43763463445191e+19 0 0)
(5.00430828941393e+19 0 0)
(3.61315487399279e+19 0 0)
(2.38288973007496e+19 0 0)
(1.4542699599418e+19 0 0)
(8.04842070437939e+18 0 0)
(4.83187402270575e+18 0 0)
(1.38094025517353e+18 0 0)
(6.25874990181636e+17 0 0)
(-1.1593013909335e+15 0 0)
(-1.82449752874294e+17 0 0)
(-3.01133005870603e+17 0 0)
(-3.85587117398456e+17 0 0)
(-4.36946312791215e+17 0 0)
(-4.63035590635059e+17 0 0)
(-4.74093626992812e+17 0 0)
(-4.76079000073471e+17 0 0)
(-4.73143358308026e+17 0 0)
(-4.67384497087974e+17 0 0)
(-4.6226026001855e+17 0 0)
(-4.56655412047146e+17 0 0)
(-4.50888012914018e+17 0 0)
(-4.44753403719422e+17 0 0)
(-4.38355532890354e+17 0 0)
(-4.31764711359752e+17 0 0)
(-4.25017267377502e+17 0 0)
(-4.18143666474539e+17 0 0)
(-4.1116633337321e+17 0 0)
(-4.04084056708482e+17 0 0)
(-3.9684382813764e+17 0 0)
(-3.8973085968492e+17 0 0)
(-3.82732135687096e+17 0 0)
(-3.75583920771488e+17 0 0)
(-3.68457482502201e+17 0 0)
(-3.61351105736326e+17 0 0)
(-3.54287046310231e+17 0 0)
(-3.47276112674457e+17 0 0)
(-3.40329322501393e+17 0 0)
(-3.33456018899459e+17 0 0)
(-3.26664478784256e+17 0 0)
(-3.19962032714399e+17 0 0)
(-3.13354983716127e+17 0 0)
(-3.06848579478363e+17 0 0)
(-3.00448618330541e+17 0 0)
(-2.94156175775424e+17 0 0)
(-2.87971822944549e+17 0 0)
(-2.81908413315457e+17 0 0)
(-2.75960835482584e+17 0 0)
(-2.70125757458413e+17 0 0)
(-2.64410722003641e+17 0 0)
(-2.58813417851311e+17 0 0)
(-2.53334027267534e+17 0 0)
(-2.47971896322252e+17 0 0)
(-2.42726177136336e+17 0 0)
(-2.37595735161267e+17 0 0)
(-2.3257922719545e+17 0 0)
(-2.27675076152989e+17 0 0)
(-2.22881557173731e+17 0 0)
(-2.18196820768896e+17 0 0)
(-2.1361889127658e+17 0 0)
(-2.09145727912907e+17 0 0)
(-2.04775195146663e+17 0 0)
(-2.00505119288148e+17 0 0)
(-1.96333294723766e+17 0 0)
(-1.92257488106942e+17 0 0)
(-1.882754676293e+17 0 0)
(-1.84384995513641e+17 0 0)
(-1.80583848545002e+17 0 0)
(-1.76869818756952e+17 0 0)
(-1.73240736432573e+17 0 0)
(-1.69694443338904e+17 0 0)
(-1.66228830356881e+17 0 0)
(-1.62841819479262e+17 0 0)
(-1.59531383467668e+17 0 0)
(-1.56295533506798e+17 0 0)
(-1.53132333061218e+17 0 0)
(-1.50039841462004e+17 0 0)
(-1.4701636507336e+17 0 0)
(-1.44059295566251e+17 0 0)
(-1.41169735617282e+17 0 0)
(-1.38327900352677e+17 0 0)
(-1.35579359611516e+17 0 0)
(-1.32891439523471e+17 0 0)
(-1.30256760104586e+17 0 0)
(-1.27681640778165e+17 0 0)
(-1.25164820115145e+17 0 0)
(-1.2270539300428e+17 0 0)
(-1.20302005966325e+17 0 0)
(-1.17953301712936e+17 0 0)
(-1.15657683403047e+17 0 0)
(-1.13413092405162e+17 0 0)
(-1.11213267648097e+17 0 0)
(-1.09049560862536e+17 0 0)
(-1.06994783546395e+17 0 0)
(-1.0495631724207e+17 0 0)
(-1.02970056732636e+17 0 0)
(-1.01029547715592e+17 0 0)
(-9.91403147212177e+16 0 0)
(-9.72543992734759e+16 0 0)
(-9.55110416731936e+16 0 0)
(-9.37733647868958e+16 0 0)
(-9.20863548384529e+16 0 0)
(-9.03972657479231e+16 0 0)
(-8.88700279625904e+16 0 0)
(-8.73395136901928e+16 0 0)
(-8.58407715792016e+16 0 0)
(-8.44961434796272e+16 0 0)
(-8.31547363832855e+16 0 0)
(-8.20126717983602e+16 0 0)
(-8.09420334021209e+16 0 0)
(-7.99369241442357e+16 0 0)
(-7.85028123130763e+16 0 0)
)
;

boundaryField
{
    electrode
    {
        type            calculated;
        value           uniform (-8.52107946019179e+18 0 0);
    }
    ground
    {
        type            calculated;
        value           uniform (-7.83386185172177e+16 0 0);
    }
    otherfaces
    {
        type            empty;
    }
}


// ************************************************************************* //
