/*--------------------------------*- C++ -*----------------------------------*\
| =========                 |                                                 |
| \\      /  F ield         | foam-extend: Open Source CFD                    |
|  \\    /   O peration     | Version:     4.0                                |
|   \\  /    A nd           | Web:         http://www.foam-extend.org         |
|    \\/     M anipulation  |                                                 |
\*---------------------------------------------------------------------------*/
FoamFile
{
    version     2.0;
    format      ascii;
    class       volScalarField;
    location    "1e-07";
    object      N_electronMean;
}
// * * * * * * * * * * * * * * * * * * * * * * * * * * * * * * * * * * * * * //

dimensions      [0 0 0 1 0 0 0];

internalField   nonuniform List<scalar> 
300
(
5.77919924319709e+16
5.78144090251454e+16
5.78427338192592e+16
5.78679733977695e+16
5.78892256135368e+16
5.79057308827721e+16
5.79168562984969e+16
5.79221985234291e+16
5.79215153997082e+16
5.79146846522802e+16
5.79016737530408e+16
5.78825206299873e+16
5.78573140385293e+16
5.78261778206083e+16
5.77892593750323e+16
5.77467205054089e+16
5.7698730576199e+16
5.76454615755232e+16
5.75870843880795e+16
5.75237661260195e+16
5.7455668528324e+16
5.73829470560165e+16
5.7305750427288e+16
5.72242204972538e+16
5.71384931659675e+16
5.70486997242858e+16
5.69549669751502e+16
5.68574172601844e+16
5.67561688434432e+16
5.6651335772543e+16
5.65430290928195e+16
5.64313593312114e+16
5.63164364165073e+16
5.61983675689295e+16
5.60772563086242e+16
5.59532023674644e+16
5.58263017822742e+16
5.56966470864629e+16
5.55643272104688e+16
5.54294273369949e+16
5.52920291605693e+16
5.51522110096998e+16
5.50100474559535e+16
5.48656090442592e+16
5.47189623317288e+16
5.45701699908382e+16
5.44192910265525e+16
5.42663812285197e+16
5.41114940761265e+16
5.39546822780204e+16
5.37960003505749e+16
5.36355071228639e+16
5.3473266517103e+16
5.33093465662294e+16
5.31438170091029e+16
5.29767467023505e+16
5.28082016959705e+16
5.26382442440308e+16
5.24669325321218e+16
5.229432054174e+16
5.21204580837916e+16
5.19453908450217e+16
5.17691605077264e+16
5.1591806668674e+16
5.14133700685837e+16
5.12338923227614e+16
5.10534125821037e+16
5.08719658055097e+16
5.06895826710854e+16
5.05062896402705e+16
5.03221090780996e+16
5.01370603876234e+16
4.99511623561481e+16
4.97644337572136e+16
4.95768924634502e+16
4.9388557107698e+16
4.91994496706889e+16
4.9009595493269e+16
4.88190210535743e+16
4.86277531253341e+16
4.8435819324475e+16
4.824324567977e+16
4.80500542764763e+16
4.78562632259498e+16
4.76618879154311e+16
4.74669430231295e+16
4.7271442093989e+16
4.70753954020705e+16
4.68788095630048e+16
4.66816884325511e+16
4.64840335429285e+16
4.62858465712404e+16
4.60871314775167e+16
4.58878913383263e+16
4.56881252031143e+16
4.54878277038381e+16
4.52869890334662e+16
4.50855949347511e+16
4.48836267257996e+16
4.46810618025283e+16
4.44778738193941e+16
4.42740320624542e+16
4.40695025044769e+16
4.38642493956316e+16
4.36582340179486e+16
4.3451413833312e+16
4.32437426247145e+16
4.30351703332967e+16
4.28256433243305e+16
4.26151031382183e+16
4.24034847097993e+16
4.21907157001761e+16
4.1976716680421e+16
4.17614019836555e+16
4.15446796438453e+16
4.13264517168371e+16
4.1106616670116e+16
4.08850697687085e+16
4.06616999942801e+16
4.04363873979493e+16
4.02090035008894e+16
3.99794129206172e+16
3.97474747960406e+16
3.95130438623847e+16
3.92759678184791e+16
3.90360827227205e+16
3.87932114545405e+16
3.85471633218563e+16
3.82977319059139e+16
3.80446932642632e+16
3.77878053000305e+16
3.75268068783302e+16
3.72614160648152e+16
3.69913286656788e+16
3.671622005672e+16
3.6435746992008e+16
3.61495436930632e+16
3.5857217065631e+16
3.55583460107511e+16
3.52524802927512e+16
3.49391358462002e+16
3.46177901165857e+16
3.42878792980853e+16
3.39487971629497e+16
3.3599895887869e+16
3.32404847165691e+16
3.28698238255632e+16
3.24871166254878e+16
3.20915024097685e+16
3.1682053384934e+16
3.12577737874549e+16
3.08175942671722e+16
3.03603672066421e+16
2.9884862906978e+16
2.93897620645737e+16
2.88736508822343e+16
2.83350194124913e+16
2.77722578128628e+16
2.71836482736189e+16
2.65673572324859e+16
2.59214256946662e+16
2.52437432585981e+16
2.45320086289793e+16
2.37836642890132e+16
2.29957701213131e+16
2.21649297597089e+16
2.12874384051681e+16
2.03595121765016e+16
1.93774897836128e+16
1.83382591426232e+16
1.72398981914046e+16
1.60823041189658e+16
1.48678984057747e+16
1.36024294095178e+16
1.22957192778267e+16
1.0962214283955e+16
9.62116123658022e+15
8.296199460929e+15
7.01416498432476e+15
5.80311850349787e+15
4.68976875906805e+15
3.69653720089539e+15
2.8389392291319e+15
2.12391665287154e+15
1.54929095931855e+15
1.10463909339224e+15
773499409732911
536086475040589
371935163444954
262121433084653
190669554291394
145079045936313
116192338477795
97714384726063.8
85295590349780.1
76600197074681.3
70269141823855.6
65491933271386
61769799561362.3
58691879757336.2
56004536068213.1
53572199906790.8
51325160320897.6
49225345655856.9
47249582009997.3
45382074002986.3
43611240669805.8
41928255601504.3
40325707769261.6
38797338510999.3
37337767240588
35942243359469.2
34606560110380.2
33326983987048.8
32100145215379.3
30922971706993.6
29792676705734.3
28706730658880.2
27662801958880.6
26658748072411.9
25692589294255
24762483762346.8
23866723346788.1
23003741868849.5
22172062585033.8
21370305999020.9
20597191024838.1
19851500633395.5
19132102976988.8
18437926432651.4
17767944784689.8
17121213342388.1
16496814697594.1
15893880166372.6
15311603019925
14749207933315.2
14205944185081.7
13681121867886.6
13174061779882.6
12684115808938
12210685430455.4
11753184547767
11311077211317.9
10883844391576.1
10470986608724.5
10072037798779.6
9686538311679.67
9314051509097.44
8954145680747.78
8606409038682.67
8270447518523.8
7945869932862.84
7632302131725.26
7329373488814.09
7036736053353.79
6754068972156.69
6481060887992.53
6217416573449.7
5962859025079.5
5717112952251.49
5479919455700.67
5251014452419.8
5030142603579.98
4817041881964.94
4611458456537.25
4413159957302.69
4221924662608.34
4037547489798.77
3859825274755.37
3688570040104.16
3523588697105.51
3364689348958.24
3211678873875.56
3064382568569.54
2922630908946.59
2786261959580.24
2655116348542.41
2529029988378.6
2407848261413.65
2291426881229.82
2179623975087.03
2072282069047.79
1969260998781.21
1870441320782.25
1775688319840.43
1684872558080.33
1597882521978.51
1514597606337.16
1434905991461.04
1358707139157.35
1285886752373.95
1216327860621.3
1149937150741.6
1086627184696.83
1026331461284.85
968986043691.12
914525389760.239
862682497227.859
814144221462.928
768043979633.421
)
;

boundaryField
{
    electrode
    {
        type            calculated;
        value           uniform 5.77919924437479e+16;
    }
    ground
    {
        type            calculated;
        value           uniform 746700535313.803;
    }
    otherfaces
    {
        type            empty;
    }
}


// ************************************************************************* //
