/*--------------------------------*- C++ -*----------------------------------*\
| =========                 |                                                 |
| \\      /  F ield         | foam-extend: Open Source CFD                    |
|  \\    /   O peration     | Version:     4.0                                |
|   \\  /    A nd           | Web:         http://www.foam-extend.org         |
|    \\/     M anipulation  |                                                 |
\*---------------------------------------------------------------------------*/
FoamFile
{
    version     2.0;
    format      ascii;
    class       volScalarField;
    location    "1e-07";
    object      Phi;
}
// * * * * * * * * * * * * * * * * * * * * * * * * * * * * * * * * * * * * * //

dimensions      [0 0 0 1 0 0 0];

internalField   nonuniform List<scalar> 
300
(
699.999958776843
700.000668118016
700.000724305901
700.000658499246
700.000576974375
700.000334227922
699.999855798896
699.999089097376
699.997986666236
699.99650712039
699.99461565483
699.992284531906
699.989492222233
699.986223151262
699.982467135085
699.978218639107
699.973476034301
699.96824091974
699.962517463418
699.956311809785
699.949631593395
699.942485517758
699.934883014137
699.926833947034
699.918348349321
699.909436418038
699.900108257853
699.890373807911
699.880242857389
699.869724925864
699.858829147405
699.847564506512
699.835939766974
699.823963315394
699.811643229982
699.798987293512
699.786002972766
699.772697448409
699.75907760551
699.745150011063
699.730920945145
699.716396441832
699.701582249396
699.686483858945
699.671106528757
699.655455307698
699.639535056239
699.623350480282
699.606906150412
699.590206534843
699.573255988358
699.55605894326
699.538619773513
699.520942929401
699.50303277394
699.484893618848
699.46652964174
699.447944887239
699.429143254805
699.410128462793
699.3909040508
699.371473380746
699.351839587895
699.33200545521
699.311973732198
699.291747130663
699.271328031249
699.250718580483
699.229920740299
699.208936296427
699.187766847331
699.166413732886
699.144878239864
699.123161690809
699.101265154369
699.079189571593
699.056935991802
699.034505464107
699.011899038203
698.989117411973
698.966161563906
698.943032250746
698.919730022441
698.89625527879
698.872608108974
698.848788560428
698.824796554551
698.80063168692
698.776293236731
698.751780322717
698.727091729012
698.702225756502
698.677180898757
698.651955183019
698.626546186935
698.600951111473
698.575166733198
698.549189406371
698.523014949519
698.496638694076
698.470055514311
698.44325969621
698.416244776208
698.389004031004
698.361529993262
698.333814487751
698.305848769035
698.277623195623
698.249127529241
698.220350701789
698.191280691892
698.161904538638
698.132208207003
698.102176687175
698.071793934838
698.041042509495
698.009903871916
697.978358447091
697.946385225468
697.913961607669
697.881063250022
697.847664264631
697.813736692658
697.779250907655
697.744175200138
697.708475250775
697.672113919396
697.635051373154
697.597244445115
697.558646402342
697.519206638521
697.47887042332
697.437578486288
697.395266394933
697.351864080809
697.307296169607
697.261480916264
697.214329233382
697.165744276982
697.115621128353
697.063845543792
697.010292985268
696.954827669968
696.897301301883
696.837552086844
696.77540393903
696.71066445884
696.643123457054
696.572550647128
696.498693311209
696.421275397163
696.339994799254
696.254517683238
696.164478332335
696.069474341844
695.969060151567
695.862743395266
695.749979439686
695.630164171103
695.502624660911
695.366611375861
695.221285707282
695.065702025865
694.898796277422
694.71933836889
694.525741530658
694.315946740544
694.087527941012
693.837551681755
693.562285010169
693.257256661232
692.917364106942
692.536520892708
692.107682554045
691.622761243285
691.072600130512
690.447027325628
689.734992386371
688.924876192829
688.004745952813
686.962763491226
685.78803076487
684.470968667257
683.002639047122
681.377511900249
679.592784743223
677.644891326404
675.533359810637
673.262115252374
670.834793065908
668.25319987473
665.520774648095
662.643559315265
659.627172195101
656.476510581311
653.195926581426
649.788546872658
646.257224236364
642.606202991937
638.840214265932
634.963485751133
630.979778720359
626.892472282507
622.704778367497
618.41966223011
614.039928243804
609.568496525411
605.007932493012
600.360666897172
595.629533083524
590.817454994423
585.927174666005
580.961219230215
575.921922767906
570.811469726185
565.631928945608
560.385283469378
555.073449299535
549.698282744609
544.261585741044
538.76510931042
533.210553138563
527.599569069409
521.93376314121
516.214693083702
510.443872152534
504.622770482815
498.752814306662
492.835389978413
486.871837371286
480.863466159039
474.811541484477
468.717303784857
462.581994882295
456.40681354374
450.192910839389
443.941397585607
437.653347095148
431.329795697901
424.971744846884
418.58015694483
412.155956840469
405.700035252805
399.213248959932
392.696424968166
386.1503634301
379.575837535158
372.973595525078
366.344361555126
359.688835805012
353.00769788425
346.301604375914
339.571192230328
332.817076817244
326.039854027044
319.240099154835
312.418368533413
305.575199354299
298.711109880848
291.826601373056
284.922157310283
277.998244845516
271.055313326369
264.093797403513
257.114115805156
250.116674088077
243.101863223227
236.070061030679
229.021631433413
221.956924562216
214.8762782065
207.780016830806
200.668452267322
193.54188340628
186.400597671986
179.24487174178
172.074971711304
164.891153927496
157.693665404219
150.482741979261
143.258609353112
136.021483395223
128.771569505184
121.509064933163
114.234160440515
106.947037087784
99.6478667428941
92.3368135800523
85.0140341048093
77.6796768340393
70.3338836789919
62.9767869124777
55.6085171243928
48.2291871085302
40.8389222770949
33.4378115157233
26.0259771946272
18.6034886358159
11.1704588808342
3.72694126850863
)
;

boundaryField
{
    electrode
    {
        type            fixedValue;
        value           uniform 700;
    }
    ground
    {
        type            fixedValue;
        value           uniform 0;
    }
    otherfaces
    {
        type            empty;
    }
}


// ************************************************************************* //
