/*--------------------------------*- C++ -*----------------------------------*\
| =========                 |                                                 |
| \\      /  F ield         | foam-extend: Open Source CFD                    |
|  \\    /   O peration     | Version:     4.0                                |
|   \\  /    A nd           | Web:         http://www.foam-extend.org         |
|    \\/     M anipulation  |                                                 |
\*---------------------------------------------------------------------------*/
FoamFile
{
    version     2.0;
    format      ascii;
    class       volScalarField;
    location    "1e-07";
    object      PhiMean;
}
// * * * * * * * * * * * * * * * * * * * * * * * * * * * * * * * * * * * * * //

dimensions      [0 0 0 1 0 0 0];

internalField   nonuniform List<scalar> 
300
(
699.267538030459
699.205257741556
699.142624661995
699.079335494164
699.01552684994
698.951118687596
698.886063280196
698.820336283059
698.753926395294
698.686831521193
698.619056071294
698.550610007253
698.481506663972
698.411761598861
698.34139168329
698.270414372849
698.198847179719
698.126707370038
698.054011680607
697.980776113101
697.907015867399
697.832745306079
697.757977948297
697.682726469775
697.607002764434
697.530818400115
697.454184405146
697.377111301031
697.299609238334
697.221687839985
697.143356237857
697.064623793089
696.98549996702
696.905993818604
696.826113978051
696.74586866233
696.665265674443
696.584312486156
696.503016200957
696.421383490796
696.339420662769
696.257133714802
696.174528207008
696.091609245788
696.008381486465
695.924849133338
695.841015942108
695.756885269058
695.672460135946
695.587743459771
695.502738319547
695.417448566576
695.331878690676
695.246033938687
695.159919747412
695.073541515051
694.986904235488
694.90001243842
694.812870186869
694.725481043314
694.637848098469
694.54997395931
694.461860693249
694.373509949857
694.28492389657
694.196105132746
694.10705577209
694.017777357044
693.928270890742
693.838536838331
693.748575096608
693.65838503171
693.567966044725
693.477317701791
693.386439163421
693.295329630782
693.203988981322
693.112417566147
693.020615976224
692.928584412201
692.83632379528
692.743834602157
692.651116653526
692.558169210113
692.464990975226
692.371580830828
692.27793760823
692.184059507126
692.089944067181
691.995588535976
691.900989700754
691.80614409843
691.71104943175
691.615702969032
691.520101238836
691.424240078106
691.32811460205
691.231719258511
691.135047698589
691.038092974685
690.940847601448
690.843303271152
690.745450818671
690.647281243612
690.548784737194
690.44995072553
690.350768111804
690.251224803036
690.151308300327
690.051005150927
689.95030056779
689.849178397214
689.747620994042
689.645609528101
689.543123900235
689.440142380002
689.336642517772
689.232601357824
689.127994371703
689.022794932955
688.916974276724
688.810502261076
688.703346934694
688.595475542397
688.4868535839
688.377443626566
688.267205049144
688.156094474839
688.044064687219
687.931064408732
687.817038037545
687.701925479336
687.585661533342
687.468175143274
687.349389567285
687.229223555673
687.107589435111
686.984391570879
686.85952629238
686.732881774712
686.604336031672
686.473755489034
686.340993803388
686.205890751672
686.068271869502
685.927947747148
685.784710698833
685.638332192321
685.488559005131
685.335110410397
685.177677125222
685.015915847395
684.849444768698
684.677840176011
684.500627667976
684.317275862784
684.127188797958
683.929696549864
683.724041888908
683.509364268281
683.284683729962
683.048873191476
682.80062173729
682.53839269447
682.260339114224
681.964184809891
681.647185428002
681.306102366373
680.937051088954
680.535420471462
680.09588847631
679.612306335283
679.077626695632
678.483896920555
677.822254274479
677.083011260753
676.255782049461
675.329759353073
674.294008778118
673.137830195094
671.851301243586
670.425706482149
668.853678586694
667.129929677693
665.251339701378
663.216212188024
661.024748655485
658.679379036253
656.183415128621
653.540241591858
650.754060516341
647.830030561286
644.773346511407
641.588772770409
638.280647939635
634.853037117189
631.309846549199
627.655166108918
623.893182209197
620.027779503464
616.062549100364
612.00084750257
607.845844621664
603.600565542977
599.26787889462
594.850564720055
590.351279621309
585.772580043163
581.117091701044
576.387415547507
571.586001289974
566.715143266134
561.777006651188
556.773651504913
551.707051365353
546.579105930047
541.391647895952
536.1464486786
530.845221380066
525.489622847017
520.081256363927
514.621673032666
509.112374092222
503.554812274006
497.950393382808
492.300478044353
486.606383194548
480.869383473349
475.090712243478
469.27156302257
463.413092000127
457.516415130559
451.582618731064
445.612772393082
439.607912761959
433.569039828331
427.497115493119
421.393065304907
415.257780260747
409.09211772711
402.896903770239
396.672934683545
390.420978995803
384.141779014002
377.836051969872
371.50449157122
365.147768316117
358.766530421699
352.361404617501
345.93299653866
339.481891513485
333.008654682999
326.513832090568
319.997950313504
313.461518267898
306.905026057073
300.328947509053
293.733738650282
287.119840298231
280.487677144304
273.837659269718
267.170181875995
260.485625904075
253.784358829712
247.066734125326
240.33309279212
233.583762084067
226.819057518198
220.039281465491
213.244725399744
206.435668832474
199.612380747586
192.775119059842
185.924131425685
179.059655433832
172.18191860745
165.291139112678
158.387525657806
151.471278056156
144.542586912629
137.60163437238
130.648593962188
123.683631192599
116.706903873623
109.71856221807
102.718748301702
95.7075970511919
88.6852362444123
81.6517866294085
74.607361880483
67.5520691642447
60.4860086073814
53.409274370379
46.3219527501665
39.2241264763332
32.1158661757362
24.9972455696228
17.8683171588364
10.7291469476866
3.57977754254881
)
;

boundaryField
{
    electrode
    {
        type            calculated;
        value           uniform 700.000000000014;
    }
    ground
    {
        type            calculated;
        value           uniform 0;
    }
    otherfaces
    {
        type            empty;
    }
}


// ************************************************************************* //
