/*--------------------------------*- C++ -*----------------------------------*\
| =========                 |                                                 |
| \\      /  F ield         | foam-extend: Open Source CFD                    |
|  \\    /   O peration     | Version:     4.0                                |
|   \\  /    A nd           | Web:         http://www.foam-extend.org         |
|    \\/     M anipulation  |                                                 |
\*---------------------------------------------------------------------------*/
FoamFile
{
    version     2.0;
    format      ascii;
    class       volScalarField;
    location    "1e-07";
    object      Sy_electron;
}
// * * * * * * * * * * * * * * * * * * * * * * * * * * * * * * * * * * * * * //

dimensions      [1 -3 -1 0 0 0 0];

internalField   nonuniform List<scalar> 
300
(
3.11947905754704e-09
3.12317687666968e-09
3.1231485701232e-09
3.12138277725172e-09
3.12053132469979e-09
3.11934551917804e-09
3.11757143098966e-09
3.11525436330376e-09
3.11238358162726e-09
3.10893925422843e-09
3.10490505468545e-09
3.10027131611597e-09
3.09503271282353e-09
3.08918770206226e-09
3.08273891456357e-09
3.07569181284933e-09
3.06805388234825e-09
3.05983416504775e-09
3.05104274266198e-09
3.04169027794556e-09
3.0317877953305e-09
3.02134651232681e-09
3.01037777712279e-09
2.99889267404791e-09
2.98690201339656e-09
2.97441683987444e-09
2.96144795563174e-09
2.9480058307266e-09
2.93410120315186e-09
2.91974443697783e-09
2.9049452513604e-09
2.88971388090549e-09
2.87406090398403e-09
2.8579963740055e-09
2.8415301718777e-09
2.824672213592e-09
2.80743230382168e-09
2.78982024637672e-09
2.77184579419287e-09
2.7535184787132e-09
2.73484777705116e-09
2.71584322222406e-09
2.69651420788177e-09
2.67686998747584e-09
2.65691977569292e-09
2.63667273288184e-09
2.61613797953185e-09
2.59532460880667e-09
2.57424174348275e-09
2.55289833225921e-09
2.53130330021878e-09
2.50946586187297e-09
2.48739537438713e-09
2.46510139327112e-09
2.44259349030209e-09
2.41988114752316e-09
2.39697375385731e-09
2.37388058768833e-09
2.35061088895209e-09
2.32717376223389e-09
2.30357823651546e-09
2.27983344452916e-09
2.25594813744134e-09
2.23193040321258e-09
2.20778885258476e-09
2.18353261204207e-09
2.15917018693134e-09
2.13470970915405e-09
2.11015936952679e-09
2.08552739985889e-09
2.06082180671893e-09
2.03605011900796e-09
2.01122016354443e-09
1.9863401907979e-09
1.96141778551081e-09
1.93646021531827e-09
1.91147518817198e-09
1.88647083726903e-09
1.86145486902203e-09
1.83643443875491e-09
1.8114173991764e-09
1.78641153362015e-09
1.76142413609694e-09
1.73646236995216e-09
1.71153300595882e-09
1.68664307577709e-09
1.66179982201273e-09
1.63700995914201e-09
1.61227989890462e-09
1.58761632656728e-09
1.56302533845221e-09
1.53851263229979e-09
1.51408476337413e-09
1.48974804927765e-09
1.46550812087303e-09
1.44312245463098e-09
1.42169418054799e-09
1.40033161653473e-09
1.37903887033001e-09
1.35781992892471e-09
1.33667886940274e-09
1.31561937442131e-09
1.29464481669073e-09
1.27375891550703e-09
1.25296514465829e-09
1.23226669527328e-09
1.21166674917694e-09
1.19116820084889e-09
1.17077400261011e-09
1.15048705217799e-09
1.13030996530778e-09
1.11024518160498e-09
1.09029490759136e-09
1.07046139154871e-09
1.05074678930703e-09
1.03115274938027e-09
1.01168094158513e-09
9.92333323291081e-10
9.73111685348379e-10
9.54017395376916e-10
9.35051666562333e-10
9.16215645223367e-10
8.97510208995405e-10
8.78936429551632e-10
8.60495491667295e-10
8.4218804143149e-10
8.24014445568464e-10
8.05975156868211e-10
7.88070405622396e-10
7.70300087055216e-10
7.52663918359986e-10
7.35161527634323e-10
7.17792429659899e-10
7.00555604488359e-10
6.83449693656296e-10
6.66473698217554e-10
6.496265452454e-10
6.32906507910381e-10
6.16311663143084e-10
5.99840238985071e-10
5.8349026564892e-10
5.67259467448934e-10
5.51145357551125e-10
5.35145055179493e-10
5.19255571319373e-10
5.03474091841489e-10
4.87797748475381e-10
4.72223650500646e-10
4.5674857053634e-10
4.41369026785213e-10
4.26082837947941e-10
4.11126627836672e-10
3.96658811048406e-10
3.82234600570804e-10
3.67855262762944e-10
3.53517952120757e-10
3.39220511538429e-10
3.2496165356469e-10
3.10740781903258e-10
2.9655790084902e-10
2.8241493882571e-10
2.68315869081772e-10
2.54268391547008e-10
2.40298259906222e-10
2.26445109459864e-10
2.12713189145605e-10
1.99072402570167e-10
1.85519889779194e-10
1.72057182032699e-10
1.58635755979517e-10
1.45215212992554e-10
1.31799233466806e-10
1.18396094007195e-10
1.05032012795829e-10
9.17734752055171e-11
7.87319048971061e-11
6.60742070375752e-11
5.40265818152365e-11
4.28631820851351e-11
3.28633539661894e-11
2.42648681211916e-11
1.72265963588993e-11
1.16457044686358e-11
7.58842463328398e-12
4.81327311016085e-12
3.02342601870767e-12
1.92159331518879e-12
1.27805983647506e-12
9.40080692276518e-13
8.29132446233448e-13
9.36944023080625e-13
1.77470850947327e-12
1.42856222771025e-11
7.62842571922288e-11
2.60023090664954e-10
6.32219102158314e-10
8.40623673057773e-10
7.713206586286e-10
5.69131207976386e-10
3.95616635154685e-10
2.83886773884808e-10
2.23008210354152e-10
1.90752632517176e-10
1.74962520962036e-10
1.68671327635763e-10
1.66848053812541e-10
1.67555209901372e-10
1.69909869912244e-10
1.73152619247039e-10
1.76774838304158e-10
1.80239467322265e-10
1.83472251700623e-10
1.86438382236996e-10
1.89050915959969e-10
1.91257586874782e-10
1.93030084773827e-10
1.9435640228455e-10
1.95232210211106e-10
1.9566265523705e-10
1.9570097966584e-10
1.9534910147104e-10
1.94629440382555e-10
1.93567526411753e-10
1.92191063739687e-10
1.90528257642827e-10
1.88607269252787e-10
1.86455740408374e-10
1.84100471621129e-10
1.81567174050235e-10
1.78880293232542e-10
1.76062895433945e-10
1.73136582785016e-10
1.70121577423081e-10
1.67036645192038e-10
1.63898581274919e-10
1.60722604135327e-10
1.57522913321252e-10
1.54312380963791e-10
1.51102312138503e-10
1.47902740067152e-10
1.44722484546802e-10
1.41569247011601e-10
1.3844969566623e-10
1.35369550133336e-10
1.32333665400313e-10
1.29346111626407e-10
1.26410247565519e-10
1.23528790663968e-10
1.20703882660907e-10
1.17937151658133e-10
1.15229770201379e-10
1.12582508116484e-10
1.0999578151703e-10
1.0746969776628e-10
1.05004096730566e-10
1.02598588685515e-10
1.00252588892887e-10
9.79653489199427e-11
9.57359852036952e-11
9.35635050331365e-11
9.14468293986406e-11
8.93848127857396e-11
8.73762611902364e-11
8.54199486086871e-11
8.35146323183997e-11
8.1659061637508e-11
7.98503946240794e-11
7.8026185877161e-11
7.6248052980258e-11
7.45127004408288e-11
7.28160909621059e-11
7.11568197760938e-11
6.95346781766282e-11
6.7949582648735e-11
6.64014715239215e-11
6.48902527562971e-11
6.34158088959069e-11
6.19780007968776e-11
6.05766369253531e-11
5.92113216048156e-11
5.78278692315054e-11
5.63945985362616e-11
5.49881016189981e-11
5.36104841471797e-11
5.22639836174186e-11
5.09506800281765e-11
4.96724343800005e-11
4.83025664982445e-11
4.68568713194954e-11
4.54444543864169e-11
4.40711341624508e-11
4.26107989347331e-11
4.09619301998499e-11
3.93648675005898e-11
3.75259169219535e-11
3.55423670406478e-11
3.31844941803051e-11
3.04662042674939e-11
2.68898155688593e-11
2.19892038747649e-11
)
;

boundaryField
{
    electrode
    {
        type            zeroGradient;
    }
    ground
    {
        type            zeroGradient;
    }
    otherfaces
    {
        type            empty;
    }
}


// ************************************************************************* //
