/*--------------------------------*- C++ -*----------------------------------*\
| =========                 |                                                 |
| \\      /  F ield         | foam-extend: Open Source CFD                    |
|  \\    /   O peration     | Version:     4.0                                |
|   \\  /    A nd           | Web:         http://www.foam-extend.org         |
|    \\/     M anipulation  |                                                 |
\*---------------------------------------------------------------------------*/
FoamFile
{
    version     2.0;
    format      ascii;
    class       volScalarField;
    location    "1e-07";
    object      Te;
}
// * * * * * * * * * * * * * * * * * * * * * * * * * * * * * * * * * * * * * //

dimensions      [0 0 0 1 0 0 0];

internalField   nonuniform List<scalar> 
300
(
40171.5623869058
40172.8588915646
40172.7919861819
40172.1168461712
40171.7985976114
40171.3854613364
40170.7984260367
40170.0660085082
40169.1938791485
40168.1827631448
40167.0331411979
40165.7464244667
40164.3241679179
40162.7679648462
40161.0797145419
40159.2612736223
40157.314312063
40155.2402913992
40153.0404141499
40150.715579995
40148.2664138232
40145.6932958319
40142.9964168704
40140.1756932454
40137.2308095301
40134.1614482833
40130.9671391524
40127.6472458207
40124.2012136884
40120.6283366501
40116.9276541661
40113.0984022256
40109.1399552384
40105.0514935418
40100.8321449157
40096.4810675768
40091.9973922506
40087.3802676102
40082.6288418628
40077.7421931879
40072.7193958839
40067.5595652586
40062.2617762616
40056.8250605397
40051.2484453807
40045.530943209
40039.6715535398
40033.6692640344
40027.5230717189
40021.2318880425
40014.794596367
40008.2101867173
40001.4776920852
39994.596221066
39987.564885523
39980.3827613339
39973.04889416
39965.5622965954
39957.9219871603
39950.1269479774
39942.176156435
39934.0686799253
39925.8034409922
39917.3790623493
39908.7944526651
39900.0488193694
39891.1410970078
39882.0700692292
39872.8345898451
39863.4335748651
39853.8658593185
39844.1300458076
39834.2249195652
39824.1495302482
39813.9025805627
39803.4826045302
39792.8883973481
39782.1190255146
39771.1733362715
39760.0498703288
39748.7476261167
39737.2656134163
39725.6025978712
39713.7573258532
39701.7283463331
39689.5144341077
39677.1145780114
39664.527494836
39651.751772385
39638.7862741712
39625.6295342781
39612.2798643522
39598.7362752078
39584.9977101925
39571.0627076681
39556.9298753026
39542.597887106
39528.0654182027
39513.3310169748
39498.3932190929
39483.2507582266
39467.90209352
39452.3454682444
39436.5795730676
39420.6029561747
39404.413977364
39388.01109387
39371.3925542447
39354.5567726811
39337.5022182417
39320.227160268
39302.7297813337
39285.0080947113
39267.060266803
39248.8844635191
39230.4783105002
39211.8395237051
39192.9662710689
39173.8566129215
39154.5081512114
39134.9183691044
39115.0847413018
39095.004426299
39074.674935857
39054.0940718435
39033.2589600317
39012.1664124641
38990.8135043858
38969.197098879
38947.3136448646
38925.1594136509
38902.7306450165
38880.0235156465
38857.0333393041
38833.7548235727
38810.1833735546
38786.314314984
38762.1416909486
38737.6590762921
38712.8602769188
38687.7385798807
38662.2864458897
38636.4956223451
38610.3565569092
38583.8588825016
38556.9919945454
38529.7443687826
38502.1035012674
38474.0548186513
38445.5813635311
38416.6707122541
38387.3109727975
38357.4664486239
38327.1099404206
38296.2272859119
38264.7872102492
38232.7554138827
38200.094554449
38166.7624576092
38132.7102425466
38097.8871647327
38062.240827754
38025.7269548422
37988.4019674402
37950.4395241767
37911.8463526744
37872.4082708011
37832.0753955442
37790.8276268728
37748.1729881096
37703.4653837312
37656.1771302632
37605.4504998933
37550.0413441426
37488.3833101835
37418.4665230029
37337.8589694185
37243.8669995031
37133.9076645039
37005.72746165
36857.9697112437
36692.0370319146
36512.2973773339
36325.8670940776
36148.3597099351
36005.1729462479
35927.0882431282
35960.4564413759
36179.5825981484
36692.7277921705
37661.0949159657
39352.1992619321
42212.5699840025
47075.9473046938
55698.483102188
70183.2364045265
91872.0238328211
127649.38011915
180902.366030467
254561.085320923
343260.264192707
435484.539164856
520670.105295128
593609.67384359
653767.441553231
702797.656930227
742880.743320634
775824.1191702
802970.095681154
825470.452495131
844238.458100619
860019.08979835
873387.736124678
884789.885334687
894574.503239561
903017.497620663
910341.018535843
916732.178292324
922327.833665242
927217.707797676
931497.863884441
935258.741371979
938564.241066929
941467.654841582
944012.28038402
946233.816651644
948161.551340622
949819.431533251
951226.883175736
952399.489157506
953349.568371147
954086.523101583
954617.47054793
954945.808196511
955075.0293596
955011.89219858
954753.061409893
954297.967364049
953644.529109983
952790.023499146
951730.930158772
950463.076435635
948981.712718869
947281.592184132
945357.04192531
943202.022163755
940810.175870669
938174.873498341
935289.252174164
932146.244446734
928738.607630626
925058.943779072
921099.716424141
916853.256374523
912311.772124743
907467.353388969
902311.962249603
896837.429963403
891035.448635035
884897.557791401
878415.127837499
871579.337243075
864381.151068227
856811.29151961
848860.216439254
840518.05820918
831774.737612291
822619.367598282
813043.21621146
803033.387510099
792573.610867925
781652.616555925
770256.72438764
758369.610193164
745973.924121854
733051.227999291
719582.003983555
705545.603338691
690920.277433304
675684.188718446
659819.007400077
643294.69062962
626078.552516301
608141.149338195
589441.062245858
569933.109943802
549578.999014516
528326.563114941
506112.394447434
482871.091962319
458526.571665604
432984.288163587
406128.692682171
377833.456409049
347921.595748795
316172.278507314
282276.455820764
245826.196028785
206254.040827012
162752.717546275
)
;

boundaryField
{
    electrode
    {
        type            electronTemperature;
        seec            0.05;
        Tse             1000;
        Edepend         1;
        TFN             1000;
        field_emission  0;
        field_enhancement_factor 55;
        work_function   5;
        value           uniform 40171.5623869058;
    }
    ground
    {
        type            electronTemperature;
        seec            0.05;
        Tse             1000;
        Edepend         1;
        TFN             1000;
        field_emission  0;
        field_enhancement_factor 55;
        work_function   5;
        value           uniform 138165.242705372;
    }
    otherfaces
    {
        type            empty;
    }
}


// ************************************************************************* //
