/*--------------------------------*- C++ -*----------------------------------*\
| =========                 |                                                 |
| \\      /  F ield         | foam-extend: Open Source CFD                    |
|  \\    /   O peration     | Version:     4.0                                |
|   \\  /    A nd           | Web:         http://www.foam-extend.org         |
|    \\/     M anipulation  |                                                 |
\*---------------------------------------------------------------------------*/
FoamFile
{
    version     2.0;
    format      ascii;
    class       volScalarField;
    location    "1e-07";
    object      TeMean;
}
// * * * * * * * * * * * * * * * * * * * * * * * * * * * * * * * * * * * * * //

dimensions      [0 0 0 1 0 0 0];

internalField   nonuniform List<scalar> 
300
(
67293.5511043103
67297.6341983041
67297.8150280273
67293.7918079321
67288.1978201182
67281.1597471418
67272.7163726179
67262.9305544609
67251.849906462
67239.5148012912
67225.9628492401
67211.2308932108
67195.353844313
67178.3642564484
67160.2930742943
67141.169800703
67121.0224701889
67099.8779569659
67077.7620080753
67054.6992892001
67030.7135711594
67005.8276281422
66980.063353432
66953.4418038849
66925.9832050283
66897.7074740281
66868.6339061507
66838.7810544867
66808.1670405303
66776.8089831777
66744.7230537604
66711.9257047978
66678.4335628545
66644.2624110372
66609.4273807169
66573.9426544417
66537.822050384
66501.0795289699
66463.7286289288
66425.7822345118
66387.2526540718
66348.1523034233
66308.49323753
66268.2869528184
66227.5445720387
66186.2768359828
66144.494061048
66102.2060779606
66059.4219692678
66016.1501374505
65972.3982947883
65928.1742985153
65883.4867618581
65838.343814167
65792.7534406705
65746.7238691763
65700.2625368604
65653.376227379
65606.0718461323
65558.3560477006
65510.2351382094
65461.7155214083
65412.8022482116
65363.4998932712
65313.8143995387
65263.7520677708
65213.3187752392
65162.5199344955
65111.3606030894
65059.8458096709
65007.9800430177
64955.7668684445
64903.2103088625
64850.314434163
64797.0824473673
64743.5166921534
64689.6201868778
64635.3970387768
64580.8502488559
64525.9822747995
64470.7965360615
64415.2964887872
64359.4843663392
64303.3613322064
64246.9283884213
64190.1875031796
64133.1412336135
64075.791296626
64018.1386281331
63960.1841485128
63901.9278337212
63843.3695426675
63784.511219559
63725.3535653754
63665.8964892331
63606.140833164
63546.0866046995
63485.7336009791
63425.0811154159
63364.1284414761
63302.875510602
63241.3203147075
63179.4606230939
63117.2957253451
63054.8244287178
62992.0449588314
62928.9547500276
62865.5512972175
62801.832507872
62737.7957706524
62673.4383440193
62608.7569948674
62543.7477740867
62478.4076257723
62412.7323380939
62346.7168363752
62280.3553539853
62213.6427936628
62146.575079223
62079.1454346488
62011.3461937235
61943.1698593086
61874.6083692248
61805.6540519453
61736.2998256444
61666.5373240497
61596.3561198773
61525.7459950896
61454.6970410676
61383.197241521
61311.2334270054
61238.7926910615
61165.8616780937
61092.4235144131
61018.4597658454
60943.9544648451
60868.8904145461
60793.2473363586
60717.0045943011
60640.1414002586
60562.6354000643
60484.461713165
60405.592496382
60325.9973662289
60245.6453372199
60164.5053241066
60082.5449887393
59999.7303262023
59916.0210470166
59831.3737323841
59745.7458957727
59659.0899374322
59571.3548770345
59482.4889303174
59392.4332691378
59301.1238289277
59208.4938729164
59114.4737372983
59018.9896061846
58921.9632420416
58823.3213181364
58722.9954988895
58620.9295060881
58517.1073279363
58411.4911782041
58303.902167303
58194.0938365287
58081.8257185364
57966.6772876542
57848.0060534303
57725.0724767229
57596.926582894
57462.2948661758
57319.589265242
57166.8923538824
57001.9820475532
56822.452759426
56626.0158130443
56410.8280349221
56175.9623543813
55922.3613045263
55653.5570764083
55376.2738257479
55102.3937258149
54850.4165778983
54645.700072983
54524.0459072557
54536.9189792842
54758.8768438065
55297.8749233922
56320.1565409275
58100.6407835621
61108.2444380006
66357.0968357807
75021.2429778462
88304.1415803577
111523.376482629
146761.791507523
199642.851010727
270369.378126101
352828.2702498
436626.003387344
513437.567108151
579425.10850913
634315.269058872
679528.516388429
716774.16095188
747501.457266473
772881.079601652
793925.391385682
811454.025580767
826152.11614791
838552.230668751
849074.733888391
858051.80012158
865747.063167526
872374.386055753
878109.967118584
883083.575250375
887389.938399378
891120.274144488
894355.494980561
897158.317669131
899579.660469509
901660.9532933
903436.624085657
904934.49820769
906177.466033846
907184.450269569
907970.244976283
908546.625322409
908923.455033937
909107.885151218
909105.039766515
908919.625510895
908553.030693802
908005.623652311
907277.135927179
906366.353499478
905271.058270592
903988.408731131
902514.951355433
900846.747078557
898979.046691068
896907.036309936
894625.430153471
892128.585274799
889410.483844951
886465.077687315
883286.086499473
879866.702384355
876200.364951831
872280.160490205
868099.050046071
863649.711735137
858924.843660329
853917.007203606
848618.489329737
843021.394017078
837117.794366748
830899.563414347
824358.180988222
817485.168022439
810271.337077722
802707.922608309
794785.279543033
786493.164018819
777820.763291721
768757.0283031
759289.285254674
749405.000377429
739091.073991959
728332.835342667
717114.42109449
705419.546960539
693230.34812003
680528.658369435
667295.087476571
653510.945445391
639156.52446202
624206.517908551
608633.413240213
592408.085330551
575495.90968443
557858.133822139
539456.939451441
520250.182167107
500184.790313268
479202.783607602
457238.734759473
434216.892846502
410044.355981107
384615.787308772
357802.419790475
329436.820961252
299308.088487555
267117.347737147
232478.674987402
194857.390160567
153515.800943417
)
;

boundaryField
{
    electrode
    {
        type            calculated;
        value           uniform 67293.5511044337;
    }
    ground
    {
        type            calculated;
        value           uniform 130161.333753249;
    }
    otherfaces
    {
        type            empty;
    }
}


// ************************************************************************* //
