/*--------------------------------*- C++ -*----------------------------------*\
| =========                 |                                                 |
| \\      /  F ield         | foam-extend: Open Source CFD                    |
|  \\    /   O peration     | Version:     4.0                                |
|   \\  /    A nd           | Web:         http://www.foam-extend.org         |
|    \\/     M anipulation  |                                                 |
\*---------------------------------------------------------------------------*/
FoamFile
{
    version     2.0;
    format      ascii;
    class       volScalarField;
    location    "9.5e-06";
    object      Ar;
}
// * * * * * * * * * * * * * * * * * * * * * * * * * * * * * * * * * * * * * //

dimensions      [0 0 0 1 0 0 0];

internalField   nonuniform List<scalar> 
300
(
3.2188016190328e+22
3.21880161478631e+22
3.21880161781885e+22
3.2188016191242e+22
3.21880162129445e+22
3.21880162428934e+22
3.21880162792958e+22
3.21880163228427e+22
3.21880163734092e+22
3.21880164309595e+22
3.21880164954993e+22
3.21880165670163e+22
3.21880166455049e+22
3.21880167309612e+22
3.21880168233827e+22
3.2188016922768e+22
3.21880170291197e+22
3.21880171424371e+22
3.21880172627202e+22
3.21880173899708e+22
3.21880175241916e+22
3.21880176653859e+22
3.21880178135572e+22
3.21880179687101e+22
3.21880181308651e+22
3.2188018300015e+22
3.21880184761665e+22
3.21880186593288e+22
3.21880188494994e+22
3.2188019046685e+22
3.21880192509111e+22
3.21880194621783e+22
3.21880196804811e+22
3.21880199058267e+22
3.21880201382228e+22
3.21880203776777e+22
3.21880206242047e+22
3.2188020877811e+22
3.21880211385033e+22
3.21880214062923e+22
3.21880216811887e+22
3.2188021963202e+22
3.21880222523429e+22
3.21880225486229e+22
3.21880228520536e+22
3.21880231626473e+22
3.21880234804185e+22
3.21880238053816e+22
3.21880241375604e+22
3.21880244769724e+22
3.21880248236465e+22
3.21880251775867e+22
3.2188025538815e+22
3.21880259073305e+22
3.21880262831419e+22
3.218802666625e+22
3.21880270566685e+22
3.21880274544118e+22
3.21880278594947e+22
3.21880282719343e+22
3.21880286917438e+22
3.21880291189387e+22
3.21880295535401e+22
3.21880299955837e+22
3.21880304450834e+22
3.21880309020315e+22
3.21880313664439e+22
3.21880318383365e+22
3.21880323177259e+22
3.21880328046287e+22
3.21880332990637e+22
3.21880338010561e+22
3.21880343106253e+22
3.2188034827782e+22
3.21880353525576e+22
3.21880358849689e+22
3.21880364250275e+22
3.21880369727553e+22
3.21880375281502e+22
3.21880380912602e+22
3.21880386620685e+22
3.21880392405904e+22
3.21880398268465e+22
3.21880404208519e+22
3.21880410226384e+22
3.21880416322156e+22
3.21880422495886e+22
3.21880428747741e+22
3.21880435078006e+22
3.2188044148677e+22
3.21880447974256e+22
3.21880454541076e+22
3.2188046118684e+22
3.2188046791169e+22
3.21880474715784e+22
3.21880481599275e+22
3.2188048856232e+22
3.21880495605075e+22
3.21880502727798e+22
3.21880509930637e+22
3.21880517213675e+22
3.21880524577042e+22
3.21880532021196e+22
3.21880539545986e+22
3.21880547151637e+22
3.21880554838379e+22
3.21880562606193e+22
3.21880570455403e+22
3.21880578386035e+22
3.21880586398156e+22
3.21880594491909e+22
3.21880602667436e+22
3.21880610924937e+22
3.21880619264548e+22
3.21880627686381e+22
3.21880636190726e+22
3.21880644778009e+22
3.21880653448135e+22
3.21880662200584e+22
3.2188067103582e+22
3.21880679954616e+22
3.21880688956961e+22
3.21880698043328e+22
3.21880707213808e+22
3.2188071646848e+22
3.21880725807555e+22
3.218807352315e+22
3.21880744740327e+22
3.21880754334326e+22
3.21880764013698e+22
3.21880773778777e+22
3.21880783629778e+22
3.21880793566927e+22
3.21880803590657e+22
3.21880813701504e+22
3.21880823899451e+22
3.2188083418463e+22
3.2188084455746e+22
3.21880855018295e+22
3.21880865567214e+22
3.21880876204543e+22
3.21880886930613e+22
3.21880897745908e+22
3.2188090865091e+22
3.21880919646025e+22
3.21880930731208e+22
3.21880941906758e+22
3.21880953172981e+22
3.21880964530316e+22
3.21880975979367e+22
3.21880987520122e+22
3.218809991529e+22
3.21881010878397e+22
3.21881022696607e+22
3.21881034607759e+22
3.21881046612126e+22
3.2188105871023e+22
3.21881070901373e+22
3.21881083186142e+22
3.21881095563158e+22
3.21881108034158e+22
3.21881120595042e+22
3.21881133250058e+22
3.21881145990536e+22
3.21881158825355e+22
3.21881171750283e+22
3.21881184657968e+22
3.21881197604985e+22
3.21881210703602e+22
3.2188122388843e+22
3.21881237155437e+22
3.21881250426921e+22
3.21881263731673e+22
3.21881277012849e+22
3.21881290288009e+22
3.21881303700565e+22
3.21881317233069e+22
3.21881330361579e+22
3.21881343437107e+22
3.21881356851461e+22
3.21881369581895e+22
3.21881382022192e+22
3.21881394673399e+22
3.2188140636259e+22
3.21881417699697e+22
3.21881428749496e+22
3.21881438768091e+22
3.21881448155525e+22
3.21881457084092e+22
3.21881464776714e+22
3.2188147169285e+22
3.21881478131112e+22
3.21881483545603e+22
3.21881487920052e+22
3.21881491538529e+22
3.21881494240903e+22
3.21881496144175e+22
3.21881497552618e+22
3.21881498488472e+22
3.21881499231258e+22
3.21881499395339e+22
3.21881499093438e+22
3.2188149850062e+22
3.21881498233769e+22
3.21881498551784e+22
3.21881499389367e+22
3.21881500438768e+22
3.21881501526979e+22
3.21881502480075e+22
3.21881503290931e+22
3.21881503962004e+22
3.21881504522083e+22
3.21881504987434e+22
3.21881505494304e+22
3.21881506062063e+22
3.21881506585471e+22
3.21881507050096e+22
3.21881507476342e+22
3.21881507859812e+22
3.2188150821758e+22
3.21881508541886e+22
3.21881508854712e+22
3.21881509144693e+22
3.21881509423551e+22
3.21881509679546e+22
3.21881510061452e+22
3.21881510446994e+22
3.21881510828205e+22
3.21881511184904e+22
3.21881511539486e+22
3.21881511870842e+22
3.21881512201864e+22
3.21881512510253e+22
3.2188151281954e+22
3.21881513106628e+22
3.21881513395469e+22
3.21881513662189e+22
3.21881513931519e+22
3.21881514178463e+22
3.2188151442894e+22
3.21881514656549e+22
3.21881514924144e+22
3.21881515241103e+22
3.21881515562124e+22
3.21881515860141e+22
3.21881516163082e+22
3.21881516442791e+22
3.21881516728544e+22
3.21881516990657e+22
3.21881517259961e+22
3.21881517505294e+22
3.21881517758862e+22
3.21881517988447e+22
3.21881518227363e+22
3.2188151844164e+22
3.21881518666183e+22
3.21881518865587e+22
3.21881519076388e+22
3.21881519261635e+22
3.21881519459298e+22
3.21881519630979e+22
3.21881519816252e+22
3.21881519975368e+22
3.21881520149204e+22
3.2188152029904e+22
3.21881520535091e+22
3.21881520733314e+22
3.21881520961291e+22
3.21881521147963e+22
3.21881521365619e+22
3.21881521541325e+22
3.21881521749236e+22
3.21881521914612e+22
3.21881522113462e+22
3.2188152226913e+22
3.21881522459541e+22
3.21881522606062e+22
3.21881522788468e+22
3.2188152292622e+22
3.2188152310099e+22
3.21881523230394e+22
3.21881523398318e+22
3.21881523521909e+22
3.21881523687319e+22
3.21881523806507e+22
3.21881523966332e+22
3.2188152407856e+22
3.21881524232378e+22
3.21881524337753e+22
3.21881524489918e+22
3.21881524597181e+22
3.21881524748318e+22
3.21881524848922e+22
3.21881525001624e+22
3.21881525106902e+22
3.21881525260096e+22
3.21881525372267e+22
3.21881525541712e+22
3.21881525694375e+22
3.21881525978602e+22
)
;

boundaryField
{
    electrode
    {
        type            zeroGradient;
    }
    ground
    {
        type            zeroGradient;
    }
    otherfaces
    {
        type            empty;
    }
}


// ************************************************************************* //
