/*--------------------------------*- C++ -*----------------------------------*\
| =========                 |                                                 |
| \\      /  F ield         | foam-extend: Open Source CFD                    |
|  \\    /   O peration     | Version:     4.0                                |
|   \\  /    A nd           | Web:         http://www.foam-extend.org         |
|    \\/     M anipulation  |                                                 |
\*---------------------------------------------------------------------------*/
FoamFile
{
    version     2.0;
    format      ascii;
    class       volScalarField;
    location    "9.5e-06";
    object      Arm;
}
// * * * * * * * * * * * * * * * * * * * * * * * * * * * * * * * * * * * * * //

dimensions      [0 0 0 1 0 0 0];

internalField   nonuniform List<scalar> 
300
(
3.57410086142925e+15
3.575973599314e+15
3.57792058798026e+15
3.57922692629245e+15
3.58004326970598e+15
3.58042190174094e+15
3.58040701737307e+15
3.58003007092592e+15
3.57931672550149e+15
3.57828895906333e+15
3.57696255584992e+15
3.57535160110749e+15
3.57346814918425e+15
3.57132280327673e+15
3.56892502090812e+15
3.56628334048633e+15
3.56340260185976e+15
3.56029138279868e+15
3.55695802105424e+15
3.55340899953241e+15
3.54965051968386e+15
3.54568850314519e+15
3.54152863987544e+15
3.53717634195932e+15
3.53262103285727e+15
3.52788035576925e+15
3.52295804141263e+15
3.51785613449959e+15
3.51258818248422e+15
3.50715904456156e+15
3.50155505896846e+15
3.49578755928559e+15
3.48987460877819e+15
3.48382161801724e+15
3.47763367327719e+15
3.47131556639675e+15
3.46486749558275e+15
3.45829596414263e+15
3.45160803192582e+15
3.4448072421065e+15
3.43789710227647e+15
3.43088288157307e+15
3.4237684635539e+15
3.41655753971804e+15
3.40925361012681e+15
3.40185993383384e+15
3.39437746166868e+15
3.38680762043666e+15
3.37914268114639e+15
3.37138119508206e+15
3.36351063915083e+15
3.35554342363262e+15
3.34747424554454e+15
3.33932075178427e+15
3.3310911148451e+15
3.32280165852214e+15
3.31445571169428e+15
3.30605619055104e+15
3.29760566315208e+15
3.28910456078879e+15
3.28055718538441e+15
3.27196564085115e+15
3.26332656216261e+15
3.2546220667303e+15
3.24585613203314e+15
3.23705424482672e+15
3.22821854931423e+15
3.21935088528555e+15
3.21045283859946e+15
3.20152576442458e+15
3.19256880827198e+15
3.18357484505478e+15
3.17454234516217e+15
3.16547868922342e+15
3.15637041216441e+15
3.14721855252399e+15
3.13802941951719e+15
3.12879895800454e+15
3.11954698595404e+15
3.11024319364329e+15
3.10092195644317e+15
3.09158545940871e+15
3.08223064132492e+15
3.07285971429087e+15
3.06345794452437e+15
3.05403303365938e+15
3.04459665392526e+15
3.03514912386052e+15
3.02567860185731e+15
3.01619276993292e+15
3.00668555896069e+15
2.99711221490593e+15
2.98752767821664e+15
2.97793369921652e+15
2.96833031041835e+15
2.95871753745143e+15
2.94909516202519e+15
2.93946272939905e+15
2.92980934956461e+15
2.92013495167684e+15
2.91044577439084e+15
2.9007430372907e+15
2.89099517747704e+15
2.88123120814674e+15
2.8714419922847e+15
2.86161823744412e+15
2.8517748400988e+15
2.8418923259423e+15
2.83198104417158e+15
2.82204644131579e+15
2.81208666210477e+15
2.80209940924981e+15
2.79207696582763e+15
2.78201710770874e+15
2.77191758117717e+15
2.76176076473192e+15
2.75152786822519e+15
2.74124354626119e+15
2.73090870418835e+15
2.72051524237909e+15
2.71003689607776e+15
2.6994864532989e+15
2.68883509996689e+15
2.67809314811493e+15
2.66727199696834e+15
2.65636941956954e+15
2.64535745783082e+15
2.6342533884922e+15
2.62304646319076e+15
2.6117345929742e+15
2.60030218905587e+15
2.58874535379653e+15
2.57705904644226e+15
2.56521720324207e+15
2.55318350148933e+15
2.54097664537891e+15
2.52860052797927e+15
2.51603018180272e+15
2.50324679543728e+15
2.49025937591926e+15
2.47705198879367e+15
2.46360794725238e+15
2.44989513974071e+15
2.43588148388449e+15
2.42154244619885e+15
2.40689765672963e+15
2.39193231932933e+15
2.37663004298963e+15
2.36096028169004e+15
2.34487431677984e+15
2.3283843660579e+15
2.31146568070469e+15
2.29405620518019e+15
2.27615458371398e+15
2.25774252891377e+15
2.2387703933966e+15
2.21919500472567e+15
2.19901567943334e+15
2.17821325637542e+15
2.15674285124449e+15
2.13456888182322e+15
2.11167616317679e+15
2.08802660169669e+15
2.06363257666082e+15
2.03848105896545e+15
2.01251773095113e+15
1.98576330278712e+15
1.95826225840346e+15
1.93004362685079e+15
1.90114940642919e+15
1.87164806581665e+15
1.84157313458662e+15
1.81101703846932e+15
1.78015116612075e+15
1.74916936441436e+15
1.71824155262428e+15
1.68754693851884e+15
1.65728456385447e+15
1.6276929658166e+15
1.59892789060168e+15
1.57114360321895e+15
1.54448702401223e+15
1.51903972664989e+15
1.49491619179246e+15
1.47211635282243e+15
1.4505504757668e+15
1.4302579450134e+15
1.41118840490432e+15
1.3932561526796e+15
1.37638071802957e+15
1.3604687858936e+15
1.34557275867961e+15
1.33219013117976e+15
1.3254166942058e+15
1.35142057740431e+15
1.41744273681195e+15
1.49765433069907e+15
1.56471731055656e+15
1.62783291513746e+15
1.7010259653581e+15
1.78524064547176e+15
1.87420092332748e+15
1.94662746980359e+15
1.96276643579877e+15
1.92716379083821e+15
1.86169419645505e+15
1.79096694801221e+15
1.73079175493937e+15
1.68656195073211e+15
1.65664605927995e+15
1.63716518823947e+15
1.62549059768461e+15
1.61800176209585e+15
1.61452181863334e+15
1.61261722629456e+15
1.61095709038044e+15
1.61014331697521e+15
1.60956629701532e+15
1.60879505004135e+15
1.60758805446398e+15
1.60576287824005e+15
1.602598021773e+15
1.59821964440643e+15
1.59291089925124e+15
1.58673906693775e+15
1.57985916019578e+15
1.57231985786705e+15
1.56415732813265e+15
1.55542882132314e+15
1.54620111131567e+15
1.53652061319746e+15
1.52645030967645e+15
1.51605782429919e+15
1.50539309399712e+15
1.49450785263965e+15
1.48346816259086e+15
1.47230480684736e+15
1.46107987183216e+15
1.44982197824514e+15
1.4385765218144e+15
1.42737487389424e+15
1.41623810337939e+15
1.40520731987772e+15
1.3942925783595e+15
1.38352135123763e+15
1.3729274593123e+15
1.36251284899429e+15
1.35229818014008e+15
1.34229661349431e+15
1.33250880595812e+15
1.32294858471757e+15
1.31361402606235e+15
1.30448614204534e+15
1.29558704690307e+15
1.2869246152889e+15
1.27850531519365e+15
1.27033180034211e+15
1.26239023187896e+15
1.25468852150476e+15
1.24721650713719e+15
1.23997416639389e+15
1.2329392017811e+15
1.22609511432079e+15
1.2194399392963e+15
1.21298138675162e+15
1.2067135805127e+15
1.20062674684602e+15
1.19471552576485e+15
1.18896709693282e+15
1.18338492505386e+15
1.17795866250818e+15
1.17269016573432e+15
1.16756213913768e+15
1.16257717965685e+15
1.15772175160025e+15
1.15299296003552e+15
1.14838778727729e+15
1.14390499510635e+15
1.13954535819394e+15
1.13530142340586e+15
1.13117089707101e+15
1.12711240170615e+15
1.12298238447459e+15
1.11870191761434e+15
1.11446052700384e+15
1.11029974548312e+15
1.10622832576764e+15
1.10225043228291e+15
1.09835749962768e+15
1.09414634211632e+15
1.08957666665873e+15
1.08510945661008e+15
1.08075596448591e+15
1.07578948776394e+15
1.07054298430971e+15
1.06523213406014e+15
1.05890310715559e+15
1.05201979930156e+15
1.0440439301676e+15
1.03428159548353e+15
)
;

boundaryField
{
    electrode
    {
        type            zeroGradient;
    }
    ground
    {
        type            zeroGradient;
    }
    otherfaces
    {
        type            empty;
    }
}


// ************************************************************************* //
