/*--------------------------------*- C++ -*----------------------------------*\
| =========                 |                                                 |
| \\      /  F ield         | foam-extend: Open Source CFD                    |
|  \\    /   O peration     | Version:     4.0                                |
|   \\  /    A nd           | Web:         http://www.foam-extend.org         |
|    \\/     M anipulation  |                                                 |
\*---------------------------------------------------------------------------*/
FoamFile
{
    version     2.0;
    format      ascii;
    class       volScalarField;
    location    "9.5e-06";
    object      Arp1;
}
// * * * * * * * * * * * * * * * * * * * * * * * * * * * * * * * * * * * * * //

dimensions      [0 0 0 1 0 0 0];

internalField   nonuniform List<scalar> 
300
(
6.86018783104698e+16
6.86444132272071e+16
6.86170599724306e+16
6.86109876130817e+16
6.8600061602235e+16
6.8584656905922e+16
6.85665282161492e+16
6.85449535591603e+16
6.85200352115628e+16
6.84917897546313e+16
6.84601983181547e+16
6.84252620640428e+16
6.83869777283079e+16
6.83453417635547e+16
6.83003508558678e+16
6.82520013963558e+16
6.82002896278839e+16
6.81452116371686e+16
6.80867633473982e+16
6.80249405233567e+16
6.7959738771597e+16
6.78911535422779e+16
6.78191801306331e+16
6.77438136781929e+16
6.76650491747864e+16
6.75828814604155e+16
6.74973052264892e+16
6.74083150182963e+16
6.73159052369449e+16
6.72200701411317e+16
6.71208038494118e+16
6.70181003428447e+16
6.69119534667553e+16
6.68023569333077e+16
6.6689304324375e+16
6.65727890934867e+16
6.64528045688214e+16
6.63293439561147e+16
6.62024003408825e+16
6.60719666916959e+16
6.59380358632765e+16
6.58006005989343e+16
6.56596535341097e+16
6.55151871995756e+16
6.53671940241972e+16
6.52156663386071e+16
6.50605963786863e+16
6.4901976288412e+16
6.47397981238306e+16
6.45740538567071e+16
6.44047353774841e+16
6.42318344995681e+16
6.40553429629796e+16
6.38752524377692e+16
6.36915545280928e+16
6.35042407762964e+16
6.33133026664941e+16
6.31187316286073e+16
6.29205190428272e+16
6.27186562430375e+16
6.25131345213342e+16
6.23039451323653e+16
6.20910792969823e+16
6.18745282068719e+16
6.16542830289628e+16
6.14303349092097e+16
6.12026749773302e+16
6.09712943512897e+16
6.07361841412015e+16
6.04973354540641e+16
6.02547393983766e+16
6.00083870880935e+16
5.97582696474349e+16
5.95043782155106e+16
5.9246703950281e+16
5.89852380335161e+16
5.87199716752881e+16
5.84508961181867e+16
5.81780026419299e+16
5.79012825681671e+16
5.76207272646058e+16
5.73363281495079e+16
5.70480766965595e+16
5.67559644389172e+16
5.64599829737091e+16
5.61601239667971e+16
5.5856379156786e+16
5.55487403595189e+16
5.52371994726755e+16
5.49217484796938e+16
5.46023794542376e+16
5.42790845646139e+16
5.39518560777894e+16
5.36206863634221e+16
5.32855678984398e+16
5.29464932707051e+16
5.26034551831751e+16
5.2256446458118e+16
5.19054600407218e+16
5.15504890030909e+16
5.11915265483364e+16
5.08285660141748e+16
5.04616008765278e+16
5.00906247534905e+16
4.97156314087537e+16
4.93366147559385e+16
4.89535688639844e+16
4.85664879529515e+16
4.81753663922011e+16
4.77801987405454e+16
4.7380979791583e+16
4.69777043827868e+16
4.65703671450819e+16
4.61589634259502e+16
4.57434909987202e+16
4.5323945344947e+16
4.49003091101017e+16
4.44725736604125e+16
4.40407971866231e+16
4.36049504229513e+16
4.31649935636237e+16
4.27209265438484e+16
4.22727426976197e+16
4.18204344815186e+16
4.13639945658149e+16
4.09034158796724e+16
4.04386916676383e+16
3.99698155106756e+16
3.94967813398502e+16
3.90195834512914e+16
3.85382165233127e+16
3.80526756364034e+16
3.75629562972891e+16
3.70690544676628e+16
3.65709665979764e+16
3.60686896680078e+16
3.55622212351196e+16
3.50515594913209e+16
3.45367033315977e+16
3.40176524351284e+16
3.34944073618904e+16
3.29669696681339e+16
3.24353420437826e+16
3.18995284782211e+16
3.13595344521961e+16
3.08153671878563e+16
3.02670358935789e+16
2.9714552195887e+16
2.91579303340184e+16
2.85971881285838e+16
2.80323465525726e+16
2.74634325906777e+16
2.68904757577008e+16
2.63135178116231e+16
2.57325972303464e+16
2.51477827995793e+16
2.45591158748601e+16
2.39667213072118e+16
2.33706181966976e+16
2.27710528571732e+16
2.21679553071242e+16
2.15618245858986e+16
2.09523531675368e+16
2.03404825608803e+16
1.9725438653963e+16
1.91078314348112e+16
1.8498642747946e+16
1.78926718776987e+16
1.72792629559292e+16
1.66654152284185e+16
1.60518626593416e+16
1.54467343290665e+16
1.48475020110592e+16
1.42601427018535e+16
1.36830857648598e+16
1.31018606358094e+16
1.2517434179868e+16
1.19808630816894e+16
1.14552662744061e+16
1.08988294955009e+16
1.04100545182915e+16
9.94504054634887e+15
9.44819746319227e+15
9.03020329308355e+15
8.62301361802383e+15
8.2128349315697e+15
7.86649357184243e+15
7.53703365851323e+15
7.20128492827901e+15
6.93245695731164e+15
6.6820600641797e+15
6.41957664648358e+15
6.20049246944855e+15
6.02463843137096e+15
5.84221641761083e+15
5.66801667742474e+15
5.52263328069217e+15
5.40935431679794e+15
5.32294816652786e+15
5.2270898075589e+15
5.16553615974667e+15
5.135481038163e+15
5.14252265801554e+15
5.16751712152399e+15
5.18131436074589e+15
5.16940638101481e+15
5.13892834142741e+15
5.09233629192363e+15
5.04236312619647e+15
4.9917972832468e+15
4.94450968667164e+15
4.90037150323977e+15
4.86143943023392e+15
4.81429911587818e+15
4.75946581871119e+15
4.70880544949982e+15
4.66316624808058e+15
4.62112179803224e+15
4.58354579513366e+15
4.54897408514739e+15
4.51836634075338e+15
4.4902466652773e+15
4.4656261358924e+15
4.44304971046015e+15
4.42362419725296e+15
4.39231734328146e+15
4.36130820383418e+15
4.33135701037634e+15
4.30442477706577e+15
4.27820508823145e+15
4.25476233794623e+15
4.23174409467582e+15
4.21131262204683e+15
4.19106473250817e+15
4.17325818267076e+15
4.15543170351899e+15
4.13994168987299e+15
4.12425287939212e+15
4.11083613875011e+15
4.09705393030927e+15
4.08551512665139e+15
4.06991288969666e+15
4.04926840704513e+15
4.0281017345667e+15
4.00909177850155e+15
3.98941201863873e+15
3.97187589148435e+15
3.95353514161686e+15
3.93734501568237e+15
3.92022163581685e+15
3.90526741499103e+15
3.88926356486778e+15
3.87545095277751e+15
3.86047597712778e+15
3.84772778937818e+15
3.83370935435753e+15
3.82195849330435e+15
3.80883560949818e+15
3.79802769841934e+15
3.7857481266236e+15
3.77583652385759e+15
3.76435788921232e+15
3.75530361680662e+15
3.74458796135895e+15
3.73607524877074e+15
3.71874992531588e+15
3.70502594669512e+15
3.68815058987612e+15
3.67524249237469e+15
3.65906938619645e+15
3.64693503116441e+15
3.63142203606331e+15
3.62002178997284e+15
3.60513070419451e+15
3.59442795898506e+15
3.58012408453494e+15
3.57008526088574e+15
3.55633525768974e+15
3.54692730410266e+15
3.53370152370995e+15
3.52489868495336e+15
3.51217155187828e+15
3.50394905124789e+15
3.49169480703716e+15
3.48402357913e+15
3.4722077117377e+15
3.46506205099693e+15
3.4536637275019e+15
3.44702446196161e+15
3.43602420053999e+15
3.42987238742363e+15
3.41923063001446e+15
3.41352822456662e+15
3.40322870157164e+15
3.3979512956188e+15
3.38794632846024e+15
3.38306131846976e+15
3.37300231372958e+15
3.3657129379718e+15
3.34705137263577e+15
)
;

boundaryField
{
    electrode
    {
        type            driftDiffusionPositiveIonDensity;
        seec            0;
        fieldName       Arp1;
        value           uniform 6.84180862295217e+16;
    }
    ground
    {
        type            driftDiffusionPositiveIonDensity;
        seec            0;
        fieldName       Arp1;
        value           uniform 3.34705137263577e+15;
    }
    otherfaces
    {
        type            empty;
    }
}


// ************************************************************************* //
