/*--------------------------------*- C++ -*----------------------------------*\
| =========                 |                                                 |
| \\      /  F ield         | foam-extend: Open Source CFD                    |
|  \\    /   O peration     | Version:     4.0                                |
|   \\  /    A nd           | Web:         http://www.foam-extend.org         |
|    \\/     M anipulation  |                                                 |
\*---------------------------------------------------------------------------*/
FoamFile
{
    version     2.0;
    format      ascii;
    class       volVectorField;
    location    "9.5e-06";
    object      E;
}
// * * * * * * * * * * * * * * * * * * * * * * * * * * * * * * * * * * * * * //

dimensions      [0 0 0 1 0 0 0];

internalField   nonuniform List<vector> 
300
(
(5.46481549179579 -0 -0)
(11.2711828370582 -0 -0)
(19.8065151654769 -0 -0)
(27.7358537303932 -0 -0)
(35.6218376421073 -0 -0)
(43.5761744063683 -0 -0)
(51.5238221796005 -0 -0)
(59.4861215535968 -0 -0)
(67.4640306244652 -0 -0)
(75.4577974521061 -0 -0)
(83.4696034623922 -0 -0)
(91.5009948102017 -0 -0)
(99.5535979403394 -0 -0)
(107.62907668854 -0 -0)
(115.729089590623 -0 -0)
(123.855310003863 -0 -0)
(132.009423475796 -0 -0)
(140.193128193857 -0 -0)
(148.408136167734 -0 -0)
(156.656173953825 -0 -0)
(164.938983462927 -0 -0)
(173.258322867799 -0 -0)
(181.615967465017 -0 -0)
(190.013710532623 -0 -0)
(198.453364333442 -0 -0)
(206.936760968608 -0 -0)
(215.465753430901 -0 -0)
(224.042216553924 -0 -0)
(232.668048057156 -0 -0)
(241.345169620102 -0 -0)
(250.075527927244 -0 -0)
(258.86109583784 -0 -0)
(267.70387351052 -0 -0)
(276.605889647259 -0 -0)
(285.56920266398 -0 -0)
(294.595902010394 -0 -0)
(303.688109509789 -0 -0)
(312.8479806671 -0 -0)
(322.077706109458 -0 -0)
(331.379513079965 -0 -0)
(340.755666899881 -0 -0)
(350.20847258819 -0 -0)
(359.740276467714 -0 -0)
(369.353467868855 -0 -0)
(379.050480861545 -0 -0)
(388.83379614861 -0 -0)
(398.705942861097 -0 -0)
(408.669500602572 -0 -0)
(418.727101513015 -0 -0)
(428.881432351561 -0 -0)
(439.13523670729 -0 -0)
(449.491317400284 -0 -0)
(459.952538797622 -0 -0)
(470.521829382168 -0 -0)
(481.202184353427 -0 -0)
(491.996668364096 -0 -0)
(502.908418355312 -0 -0)
(513.940646569617 -0 -0)
(525.096643628938 -0 -0)
(536.379781794546 -0 -0)
(547.793518383741 -0 -0)
(559.341399293421 -0 -0)
(571.027062701353 -0 -0)
(582.854243007304 -0 -0)
(594.826774856385 -0 -0)
(606.948597435601 -0 -0)
(619.223758918723 -0 -0)
(631.656421159904 -0 -0)
(644.25086459408 -0 -0)
(657.011493422682 -0 -0)
(669.942840973582 -0 -0)
(683.049575429882 -0 -0)
(696.336505765017 -0 -0)
(709.80858801042 -0 -0)
(723.470931858556 -0 -0)
(737.328807617967 -0 -0)
(751.387653455254 -0 -0)
(765.653083147149 -0 -0)
(780.130894126395 -0 -0)
(794.827076035068 -0 -0)
(809.747819700924 -0 -0)
(824.899526656681 -0 -0)
(840.288819125957 -0 -0)
(855.922550598104 -0 -0)
(871.807817025368 -0 -0)
(887.951968632322 -0 -0)
(904.362622351873 -0 -0)
(921.047675145426 -0 -0)
(938.01531791513 -0 -0)
(955.274050354431 -0 -0)
(972.832696724645 -0 -0)
(990.700422456667 -0 -0)
(1008.88675187437 -0 -0)
(1027.40158700192 -0 -0)
(1046.25522754205 -0 -0)
(1065.45839208005 -0 -0)
(1085.02224072116 -0 -0)
(1104.9583991366 -0 -0)
(1125.27898418491 -0 -0)
(1145.99663127446 -0 -0)
(1167.12452351818 -0 -0)
(1188.6764228379 -0 -0)
(1210.66670331777 -0 -0)
(1233.11038671667 -0 -0)
(1256.02318053765 -0 -0)
(1279.42151893779 -0 -0)
(1303.32260662146 -0 -0)
(1327.74446508234 -0 -0)
(1352.70598195249 -0 -0)
(1378.22696843454 -0 -0)
(1404.32822418337 -0 -0)
(1431.0315837528 -0 -0)
(1458.35994334845 -0 -0)
(1486.33740978413 -0 -0)
(1514.9896234483 -0 -0)
(1544.34349275392 -0 -0)
(1574.42585355261 -0 -0)
(1605.26513920276 -0 -0)
(1636.89907322457 -0 -0)
(1669.37194410066 -0 -0)
(1702.72423152004 -0 -0)
(1736.99388804869 -0 -0)
(1772.22075148794 -0 -0)
(1808.44715630562 -0 -0)
(1845.71803317314 -0 -0)
(1884.08112173792 -0 -0)
(1923.58719481744 -0 -0)
(1964.29030295088 -0 -0)
(2006.24804360415 -0 -0)
(2049.52185746144 -0 -0)
(2094.17735492725 -0 -0)
(2140.28467668427 -0 -0)
(2187.91889232709 -0 -0)
(2237.16044184346 -0 -0)
(2288.09562551499 -0 -0)
(2340.81714836233 -0 -0)
(2395.42472641276 -0 -0)
(2452.02576319602 -0 -0)
(2510.73610572111 -0 -0)
(2571.68089145918 -0 -0)
(2634.99549885021 -0 -0)
(2700.82661652823 -0 -0)
(2769.33344862617 -0 -0)
(2840.68907662919 -0 -0)
(2915.08200159107 -0 -0)
(2992.71789542888 -0 -0)
(3073.82159277534 -0 -0)
(3158.63936692947 -0 -0)
(3247.44152613378 -0 -0)
(3340.52540866162 -0 -0)
(3438.2187917074 -0 -0)
(3540.88390111593 -0 -0)
(3648.92189187899 -0 -0)
(3762.77836582794 -0 -0)
(3882.94917019674 -0 -0)
(4009.98836894608 -0 -0)
(4144.51531256834 -0 -0)
(4287.22711487612 -0 -0)
(4438.9059567972 -0 -0)
(4600.4403880034 -0 -0)
(4772.82989052073 -0 -0)
(4957.2236945813 -0 -0)
(5154.91661200931 -0 -0)
(5367.42839391283 -0 -0)
(5596.4799672354 -0 -0)
(5844.3560869944 -0 -0)
(6115.76900199377 -0 -0)
(6416.60166741186 -0 -0)
(6750.3320305022 -0 -0)
(7119.80325037305 -0 -0)
(7529.74923490442 -0 -0)
(7987.41947125132 -0 -0)
(8501.95957053901 -0 -0)
(9083.91765353603 -0 -0)
(9744.63463882199 -0 -0)
(10492.1179805587 -0 -0)
(11332.4954326142 -0 -0)
(12282.3691869624 -0 -0)
(13360.0556993299 -0 -0)
(14567.7626423561 -0 -0)
(15917.6674494961 -0 -0)
(17430.8953426276 -0 -0)
(19105.8416489338 -0 -0)
(20948.7291743215 -0 -0)
(22971.5533054506 -0 -0)
(25164.1805840819 -0 -0)
(27523.4723874707 -0 -0)
(30047.2001455241 -0 -0)
(32711.9381320318 -0 -0)
(35503.4547885339 -0 -0)
(38411.9335798088 -0 -0)
(41405.1508296498 -0 -0)
(44457.7091490709 -0 -0)
(47560.9689340361 -0 -0)
(50695.2807665948 -0 -0)
(53833.9413599981 -0 -0)
(56962.9089670515 -0 -0)
(60080.8282851437 -0 -0)
(63186.5375234281 -0 -0)
(66278.6158175437 -0 -0)
(69352.1697644295 -0 -0)
(72410.465503005 -0 -0)
(75479.0585084014 -0 -0)
(78571.1220278238 -0 -0)
(81680.0659899349 -0 -0)
(84793.8624593032 -0 -0)
(87897.9637826946 -0 -0)
(90980.7778628473 -0 -0)
(94035.572880914 -0 -0)
(97060.562907051 -0 -0)
(100056.272544693 -0 -0)
(103024.524538915 -0 -0)
(105967.788096305 -0 -0)
(108885.131700113 -0 -0)
(111771.744135585 -0 -0)
(114626.555348223 -0 -0)
(117452.333159644 -0 -0)
(120251.674508975 -0 -0)
(123027.004276698 -0 -0)
(125780.571907893 -0 -0)
(128514.482075744 -0 -0)
(131230.680002335 -0 -0)
(133930.970403015 -0 -0)
(136617.026579816 -0 -0)
(139290.417154637 -0 -0)
(141948.509486727 -0 -0)
(144587.811298377 -0 -0)
(147208.732385861 -0 -0)
(149812.503318328 -0 -0)
(152400.250454218 -0 -0)
(154973.027107512 -0 -0)
(157531.799658592 -0 -0)
(160077.477059698 -0 -0)
(162610.895526514 -0 -0)
(165132.847331595 -0 -0)
(167644.063295638 -0 -0)
(170145.242519563 -0 -0)
(172637.030056927 -0 -0)
(175120.051556937 -0 -0)
(177594.882310956 -0 -0)
(180062.088768868 -0 -0)
(182521.122182885 -0 -0)
(184969.236572374 -0 -0)
(187404.753793591 -0 -0)
(189828.166750474 -0 -0)
(192239.923803033 -0 -0)
(194640.469322863 -0 -0)
(197030.206988396 -0 -0)
(199409.542554295 -0 -0)
(201778.842959025 -0 -0)
(204138.480703809 -0 -0)
(206488.793180377 -0 -0)
(208830.124420199 -0 -0)
(211162.784454521 -0 -0)
(213487.093962962 -0 -0)
(215803.341331591 -0 -0)
(218111.826800353 -0 -0)
(220412.820177372 -0 -0)
(222706.605785249 -0 -0)
(224993.437465389 -0 -0)
(227273.585304689 -0 -0)
(229547.290559801 -0 -0)
(231814.811510695 -0 -0)
(234076.377988694 -0 -0)
(236332.153577208 -0 -0)
(238580.143574178 -0 -0)
(240818.776074523 -0 -0)
(243048.187629914 -0 -0)
(245268.623505593 -0 -0)
(247480.295271988 -0 -0)
(249683.436019909 -0 -0)
(251878.244614899 -0 -0)
(254064.942301475 -0 -0)
(256243.716393052 -0 -0)
(258414.777048359 -0 -0)
(260578.301223854 -0 -0)
(262734.488966901 -0 -0)
(264883.507152784 -0 -0)
(267025.54587837 -0 -0)
(269160.763084668 -0 -0)
(271289.341107064 -0 -0)
(273411.430194928 -0 -0)
(275527.205199474 -0 -0)
(277636.808561802 -0 -0)
(279740.406451141 -0 -0)
(281838.13094236 -0 -0)
(283930.140371316 -0 -0)
(286016.560634151 -0 -0)
(288097.544274207 -0 -0)
(290173.211150508 -0 -0)
(292243.708265043 -0 -0)
(294309.143519884 -0 -0)
(296369.652276692 -0 -0)
(298425.337688031 -0 -0)
(300476.327632636 -0 -0)
(302522.71060252 -0 -0)
(304564.604754819 -0 -0)
(306601.991890147 -0 -0)
(308634.154565827 -0 -0)
(310658.490769868 -0 -0)
)
;

boundaryField
{
    electrode
    {
        type            calculated;
        value           uniform (4.1667833079373 -0 -0);
    }
    ground
    {
        type            calculated;
        value           uniform (311667.84060031 -0 -0);
    }
    otherfaces
    {
        type            empty;
    }
}


// ************************************************************************* //
