/*--------------------------------*- C++ -*----------------------------------*\
| =========                 |                                                 |
| \\      /  F ield         | foam-extend: Open Source CFD                    |
|  \\    /   O peration     | Version:     4.0                                |
|   \\  /    A nd           | Web:         http://www.foam-extend.org         |
|    \\/     M anipulation  |                                                 |
\*---------------------------------------------------------------------------*/
FoamFile
{
    version     2.0;
    format      ascii;
    class       volScalarField;
    location    "9.5e-06";
    object      electron;
}
// * * * * * * * * * * * * * * * * * * * * * * * * * * * * * * * * * * * * * //

dimensions      [0 0 0 1 0 0 0];

internalField   nonuniform List<scalar> 
300
(
6.86132580255136e+16
6.86113152912507e+16
6.86063961415894e+16
6.85981085774532e+16
6.85865157410457e+16
6.85715928574251e+16
6.85533339702675e+16
6.85317386036162e+16
6.85068036513392e+16
6.84785265216644e+16
6.84469044681174e+16
6.84119345274516e+16
6.8373613588525e+16
6.83319383714063e+16
6.82869054297689e+16
6.82385111528424e+16
6.81867517658004e+16
6.81316233308918e+16
6.80731217485589e+16
6.80112427586261e+16
6.79459819415901e+16
6.78773347199909e+16
6.7805296359862e+16
6.77298619722735e+16
6.76510265149525e+16
6.75687847939874e+16
6.74831314656176e+16
6.73940610380983e+16
6.73015678736521e+16
6.72056461904955e+16
6.71062900649496e+16
6.70034934336282e+16
6.68972500957034e+16
6.67875537152443e+16
6.66743978236354e+16
6.65577758220731e+16
6.64376809841254e+16
6.63141064583709e+16
6.61870452711145e+16
6.60564903291635e+16
6.59224344226776e+16
6.57848702280883e+16
6.56437903110805e+16
6.54991871296418e+16
6.53510530371781e+16
6.51993802856836e+16
6.50441610289771e+16
6.48853873260017e+16
6.47230511441679e+16
6.45571443627585e+16
6.43876587763964e+16
6.42145860985518e+16
6.40379179651e+16
6.38576459379328e+16
6.36737615086086e+16
6.34862561020482e+16
6.32951210802732e+16
6.31003477461794e+16
6.29019273473447e+16
6.26998510798745e+16
6.24941100922712e+16
6.22846954893328e+16
6.20715983360832e+16
6.18548096617161e+16
6.16343204635577e+16
6.14101217110466e+16
6.11822043497231e+16
6.09505593052286e+16
6.07151774873099e+16
6.04760497938204e+16
6.023316711472e+16
5.9986520336068e+16
5.97361003440002e+16
5.94818980286957e+16
5.92239042883211e+16
5.89621100329433e+16
5.86965061884189e+16
5.84270837002435e+16
5.81538335373575e+16
5.7876746695908e+16
5.75958142029563e+16
5.73110271201233e+16
5.70223765471689e+16
5.67298536255014e+16
5.6433449541603e+16
5.6133155530364e+16
5.58289628783276e+16
5.55208629268249e+16
5.52088470749916e+16
5.48929067826725e+16
5.457303357318e+16
5.42492190359114e+16
5.39214548288168e+16
5.35897326806933e+16
5.32540443932969e+16
5.29143818432641e+16
5.2570736983823e+16
5.22231018462784e+16
5.18714685412583e+16
5.15158292597027e+16
5.11561762735701e+16
5.0792501936255e+16
5.04247986826794e+16
5.00530590290414e+16
4.96772755722056e+16
4.9297440988686e+16
4.89135480331773e+16
4.85255895366817e+16
4.81335584043072e+16
4.77374476122969e+16
4.73372502035427e+16
4.6932959283512e+16
4.65245680208771e+16
4.6112069643478e+16
4.56954574034043e+16
4.52747245527996e+16
4.484986447651e+16
4.44208707736937e+16
4.39877363481986e+16
4.35504520461914e+16
4.31090068238056e+16
4.26633889442946e+16
4.22135865691172e+16
4.17595878395634e+16
4.13013808810402e+16
4.08389537862544e+16
4.03722945910014e+16
3.99013912466069e+16
3.94262315896914e+16
3.89468033092167e+16
3.8463093910614e+16
3.79750906767272e+16
3.74827806252634e+16
3.69861504624262e+16
3.6485186532364e+16
3.59798747620309e+16
3.54702006010215e+16
3.49561489558873e+16
3.44377041184079e+16
3.39148496872376e+16
3.33875684822861e+16
3.2855842451148e+16
3.23196525668307e+16
3.17789787159781e+16
3.1233799576742e+16
3.06840924853541e+16
3.0129833290544e+16
2.95709961946275e+16
2.9007553580742e+16
2.84394758243829e+16
2.7866731090315e+16
2.72892851104503e+16
2.67071009497128e+16
2.61201387461441e+16
2.55283554519251e+16
2.49317045302707e+16
2.43301356949327e+16
2.37235945547405e+16
2.3112022404281e+16
2.24953558032959e+16
2.18735264907922e+16
2.12464607986091e+16
2.0614079445777e+16
1.99762954924439e+16
1.93330082712082e+16
1.86840853127474e+16
1.80292592198862e+16
1.7368028669459e+16
1.66997938341398e+16
1.60240522753076e+16
1.53404048035102e+16
1.46484590036556e+16
1.39477714833546e+16
1.32378783343584e+16
1.25184004066374e+16
1.17892971359908e+16
1.10511669865109e+16
1.03051487212702e+16
9.55278348884961e+15
8.79654895554269e+15
8.04006380278629e+15
7.28770358072904e+15
6.54487199892421e+15
5.81806927227375e+15
5.11434654705402e+15
4.44110957907729e+15
3.80588227017475e+15
3.21566655480073e+15
2.67648894584418e+15
2.19292841871829e+15
1.7676218064226e+15
1.40117344076259e+15
1.09218962500388e+15
837370821245591
631940107532948
469879348034564
344723132074955
250094277867009
179798940094316
128185387234224
89115994519052
60400698793621.7
40214221131422.3
25765826395906.6
15769713100900.9
9388914872743.93
5654050004397.02
3600136852590.94
2493542407850.48
1889642408646.82
1550848460270.97
1355694690724.9
1241491887069.42
1174736595596.2
1136712322813.28
1116401023152.89
1106919410759.17
1103794859883.76
1103995889750.34
1105925049773.4
1108287265289.56
1110156545319.35
1110960046239.8
1110418675188.17
1108260362837.33
1104360553320.06
1098676501425.25
1091225179453.24
1082064580677.56
1071282148282.5
1058985983070.16
1045298142548.23
1030349373615.35
1014274954855.51
997211392543.543
979293818219.172
960653737838.437
941417365301.512
921700352167.769
901602544402.608
881223397743.06
860665377215.094
840023541189.224
819385888459.347
798831996946.984
778432783890.096
758250764887.417
738340440490.958
718748754187.001
699515588022.918
680674282874.804
662252200503.467
644271372844.092
626749087000.951
609698003178.477
593128513461.869
577044503902.413
561443045012.684
546323542802.822
531684474047.752
517520034209.292
503822766815.191
490583693906.868
477792846426.561
465439690424.503
453513327532.522
442002733750.344
430896628145.483
420183390687.414
409851212940.896
399887656269.188
390280100501.471
381004724739.416
372037046675.897
363365159382.369
354980043084.852
346873940432.258
339039750016.064
331470991225.559
324161848190.608
317107223925.925
310302842211.769
303744616802.432
297428386582.921
291334175723.725
285429887582.357
279707345272.261
274180931930.075
268867599015.83
263785517533.265
258902989731.957
254200016465.494
249729213390.755
245520724881.857
241594856345.753
238042737589.732
234998767589.294
232738386662.211
231769364150.674
232928817615.619
)
;

boundaryField
{
    electrode
    {
        type            driftDiffusionElectronDensity;
        seec            0.05;
        Edepend         1;
        field_emission  0;
        field_enhancement_factor 55;
        work_function   5;
        value           uniform 6.86132580255136e+16;
    }
    ground
    {
        type            driftDiffusionElectronDensity;
        seec            0.05;
        Edepend         1;
        field_emission  0;
        field_enhancement_factor 55;
        work_function   5;
        value           uniform 235179307532.705;
    }
    otherfaces
    {
        type            empty;
    }
}


// ************************************************************************* //
