/*--------------------------------*- C++ -*----------------------------------*\
| =========                 |                                                 |
| \\      /  F ield         | foam-extend: Open Source CFD                    |
|  \\    /   O peration     | Version:     4.0                                |
|   \\  /    A nd           | Web:         http://www.foam-extend.org         |
|    \\/     M anipulation  |                                                 |
\*---------------------------------------------------------------------------*/
FoamFile
{
    version     2.0;
    format      ascii;
    class       volVectorField;
    location    "9.5e-06";
    object      J_electron;
}
// * * * * * * * * * * * * * * * * * * * * * * * * * * * * * * * * * * * * * //

dimensions      [1 -1 -1 0 0 0 0];

internalField   nonuniform List<vector> 
300
(
(-1.3434862782127e+19 0 0)
(-1.37910243715025e+19 0 0)
(-1.63081735303046e+19 0 0)
(-1.57971899999062e+19 0 0)
(-1.57896500125667e+19 0 0)
(-1.57748330683185e+19 0 0)
(-1.57052626061623e+19 0 0)
(-1.56526908905296e+19 0 0)
(-1.55976897728004e+19 0 0)
(-1.55419514737643e+19 0 0)
(-1.54865988229912e+19 0 0)
(-1.54311118665176e+19 0 0)
(-1.53755870036618e+19 0 0)
(-1.53200299906209e+19 0 0)
(-1.52644269471292e+19 0 0)
(-1.52087784406363e+19 0 0)
(-1.51530813712461e+19 0 0)
(-1.50973328432898e+19 0 0)
(-1.5041530180017e+19 0 0)
(-1.49856706951748e+19 0 0)
(-1.49297516575885e+19 0 0)
(-1.48737704252572e+19 0 0)
(-1.48177244108372e+19 0 0)
(-1.4761610936689e+19 0 0)
(-1.47054275235348e+19 0 0)
(-1.46491715585452e+19 0 0)
(-1.45928405903359e+19 0 0)
(-1.45364321322289e+19 0 0)
(-1.44799437383198e+19 0 0)
(-1.44233730561555e+19 0 0)
(-1.43667176751805e+19 0 0)
(-1.43099753141714e+19 0 0)
(-1.42531436551877e+19 0 0)
(-1.41962205003515e+19 0 0)
(-1.41392036165035e+19 0 0)
(-1.40820908345878e+19 0 0)
(-1.40248800781794e+19 0 0)
(-1.39675692576421e+19 0 0)
(-1.39101563227252e+19 0 0)
(-1.3852639338318e+19 0 0)
(-1.37950163242346e+19 0 0)
(-1.3737285411463e+19 0 0)
(-1.36794447498752e+19 0 0)
(-1.36214925759194e+19 0 0)
(-1.35634270755464e+19 0 0)
(-1.35052466455634e+19 0 0)
(-1.34469495795954e+19 0 0)
(-1.3388534264742e+19 0 0)
(-1.33299992048084e+19 0 0)
(-1.3271342913107e+19 0 0)
(-1.32125638679079e+19 0 0)
(-1.31536607670572e+19 0 0)
(-1.30946322176622e+19 0 0)
(-1.30354769516518e+19 0 0)
(-1.29761937274763e+19 0 0)
(-1.29167813806459e+19 0 0)
(-1.28572387514217e+19 0 0)
(-1.27975647802771e+19 0 0)
(-1.27377584317687e+19 0 0)
(-1.26778187159466e+19 0 0)
(-1.2617744724777e+19 0 0)
(-1.25575355958865e+19 0 0)
(-1.24971904613131e+19 0 0)
(-1.24367085823921e+19 0 0)
(-1.23760892011712e+19 0 0)
(-1.23153316588387e+19 0 0)
(-1.22544353107323e+19 0 0)
(-1.21933995737193e+19 0 0)
(-1.21322238727443e+19 0 0)
(-1.20709077457313e+19 0 0)
(-1.20094506888108e+19 0 0)
(-1.19478522960185e+19 0 0)
(-1.18861121824841e+19 0 0)
(-1.18242299911138e+19 0 0)
(-1.17622053679404e+19 0 0)
(-1.17000380708013e+19 0 0)
(-1.16377277788345e+19 0 0)
(-1.15752742802974e+19 0 0)
(-1.15126773371592e+19 0 0)
(-1.14499367534655e+19 0 0)
(-1.13870523108709e+19 0 0)
(-1.13240238469719e+19 0 0)
(-1.12608511740147e+19 0 0)
(-1.11975340878704e+19 0 0)
(-1.11340723967083e+19 0 0)
(-1.10704659353866e+19 0 0)
(-1.10067144034825e+19 0 0)
(-1.09428176108477e+19 0 0)
(-1.08787752498066e+19 0 0)
(-1.08145869584261e+19 0 0)
(-1.07502524137e+19 0 0)
(-1.06857711537546e+19 0 0)
(-1.06211426653328e+19 0 0)
(-1.05563663572816e+19 0 0)
(-1.04914415655154e+19 0 0)
(-1.04263674714003e+19 0 0)
(-1.03611431797176e+19 0 0)
(-1.02957676550868e+19 0 0)
(-1.02302396914488e+19 0 0)
(-1.01645579313113e+19 0 0)
(-1.00987208441224e+19 0 0)
(-1.00327266211914e+19 0 0)
(-9.9665733192956e+18 0 0)
(-9.90025869163391e+18 0 0)
(-9.83378015084977e+18 0 0)
(-9.76713477987185e+18 0 0)
(-9.70031970791771e+18 0 0)
(-9.63333180144222e+18 0 0)
(-9.56616553951291e+18 0 0)
(-9.49881360552926e+18 0 0)
(-9.43127860758027e+18 0 0)
(-9.36357239816402e+18 0 0)
(-9.29565358061099e+18 0 0)
(-9.22741093585283e+18 0 0)
(-9.1589925195177e+18 0 0)
(-9.09096543318809e+18 0 0)
(-9.02252566920351e+18 0 0)
(-8.94987039280044e+18 0 0)
(-8.87460649568462e+18 0 0)
(-8.80210220199811e+18 0 0)
(-8.73165944068191e+18 0 0)
(-8.66120086800564e+18 0 0)
(-8.59043046626899e+18 0 0)
(-8.51926229414996e+18 0 0)
(-8.44765610255948e+18 0 0)
(-8.37558551761492e+18 0 0)
(-8.30302508658249e+18 0 0)
(-8.22994729528197e+18 0 0)
(-8.15632177659904e+18 0 0)
(-8.08211491536031e+18 0 0)
(-8.00728933928167e+18 0 0)
(-7.93180359966536e+18 0 0)
(-7.85561171610462e+18 0 0)
(-7.77866259775147e+18 0 0)
(-7.70089955568386e+18 0 0)
(-7.62225959798886e+18 0 0)
(-7.54267264669031e+18 0 0)
(-7.46206087865487e+18 0 0)
(-7.38033756765107e+18 0 0)
(-7.29740620032429e+18 0 0)
(-7.21315915998272e+18 0 0)
(-7.12747640964724e+18 0 0)
(-7.0402238957895e+18 0 0)
(-6.95125188436872e+18 0 0)
(-6.86039258252182e+18 0 0)
(-6.76745879311666e+18 0 0)
(-6.67223901247373e+18 0 0)
(-6.574499664266e+18 0 0)
(-6.47397031798112e+18 0 0)
(-6.37036394933807e+18 0 0)
(-6.26332297254561e+18 0 0)
(-6.15251383554461e+18 0 0)
(-6.03742679193669e+18 0 0)
(-5.91774192007905e+18 0 0)
(-5.7926253888374e+18 0 0)
(-5.66199850895724e+18 0 0)
(-5.52424815308413e+18 0 0)
(-5.380159570179e+18 0 0)
(-5.22631353545418e+18 0 0)
(-5.06559340358612e+18 0 0)
(-4.89060393291245e+18 0 0)
(-4.70752946275484e+18 0 0)
(-4.49868669994087e+18 0 0)
(-4.25863900137364e+18 0 0)
(-3.93187275116433e+18 0 0)
(-3.17246918500968e+18 0 0)
(-2.30710931370384e+18 0 0)
(-2.06260311626246e+18 0 0)
(-2.01935654614047e+18 0 0)
(-1.72911986375498e+18 0 0)
(-1.13881582287926e+18 0 0)
(-4.337988285015e+17 0 0)
(2.06919355340947e+17 0 0)
(6.5121903015415e+17 0 0)
(3.7379262349679e+17 0 0)
(-3.56407483796816e+17 0 0)
(-2.21723635503596e+16 0 0)
(1.90871013042422e+17 0 0)
(-1.5739400506038e+18 0 0)
(-2.26067756194831e+18 0 0)
(-2.14984831925119e+18 0 0)
(-3.86724553672045e+18 0 0)
(-4.35085643272946e+18 0 0)
(-3.87301738905233e+18 0 0)
(-3.77278422168004e+18 0 0)
(-2.91819912211464e+18 0 0)
(-8.44426104515068e+17 0 0)
(1.18383317577263e+18 0 0)
(4.21549828459725e+18 0 0)
(7.48694272953339e+18 0 0)
(1.01072614919221e+19 0 0)
(1.23922425107972e+19 0 0)
(1.40620162723369e+19 0 0)
(1.42847455517383e+19 0 0)
(1.47612947659557e+19 0 0)
(1.24610094456555e+19 0 0)
(1.06083960555177e+19 0 0)
(8.62589427077808e+18 0 0)
(6.28642626907655e+18 0 0)
(9.0467380572179e+18 0 0)
(-4.83063606932557e+18 0 0)
(2.5047026449213e+18 0 0)
(-5.05139075501375e+17 0 0)
(-2.10392337355058e+18 0 0)
(-2.02300959476404e+18 0 0)
(-1.98634655357396e+18 0 0)
(-2.14212288735187e+18 0 0)
(-2.44622963820464e+18 0 0)
(-2.71723059451723e+18 0 0)
(-2.88379023325401e+18 0 0)
(-2.96015377461288e+18 0 0)
(-2.98331273797671e+18 0 0)
(-2.97453636704282e+18 0 0)
(-2.95172506705535e+18 0 0)
(-2.91769494420638e+18 0 0)
(-2.88396770689168e+18 0 0)
(-2.84384338753785e+18 0 0)
(-2.79949656709959e+18 0 0)
(-2.75347496960861e+18 0 0)
(-2.70746983684719e+18 0 0)
(-2.66193445715644e+18 0 0)
(-2.61492578869245e+18 0 0)
(-2.568030409335e+18 0 0)
(-2.52118322818088e+18 0 0)
(-2.47379929075303e+18 0 0)
(-2.42640719931973e+18 0 0)
(-2.37905804153086e+18 0 0)
(-2.3318872575809e+18 0 0)
(-2.28498731668592e+18 0 0)
(-2.23844581483844e+18 0 0)
(-2.19234146504308e+18 0 0)
(-2.14674601907251e+18 0 0)
(-2.10172435683431e+18 0 0)
(-2.05733419869313e+18 0 0)
(-2.01362701658978e+18 0 0)
(-1.97064476152493e+18 0 0)
(-1.92842956172803e+18 0 0)
(-1.88696474856032e+18 0 0)
(-1.84631903072771e+18 0 0)
(-1.80670265570071e+18 0 0)
(-1.7678164867401e+18 0 0)
(-1.72982296479788e+18 0 0)
(-1.69270131652957e+18 0 0)
(-1.65646223263517e+18 0 0)
(-1.62111001159816e+18 0 0)
(-1.5866414992113e+18 0 0)
(-1.55305050106081e+18 0 0)
(-1.52032772126787e+18 0 0)
(-1.48846175258544e+18 0 0)
(-1.45743899442002e+18 0 0)
(-1.42724469460886e+18 0 0)
(-1.39786284644749e+18 0 0)
(-1.36927876887491e+18 0 0)
(-1.34147038047746e+18 0 0)
(-1.31444624189874e+18 0 0)
(-1.28807935000852e+18 0 0)
(-1.26249690174253e+18 0 0)
(-1.23764607598014e+18 0 0)
(-1.21339131771793e+18 0 0)
(-1.18982084541067e+18 0 0)
(-1.16687760788987e+18 0 0)
(-1.14454709229326e+18 0 0)
(-1.1228078592294e+18 0 0)
(-1.10164196761462e+18 0 0)
(-1.08103459274818e+18 0 0)
(-1.06096432023929e+18 0 0)
(-1.04141226297118e+18 0 0)
(-1.0223628369489e+18 0 0)
(-1.00380030510021e+18 0 0)
(-9.85700536488718e+17 0 0)
(-9.6806556733221e+17 0 0)
(-9.50732651893277e+17 0 0)
(-9.34074496649569e+17 0 0)
(-9.17728640239461e+17 0 0)
(-9.01768661849244e+17 0 0)
(-8.8618775657961e+17 0 0)
(-8.70980093130542e+17 0 0)
(-8.56134468887949e+17 0 0)
(-8.41640136207422e+17 0 0)
(-8.27485699728691e+17 0 0)
(-8.13661264859885e+17 0 0)
(-8.00148078195533e+17 0 0)
(-7.86947707484767e+17 0 0)
(-7.73890075552302e+17 0 0)
(-7.61340587706799e+17 0 0)
(-7.49239913676085e+17 0 0)
(-7.37271928959163e+17 0 0)
(-7.25570619386079e+17 0 0)
(-7.14161501342971e+17 0 0)
(-7.02601978447508e+17 0 0)
(-6.92240966564017e+17 0 0)
(-6.81762975621558e+17 0 0)
(-6.71261832859315e+17 0 0)
(-6.61470630757176e+17 0 0)
(-6.52118891287441e+17 0 0)
(-6.42796296752059e+17 0 0)
(-6.34593522460342e+17 0 0)
(-6.2728459371726e+17 0 0)
(-6.20867332304121e+17 0 0)
(-6.09831339447176e+17 0 0)
)
;

boundaryField
{
    electrode
    {
        type            calculated;
        value           uniform (-1.60703034541551e+19 0 0);
    }
    ground
    {
        type            calculated;
        value           uniform (-6.07168476116194e+17 0 0);
    }
    otherfaces
    {
        type            empty;
    }
}


// ************************************************************************* //
