/*--------------------------------*- C++ -*----------------------------------*\
| =========                 |                                                 |
| \\      /  F ield         | foam-extend: Open Source CFD                    |
|  \\    /   O peration     | Version:     4.0                                |
|   \\  /    A nd           | Web:         http://www.foam-extend.org         |
|    \\/     M anipulation  |                                                 |
\*---------------------------------------------------------------------------*/
FoamFile
{
    version     2.0;
    format      ascii;
    class       volScalarField;
    location    "9.5e-06";
    object      N_electronMean;
}
// * * * * * * * * * * * * * * * * * * * * * * * * * * * * * * * * * * * * * //

dimensions      [0 0 0 1 0 0 0];

internalField   nonuniform List<scalar> 
300
(
6.24048209668258e+16
6.24032415835301e+16
6.23989937358783e+16
6.2391634274044e+16
6.23812084547339e+16
6.23676841563073e+16
6.23510461274831e+16
6.23312867651959e+16
6.23083979844601e+16
6.22823736919367e+16
6.22532091628285e+16
6.22209008734068e+16
6.2185446436031e+16
6.21468444863815e+16
6.21050946129784e+16
6.20601972868002e+16
6.2012153800828e+16
6.1960966218331e+16
6.19066373225744e+16
6.18491705692007e+16
6.17885700441713e+16
6.17248404239404e+16
6.16579869370488e+16
6.15880153248172e+16
6.15149318126575e+16
6.1438743087583e+16
6.1359456257056e+16
6.12770788080671e+16
6.11916185737732e+16
6.1103083688546e+16
6.10114825589067e+16
6.09168238557787e+16
6.08191164736081e+16
6.07183694645801e+16
6.0614591991385e+16
6.05077932894683e+16
6.03979826298957e+16
6.02851692853717e+16
6.01693624930831e+16
6.00505714170086e+16
5.99288051170615e+16
5.98040725176943e+16
5.96763823705612e+16
5.95457432204598e+16
5.94121633760292e+16
5.92756508812458e+16
5.91362134889665e+16
5.89938586374714e+16
5.88485934325926e+16
5.87004246352514e+16
5.85493586620375e+16
5.83954015864063e+16
5.82385591192911e+16
5.80788365723158e+16
5.79162388048229e+16
5.77507701693843e+16
5.75824344652709e+16
5.74112349022318e+16
5.72371740730511e+16
5.70602539270474e+16
5.68804757464335e+16
5.66978401244795e+16
5.65123469412069e+16
5.63239953589527e+16
5.61327838418461e+16
5.59387101329789e+16
5.5741771191877e+16
5.554196315784e+16
5.53392813330644e+16
5.5133720165633e+16
5.49252732324446e+16
5.47139332326442e+16
5.44996920009089e+16
5.42825404995023e+16
5.40624687858378e+16
5.38394660158845e+16
5.36135204609241e+16
5.33846194924638e+16
5.31527495369917e+16
5.29178960488372e+16
5.26800435086283e+16
5.24391753764946e+16
5.21952740471424e+16
5.19483208362307e+16
5.16982959757412e+16
5.14451786243907e+16
5.11889468486356e+16
5.09295775796668e+16
5.066704659612e+16
5.0401328525348e+16
5.01323968284163e+16
4.98602238135238e+16
4.95847806573222e+16
4.93060373514373e+16
4.90239626523511e+16
4.87385240711476e+16
4.84496878628835e+16
4.81574190165301e+16
4.78616812452429e+16
4.75624369845758e+16
4.72596473900588e+16
4.69532723192448e+16
4.66432703367988e+16
4.6329598734058e+16
4.60122135057199e+16
4.56910693360559e+16
4.5366119601398e+16
4.50373163634488e+16
4.47046103749748e+16
4.43679510661214e+16
4.40272865236911e+16
4.36825634875751e+16
4.33337273555624e+16
4.29807222008299e+16
4.26234907770766e+16
4.2261974523753e+16
4.18961136057508e+16
4.15258469302479e+16
4.11511121208803e+16
4.07718455118132e+16
4.03879821912288e+16
3.99994560494115e+16
3.96061998104053e+16
3.92081450679158e+16
3.88052222771743e+16
3.83973607159476e+16
3.79844884916113e+16
3.75665325669475e+16
3.7143418758577e+16
3.67150717422981e+16
3.62814150776999e+16
3.58423712314063e+16
3.53978615921694e+16
3.49478064832267e+16
3.44921252197991e+16
3.40307361783915e+16
3.3563556791451e+16
3.30905035083919e+16
3.26114917925712e+16
3.21264361428599e+16
3.16352500911841e+16
3.11378461935291e+16
3.06341360343526e+16
3.01240302383214e+16
2.96074385218173e+16
2.90842697310319e+16
2.85544318111453e+16
2.80178317605831e+16
2.74743755796282e+16
2.692396826315e+16
2.63665138399616e+16
2.58019153453257e+16
2.52300748022274e+16
2.46508932486854e+16
2.40642706994167e+16
2.34701061777142e+16
2.28682977879843e+16
2.22587428546907e+16
2.16413378582172e+16
2.10159780292258e+16
2.03825554035412e+16
1.97409476112232e+16
1.90910016632629e+16
1.84325263756495e+16
1.776529103227e+16
1.70890116255947e+16
1.64033278208628e+16
1.57078287699144e+16
1.50021215363772e+16
1.42858672078463e+16
1.35587991494604e+16
1.28207812368073e+16
1.20719179057617e+16
1.13126989721594e+16
1.05442149644273e+16
9.76840116662525e+15
8.98815885090485e+15
8.20743946113556e+15
7.43138200737824e+15
6.66631100875581e+15
5.91951458967805e+15
5.1989475340366e+15
4.51280671647134e+15
3.86892608633875e+15
3.27419849790525e+15
2.73405003091796e+15
2.2519879390753e+15
1.82941068152118e+15
1.4656403220269e+15
1.1581092987057e+15
902733894731139
694388734258775
527357223014727
395735511690870
293494151531504
215180100227844
156106867970715
112147481381353
79746175954891.2
55886001597349
38376054146734.4
25886919201050.9
17130801412584.6
11076780094740.2
7113620396781.68
4697868616510.28
3313320866971.48
2543497243531.82
2112987156011.37
1864962098421.31
1716414306621.78
1623900389314.56
1564015471179.83
1523672468127.25
1495225043336.58
1473978165790.81
1456899118075.42
1441980262442.95
1427937309291.65
1414006442840.7
1399604512330.16
1384330745612.91
1367983004376.97
1350449847007.69
1331691333615.55
1311726846351.98
1290615642783.44
1268443306605.86
1245312497123.43
1221336360801.96
1196633584675.42
1171325130193.56
1145530854912.34
1119367571247.72
1092947586677.73
1066377216895.37
1039755859941.93
1013175710960.06
986720794556.151
960464817605.425
934472848581.677
908804331839.511
883513475472.947
858648901460.04
834253105744.984
810362225928.51
787005598972.744
764206618607.14
741983264048.668
720348747516.758
699312722061.576
678881269624.681
659056850905.683
639838675062.746
621223263753.868
603206020938.557
585778574324.14
568927950943.021
552642542630.758
536911436489.765
521721673941.66
507059007730.034
492908588123.863
479255072569.87
466082917448.859
453376683889.608
441120377784.364
429297769629.945
417892930848.736
406889892927.633
396272246977.769
386022967494.834
376124305480.561
366561695969.383
357324205358.725
348401814398.989
339785256436.003
331465812743.466
323435500356.447
315687110131.014
308214134937.925
301010262350.168
294068643792.285
287374515593.707
280902195590.843
274636406216.626
268581539462.844
262748581210.298
257149570798.781
251779791298.823
246612263480.263
241651702877.066
236943829390.621
232495902512.533
228334234289.144
224542911225.151
221248636505.938
218712722642.49
217373658815.088
218001818250.537
)
;

boundaryField
{
    electrode
    {
        type            calculated;
        value           uniform 6.24048209669505e+16;
    }
    ground
    {
        type            calculated;
        value           uniform 219851623017.702;
    }
    otherfaces
    {
        type            empty;
    }
}


// ************************************************************************* //
