/*--------------------------------*- C++ -*----------------------------------*\
| =========                 |                                                 |
| \\      /  F ield         | foam-extend: Open Source CFD                    |
|  \\    /   O peration     | Version:     4.0                                |
|   \\  /    A nd           | Web:         http://www.foam-extend.org         |
|    \\/     M anipulation  |                                                 |
\*---------------------------------------------------------------------------*/
FoamFile
{
    version     2.0;
    format      ascii;
    class       volScalarField;
    location    "9.5e-06";
    object      Phi;
}
// * * * * * * * * * * * * * * * * * * * * * * * * * * * * * * * * * * * * * //

dimensions      [0 0 0 1 0 0 0];

internalField   nonuniform List<scalar> 
300
(
699.999930553612
699.999705125356
699.999179141422
699.998384691011
699.997330084507
699.996009901836
699.994425006213
699.992574980357
699.990459264777
699.988077378315
699.985428744946
699.982512738084
699.979328678626
699.975875831555
699.972153406847
699.968160558915
699.96389638618
699.959359930683
699.954550177634
699.949466054939
699.944106432704
699.938470122708
699.932555877846
699.926362391544
699.919888297143
699.913132167255
699.906092513079
699.898767783693
699.891156365308
699.883256580489
699.875066687334
699.866584878627
699.857809280945
699.848737953726
699.839368888302
699.829700006882
699.819729161501
699.809454132915
699.798872629456
699.78798228584
699.776780661918
699.76526524138
699.753433430412
699.741282556282
699.728809865888
699.716012524225
699.702887612811
699.689432128034
699.675642979437
699.661516987933
699.647050883948
699.632241305486
699.617084796121
699.6015778029
699.585716674162
699.569497657276
699.552916896271
699.535970429385
699.5186541865
699.500963986477
699.48289553438
699.464444418585
699.445606107761
699.426375947738
699.406749158227
699.386720829414
699.366285918398
699.345439245486
699.324175490321
699.302489187846
699.280374724093
699.257826331781
699.234838085731
699.211403898064
699.187517513197
699.163172502606
699.138362259356
699.113079992376
699.087318720479
699.061071266101
699.034330248744
699.007088078121
698.979336946967
698.951068823512
698.922275443593
698.892948302377
698.863078645685
698.832657460887
698.801675467342
698.770123106359
698.737990530651
698.705267593244
698.671943835821
698.638008476453
698.603450396687
698.56825812795
698.532419837215
698.495923311902
698.45875594394
698.420904712956
698.382356168521
698.343096411389
698.303111073665
698.262385297834
698.220903714551
698.178650419131
698.135608946622
698.091762245357
698.04709264895
698.00158184656
697.955210851054
697.907959964948
697.859808745471
697.810735968724
697.760719584818
697.709736660494
697.657763351968
697.604774936924
697.550745676021
697.495648332043
697.439454213081
697.382133383275
697.323654620544
697.263985333176
697.20309147679
697.140937464298
697.077486068674
697.012698317977
696.946533381811
696.878948448403
696.809898591314
696.739336624741
696.667212946201
696.593475365253
696.518068916745
696.440935656885
696.362014440188
696.281240675124
696.198546055975
696.113858268076
696.027100663211
695.938191901486
695.847045555442
695.753569671577
695.657666283667
695.559230871471
695.458151757305
695.354309431953
695.24757579951
695.137813330211
695.024874105599
694.908598744097
694.788815178858
694.665337284638
694.537963287803
694.406474006625
694.270630729873
694.130172985787
693.984815588881
693.834245922001
693.678119563014
693.516057262633
693.347637983375
693.172396155166
692.989809423781
692.799297490683
692.600185684649
692.391579557217
692.172412240154
691.94155742185
691.69775869013
691.439574139523
691.165264058713
690.87277683482
690.559669548478
690.223134525565
689.86019501644
689.467634830057
689.041370403976
688.576964450102
688.070186227819
687.515786620135
686.908126538311
686.24206384354
685.511544593356
684.71062695651
683.833932554417
682.875728797345
681.830785878049
680.694932921876
679.463888892147
678.134137349889
676.703545503504
675.170290073284
673.532814241235
671.790604688844
669.943884817235
667.993077424374
665.938496264892
663.780641589479
661.519921877056
659.157163605184
656.692557510189
654.12522637129
651.454482708334
648.679888638628
645.80155854438
642.820024386448
639.736173353524
636.550986194387
633.26546915972
629.88056802474
626.397167523793
622.816048818321
619.138158743786
615.364599209282
611.496388387238
607.534443665305
603.479610086639
599.332643380193
595.094238626113
590.765011241809
586.345526625958
581.836279881607
577.23772485397
572.550252071298
567.774490888188
562.911064651406
557.960575395798
552.923564430185
547.800558698849
542.592029289684
537.29843872161
531.920197485703
526.457712353176
520.91134099693
515.2814414668
509.568324828959
503.772306129672
497.893654725163
491.932647308942
485.889515473906
479.764572496749
473.558233035748
467.270922243843
460.903021919049
454.454927323642
447.926990630857
441.319580191082
434.633021127238
427.867657327147
421.023789080317
414.101737781788
407.101780785638
400.024218818153
392.869307854772
385.637329396048
378.328519401415
370.943141384223
363.481412349065
355.94357888653
348.329839995422
340.640426182543
332.875519228041
325.035334316631
317.120042322894
309.129991411684
301.06545725126
292.926778903024
284.71421568422
276.428092551558
268.068653282892
259.63620957723
251.130990462791
242.553295151026
233.903338659569
225.181408402771
216.387706061776
207.522507925919
198.586003003219
189.578457053608
180.500046929413
171.351028373946
162.131566582782
152.841907803159
143.482206152707
134.052699073668
124.553530127952
114.984928364726
105.347027176337
95.640047621356
85.8641132920029
76.0194380533654
66.1061364735558
56.1244155408308
46.0743812980484
35.9562348339961
25.7700743143931
15.5161020413177
5.19446401000351
)
;

boundaryField
{
    electrode
    {
        type            fixedValue;
        value           uniform 700;
    }
    ground
    {
        type            fixedValue;
        value           uniform 0;
    }
    otherfaces
    {
        type            empty;
    }
}


// ************************************************************************* //
