/*--------------------------------*- C++ -*----------------------------------*\
| =========                 |                                                 |
| \\      /  F ield         | foam-extend: Open Source CFD                    |
|  \\    /   O peration     | Version:     4.0                                |
|   \\  /    A nd           | Web:         http://www.foam-extend.org         |
|    \\/     M anipulation  |                                                 |
\*---------------------------------------------------------------------------*/
FoamFile
{
    version     2.0;
    format      ascii;
    class       volScalarField;
    location    "9.5e-06";
    object      Sy_electron;
}
// * * * * * * * * * * * * * * * * * * * * * * * * * * * * * * * * * * * * * //

dimensions      [1 -3 -1 0 0 0 0];

internalField   nonuniform List<scalar> 
300
(
3.06989688866659e-09
3.07054566536564e-09
3.07076638390314e-09
3.07065595571369e-09
3.07055123605809e-09
3.07038528172934e-09
3.07016587527201e-09
3.06989782918827e-09
3.06957890168607e-09
3.06920921663428e-09
3.06878851149879e-09
3.06831642733468e-09
3.06779264786576e-09
3.06721682874828e-09
3.06658861218285e-09
3.06590762757143e-09
3.06517348998184e-09
3.06438580054628e-09
3.0635441463101e-09
3.06264810012213e-09
3.06169722055857e-09
3.06069105182498e-09
3.05962912366389e-09
3.05851095125559e-09
3.05733603509512e-09
3.05610386096396e-09
3.05481389975856e-09
3.05346560740263e-09
3.05205842476239e-09
3.05059177750266e-09
3.04906507595488e-09
3.04747771507553e-09
3.04582907430535e-09
3.04411851740335e-09
3.04234539233964e-09
3.04050903118601e-09
3.03860874995693e-09
3.03664384849699e-09
3.03461361034127e-09
3.03251730255628e-09
3.03035417559954e-09
3.02812346317064e-09
3.0258243820472e-09
3.02345613192834e-09
3.02101789526811e-09
3.01850883709425e-09
3.01592810483678e-09
3.01327482814696e-09
3.0105481186856e-09
3.00774706995447e-09
3.00487075706402e-09
3.00191823658539e-09
2.99888854625633e-09
2.9957807048243e-09
2.99259371175948e-09
2.98932654703627e-09
2.98597817085645e-09
2.9825475233998e-09
2.97903352455313e-09
2.97543507363259e-09
2.9717510490942e-09
2.96798030821731e-09
2.96412168679216e-09
2.96017399877332e-09
2.95613603599342e-09
2.9520065678091e-09
2.94778434065945e-09
2.94346807771678e-09
2.93905647848611e-09
2.93454821838757e-09
2.92994194831778e-09
2.92523629419125e-09
2.92042985647776e-09
2.9155212097269e-09
2.91050890199946e-09
2.90539145438063e-09
2.90016736041876e-09
2.89483508550267e-09
2.88939306630868e-09
2.88383971004945e-09
2.87817339397833e-09
2.87239246454993e-09
2.86649523672529e-09
2.86047999322858e-09
2.85434498371691e-09
2.84808842399929e-09
2.8417084951383e-09
2.83520334251462e-09
2.82857107485626e-09
2.82180976329335e-09
2.81491744025217e-09
2.80789209830828e-09
2.80073168923626e-09
2.79343412257351e-09
2.78599726441653e-09
2.77841893608113e-09
2.77069691270374e-09
2.76282892175667e-09
2.7548126414847e-09
2.74664569930572e-09
2.73832567007499e-09
2.72985007427083e-09
2.7212163760517e-09
2.71242198137445e-09
2.70346423575693e-09
2.69434042211959e-09
2.68504775840943e-09
2.67558339495446e-09
2.6659444122523e-09
2.65612781870769e-09
2.6461305461515e-09
2.63594944336786e-09
2.62558128023292e-09
2.61502276502079e-09
2.60427050719513e-09
2.59332089615287e-09
2.5821702655612e-09
2.57081564955542e-09
2.55970202426391e-09
2.55022225128823e-09
2.54054548126289e-09
2.5306666233428e-09
2.52058091378374e-09
2.51028351014854e-09
2.49976943229704e-09
2.48903354141662e-09
2.47807052721064e-09
2.46687489772178e-09
2.45544096894034e-09
2.4437628540035e-09
2.43183445159468e-09
2.41964943357221e-09
2.40720123166841e-09
2.3944830231962e-09
2.38148771574722e-09
2.36820793081223e-09
2.35463598597702e-09
2.34076387583836e-09
2.32658325149598e-09
2.31208539842075e-09
2.29726121247504e-09
2.28210117411074e-09
2.26659532043378e-09
2.25073321501231e-09
2.23450391525106e-09
2.21789593693025e-09
2.20089721599932e-09
2.18349506653172e-09
2.16567613669572e-09
2.14742635760632e-09
2.1287308948014e-09
2.10957408174478e-09
2.08993937399928e-09
2.06980925011389e-09
2.04916519538713e-09
2.02798751890176e-09
2.00625544518484e-09
1.98394672864634e-09
1.9610380189532e-09
1.93750408514258e-09
1.91331880332657e-09
1.88845399859662e-09
1.86288237539313e-09
1.83658119040919e-09
1.80954428003681e-09
1.78189570701857e-09
1.75376304200739e-09
1.72489555620833e-09
1.69685691079402e-09
1.66759459407354e-09
1.6372080977699e-09
1.60575214188296e-09
1.57312571053047e-09
1.53907770225577e-09
1.50304444677479e-09
1.46430836022934e-09
1.42298797078836e-09
1.37947040707487e-09
1.33265520893704e-09
1.28198613584975e-09
1.22860002296796e-09
1.17053865138097e-09
1.10753070259312e-09
1.04349774501732e-09
9.7978197060435e-10
9.17826457967215e-10
8.60750356697003e-10
8.0659833594744e-10
7.60385391798586e-10
7.31950919975433e-10
7.10737472571641e-10
7.13125686446921e-10
7.35709839479468e-10
7.84730603597311e-10
8.68093012113716e-10
1.0087182847311e-09
1.22928833967718e-09
1.59449682079328e-09
2.21346685013548e-09
3.32402935563019e-09
4.66282237797871e-09
5.85377659559881e-09
7.13404310878078e-09
7.34689018206214e-09
6.53905793101825e-09
5.26534311240535e-09
3.96688353229594e-09
2.98896123194584e-09
2.3147872961456e-09
1.89020145301041e-09
1.63033958787239e-09
1.47215789491019e-09
1.37628653000451e-09
1.32199434517367e-09
1.29571897191652e-09
1.2804557243996e-09
1.276395743931e-09
1.27875149942114e-09
1.28424815107658e-09
1.29117992161029e-09
1.29813533891281e-09
1.30274157872668e-09
1.30530523445323e-09
1.30614415320547e-09
1.30495494167632e-09
1.30160419806834e-09
1.29605157373146e-09
1.28832512686782e-09
1.27849977241585e-09
1.26668407959167e-09
1.25301017982694e-09
1.23762606563083e-09
1.22068952151437e-09
1.20236332583123e-09
1.18281143036309e-09
1.16219595147276e-09
1.14067455061255e-09
1.11839856178537e-09
1.09550667652477e-09
1.07211837497759e-09
1.04835286645055e-09
1.02433324218858e-09
1.00017360888764e-09
9.75979724049892e-10
9.51847332034505e-10
9.27861887296166e-10
9.04098865061238e-10
8.8062421798674e-10
8.57494916105419e-10
8.34759531528689e-10
8.12458851314358e-10
7.90567211374883e-10
7.69102503082017e-10
7.48185181991042e-10
7.27830361145836e-10
7.08050446175742e-10
6.88850075943387e-10
6.70225753387711e-10
6.52176769318613e-10
6.34701305412287e-10
6.17792432363298e-10
6.0144124900502e-10
5.85611203676896e-10
5.70191917964434e-10
5.55275030193574e-10
5.40848233409126e-10
5.26899035493775e-10
5.13414595312543e-10
5.00381619940939e-10
4.87786557033044e-10
4.75615044942105e-10
4.638526372126e-10
4.52471301837736e-10
4.41442181703836e-10
4.30751625515608e-10
4.20389205468794e-10
4.10345916383021e-10
4.00613458230406e-10
3.91184195656409e-10
3.82051203278598e-10
3.73208318817625e-10
3.64650261283147e-10
3.56371859999327e-10
3.48003285926481e-10
3.39576197781942e-10
3.31352807666955e-10
3.23322769197172e-10
3.15501394281928e-10
3.07905707233459e-10
3.00516500502108e-10
2.92061477363902e-10
2.83775449983416e-10
2.75710982851354e-10
2.6717597344255e-10
2.57380721160988e-10
2.47907857785724e-10
2.3558917726381e-10
2.22080212600627e-10
2.04869277619107e-10
1.80016507504252e-10
)
;

boundaryField
{
    electrode
    {
        type            zeroGradient;
    }
    ground
    {
        type            zeroGradient;
    }
    otherfaces
    {
        type            empty;
    }
}


// ************************************************************************* //
