/*--------------------------------*- C++ -*----------------------------------*\
| =========                 |                                                 |
| \\      /  F ield         | foam-extend: Open Source CFD                    |
|  \\    /   O peration     | Version:     4.0                                |
|   \\  /    A nd           | Web:         http://www.foam-extend.org         |
|    \\/     M anipulation  |                                                 |
\*---------------------------------------------------------------------------*/
FoamFile
{
    version     2.0;
    format      ascii;
    class       volScalarField;
    location    "9.5e-06";
    object      Te;
}
// * * * * * * * * * * * * * * * * * * * * * * * * * * * * * * * * * * * * * //

dimensions      [0 0 0 1 0 0 0];

internalField   nonuniform List<scalar> 
300
(
40031.9549153062
40032.2337363233
40032.4007956704
40032.4995151714
40032.6564853671
40032.846786587
40033.0735026102
40033.3385064596
40033.6410498785
40033.9812798667
40034.3592070913
40034.7748168684
40035.2281207666
40035.7191301915
40036.2478619412
40036.8143384834
40037.4185874315
40038.0606417408
40038.7405397119
40039.4583250084
40040.2140466904
40041.0077592471
40041.8395226281
40042.7094022849
40043.6174692115
40044.5637999884
40045.5484768327
40046.5715876474
40047.6332260789
40048.7334915738
40049.8724894424
40051.0503309253
40052.2671332635
40053.5230197711
40054.8181199136
40056.1525693931
40057.5265102302
40058.940090856
40060.3934662101
40061.8867978373
40063.4202539928
40064.9940097535
40066.6082471302
40068.2631551876
40069.9589301714
40071.6957756364
40073.4739025825
40075.2935296019
40077.1548830223
40079.058197061
40081.0037139916
40082.9916843089
40085.0223669029
40087.0960292447
40089.2129475745
40091.3734070998
40093.5777022038
40095.8261366593
40098.1190238525
40100.4566870184
40102.8394594819
40105.2676849105
40107.7417175809
40110.2619226529
40112.8286764553
40115.4423667854
40118.1033932189
40120.8121674352
40123.5691135567
40126.3746684994
40129.2292823416
40132.1334187086
40135.0875551702
40138.0921836607
40141.1478109162
40144.2549589266
40147.4141654137
40150.6259843278
40153.8909863656
40157.2097595138
40160.582909617
40164.0110609711
40167.4948569432
40171.0349606238
40174.6320555083
40178.2868462063
40182.0000591938
40185.7724435957
40189.6047720043
40193.497841348
40197.452473792
40201.4695176886
40205.5498485798
40209.6943702464
40213.9040158115
40218.1797489042
40222.5225648841
40226.9334921288
40231.413593394
40235.9639672473
40240.5857495784
40245.2801151989
40250.0482795291
40254.8915003777
40259.8110798361
40264.8083662819
40269.8847564697
40275.0416977374
40280.2806905184
40285.6032911124
40291.0111137192
40296.5058317862
40302.0891841575
40307.7629875309
40313.5291259141
40319.3895020369
40325.3461120881
40331.4013919249
40337.5580492213
40343.8183494825
40350.1842946338
40356.6581989405
40363.2426725748
40369.940470964
40376.7544814247
40383.6877257802
40390.7433671007
40397.9247183712
40405.2352521729
40412.6786112433
40420.2586199708
40427.9792969101
40435.8448684189
40443.8597835527
40452.0287303557
40460.3566537089
40468.8487749305
40477.5106133253
40486.348009937
40495.3671537826
40504.5746108803
40513.9773564509
40523.5828107167
40533.3988787872
40543.4339952462
40553.6971740222
40564.1980645478
40574.9470146564
40585.9551423495
40597.2344155284
40608.7977457422
40620.6590886764
40632.8335713539
40645.337614508
40658.1891173079
40671.407590366
40685.0144520865
40699.0331324707
40713.4895877027
40728.4123066975
40743.8332618664
40759.7878714665
40776.3171877522
40793.4708373104
40811.3151367353
40829.9996227974
40849.6984304303
40870.3964181942
40892.0083678203
40914.6270432686
40938.4762508658
40963.7861056106
40990.7351423831
41019.4518557573
41049.9052126249
41081.972247547
41116.058084971
41152.7939158055
41191.8489275192
41233.1984495039
41278.0263446825
41326.5127477862
41378.9567351816
41437.4145993516
41503.6690036867
41579.8826883392
41670.4989049218
41781.2948824813
41920.3476254471
42100.3000181766
42337.24696981
42653.4076069622
43081.6536259662
43666.3463779893
44475.198989818
45599.3027681229
47159.4562719164
49365.3828957217
52517.0352191583
57196.6236867174
63292.7535745213
71185.8737902088
83945.5602890068
101611.55380119
125995.104522922
159985.911024617
205633.090401954
262793.493604211
328064.25813355
396212.362286414
462438.68322577
523595.291194955
578239.299552654
626162.40198983
667834.596433087
703927.839800017
735192.666932638
762469.783117277
786455.914038639
807697.154692452
826611.855244181
843568.1072338
858888.137203022
872820.614593294
885579.048123077
897343.139411031
908256.991919348
918439.9747292
927990.500012693
936990.086845602
945506.227501219
953594.707853193
961301.449435187
968664.001254722
975712.74684581
982471.928521397
988960.412521695
995193.055627586
1001180.39186802
1006925.10178889
1012429.06167506
1017694.81657633
1022720.14200039
1027500.77194048
1032030.07926001
1036299.40096784
1040298.30479657
1044014.77190179
1047435.35990548
1050545.346573
1053328.85437835
1055768.95448428
1057847.62464946
1059545.91166435
1060843.60159517
1061720.94821804
1062146.57801509
1062121.79709793
1061612.67725754
1060598.63883586
1059056.76552737
1056964.71071773
1054299.72662061
1051038.73564395
1047157.93241316
1042633.10669703
1037439.80886734
1031553.18425014
1024947.85183275
1017598.16989992
1009477.59497688
1000563.58180236
990826.778750916
980235.61547354
968765.361856843
956385.907429291
943065.200945769
928769.245401182
913462.097574257
897105.629104624
879659.194526701
861079.594141629
841320.131890014
820336.917607069
798079.79279625
774484.960546995
749489.033186188
723019.351418162
694984.651730752
665301.475358736
633860.701986078
600526.189948114
565160.123848842
527574.323702582
487533.007152414
444747.005078195
398819.160890404
349180.087056491
295007.083264258
235221.431269855
)
;

boundaryField
{
    electrode
    {
        type            electronTemperature;
        seec            0.05;
        Tse             1000;
        Edepend         1;
        TFN             1000;
        field_emission  0;
        field_enhancement_factor 55;
        work_function   5;
        value           uniform 40031.9549153062;
    }
    ground
    {
        type            electronTemperature;
        seec            0.05;
        Tse             1000;
        Edepend         1;
        TFN             1000;
        field_emission  0;
        field_enhancement_factor 55;
        work_function   5;
        value           uniform 201322.49999756;
    }
    otherfaces
    {
        type            empty;
    }
}


// ************************************************************************* //
