/*--------------------------------*- C++ -*----------------------------------*\
| =========                 |                                                 |
| \\      /  F ield         | foam-extend: Open Source CFD                    |
|  \\    /   O peration     | Version:     4.0                                |
|   \\  /    A nd           | Web:         http://www.foam-extend.org         |
|    \\/     M anipulation  |                                                 |
\*---------------------------------------------------------------------------*/
FoamFile
{
    version     2.0;
    format      ascii;
    class       volScalarField;
    location    "9.5e-06";
    object      TeMean;
}
// * * * * * * * * * * * * * * * * * * * * * * * * * * * * * * * * * * * * * //

dimensions      [0 0 0 1 0 0 0];

internalField   nonuniform List<scalar> 
300
(
36845.5148372661
36845.8058456868
36845.948304915
36845.9795918772
36846.0428371585
36846.1159158395
36846.2018299579
36846.303068552
36846.4194133845
36846.5513557862
36846.699280017
36846.8635399224
36847.0444930538
36847.2424754193
36847.4578148468
36847.6908300823
36847.941829729
36848.2111155176
36848.4989820046
36848.8057164552
36849.1316007278
36849.4769098749
36849.8419137679
36850.2268766286
36850.6320567689
36851.0577140271
36851.5041048719
36851.9714806442
36852.4600933687
36852.9701879606
36853.502001382
36854.0557791883
36854.6317739196
36855.2302319231
36855.8513971663
36856.4955085842
36857.1628055125
36857.8535337091
36858.5679395261
36859.3062669279
36860.0687588745
36860.8556650134
36861.6672362481
36862.5037229149
36863.3653772156
36864.2524531086
36865.1652060745
36866.1038925655
36867.0687679239
36868.0600863989
36869.0781013771
36870.1230753725
36871.1952857075
36872.2950122731
36873.4225408751
36874.5781673595
36875.7621870819
36876.9748963615
36878.2166013374
36879.4876138585
36880.7882505662
36882.1188391504
36883.4797021879
36884.8711641904
36886.2935755467
36887.7473026916
36889.2327158
36890.7501903102
36892.3001096314
36893.8828686607
36895.4988685668
36897.1485111363
36898.8322165038
36900.5504208738
36902.3035623805
36904.0920830487
36905.9164478704
36907.777150183
36909.6746861667
36911.6095592281
36913.5823034734
36915.5934703913
36917.6436145067
36919.7332988305
36921.8631018842
36924.0336334115
36926.2455317999
36928.4994459367
36930.7960373462
36933.1359938998
36935.5200155305
36937.9488226269
36940.4231892392
36942.9439025849
36945.5117664784
36948.1276252118
36950.7923448057
36953.5068210048
36956.271976615
36959.0887683491
36961.958198026
36964.8812832051
36967.8590758955
36970.8926894594
36973.9832737526
36977.1320158725
36980.3401437502
36983.6089330755
36986.9397169277
36990.3338779222
36993.7928527627
36997.3181332017
37000.9112647478
37004.5738696268
37008.3076290208
37012.1142844205
37015.9956481823
37019.9536235883
37023.9902055514
37028.1074454316
37032.3074841976
37036.5925713714
37040.9650557263
37045.4274063177
37049.9822234311
37054.6322182186
37059.3802152102
37064.2291907126
37069.18227954
37074.2427587461
37079.4140713598
37084.699854185
37090.1039468043
37095.6303683928
37101.2833549549
37107.0674296616
37112.9873909979
37119.0483121529
37125.2555746803
37131.6149027416
37138.1323928637
37144.8145402122
37151.6682736421
37158.7009912937
37165.9206352081
37173.3357665894
37180.9556103638
37188.7901293955
37196.8500580711
37205.1470214333
37213.6937068375
37222.5039262585
37231.592766991
37240.9768303457
37250.6743342358
37260.7054144064
37271.0923842647
37281.8602875461
37293.0374992848
37304.6573839304
37316.7661953318
37329.4217317941
37342.6811628417
37356.603116992
37371.2667988983
37386.7745871187
37403.2049607993
37420.6132983729
37439.1026719829
37458.8174367894
37479.8865457177
37502.4271849688
37526.5681712647
37552.3624539942
37579.815561715
37609.1374001035
37640.6164274019
37674.4317450938
37711.0429502895
37751.3951148342
37796.8139850126
37849.4961462104
37913.0751941921
37992.8548709254
38096.8899897112
38237.3442669597
38431.7126960585
38705.7482113959
39097.9503408328
39665.8043337155
40496.7846746693
41728.0125083378
43579.2420972628
46465.6827289913
50814.2652861292
56935.5258490405
65812.2568101925
77976.0871850152
94394.5965076247
115450.493168665
141202.445905752
171547.278637441
206290.23406781
244807.568892458
287180.558522508
333492.638295163
383273.631035581
435061.302126315
486628.155490538
535779.783759391
580988.018920474
621550.720216232
657403.36514379
688880.676187458
716490.701839156
740747.809372543
762173.505588741
781251.782837366
798375.793752728
813862.625947004
827961.997048608
840883.319620687
852811.589031755
863897.587954233
874266.86451333
884021.928194835
893247.022923007
902011.493187164
910372.256103132
918375.949094779
926060.558332393
933456.740039486
940588.887652138
947475.954234116
954132.20129172
960567.836152676
966789.489113678
972800.630908097
978602.277444152
984192.168392831
989565.355911219
994715.71013199
999635.420924668
1004315.24494672
1008744.53006519
1012911.32514741
1016802.36642577
1020403.35988241
1023699.18755135
1026673.76305948
1029310.58951609
1031592.68179609
1033502.29981783
1035021.2112193
1036130.40263903
1036810.73333799
1037036.29605763
1036800.25366301
1036079.09160151
1034851.01912615
1033095.35601225
1030791.45460911
1027918.51223495
1024455.46647162
1020380.94085083
1015673.49910774
1010311.16006081
1004271.44860011
997531.968358692
990069.834231067
981861.726985515
972883.858757546
963110.511217261
952515.834281553
941073.7988642
928755.878524438
915532.119934363
901370.851484684
886238.564865068
870099.640642845
852916.162052549
834647.771507608
815253.868405703
794691.134287638
772906.120145477
749841.913714903
725437.126520928
699616.858365621
672301.809563128
643406.891322698
612823.646222016
580426.290092036
546078.643616709
509596.353506701
470754.888831854
429273.28526378
384758.407346449
336663.403080093
284191.965062662
226295.587561399
)
;

boundaryField
{
    electrode
    {
        type            calculated;
        value           uniform 36845.5148372673;
    }
    ground
    {
        type            calculated;
        value           uniform 193463.792857643;
    }
    otherfaces
    {
        type            empty;
    }
}


// ************************************************************************* //
