/*--------------------------------*- C++ -*----------------------------------*\
| =========                 |                                                 |
| \\      /  F ield         | foam-extend: Open Source CFD                    |
|  \\    /   O peration     | Version:     4.0                                |
|   \\  /    A nd           | Web:         http://www.foam-extend.org         |
|    \\/     M anipulation  |                                                 |
\*---------------------------------------------------------------------------*/
FoamFile
{
    version     2.0;
    format      ascii;
    class       volVectorField;
    location    "7.2e-06";
    object      E;
}
// * * * * * * * * * * * * * * * * * * * * * * * * * * * * * * * * * * * * * //

dimensions      [0 0 0 1 0 0 0];

internalField   nonuniform List<vector> 
300
(
(5.41616986676763 -0 -0)
(10.876373730817 -0 -0)
(19.1835058255263 -0 -0)
(26.8685933793592 -0 -0)
(34.5081635849668 -0 -0)
(42.2150986750807 -0 -0)
(49.9154549027386 -0 -0)
(57.6308147454118 -0 -0)
(65.3620105914306 -0 -0)
(73.1094142725215 -0 -0)
(80.87526142536 -0 -0)
(88.6611600761653 -0 -0)
(96.468804398898 -0 -0)
(104.299925283988 -0 -0)
(112.156250794971 -0 -0)
(120.039525744465 -0 -0)
(127.951509266974 -0 -0)
(135.893975372616 -0 -0)
(143.868714254371 -0 -0)
(151.877533183239 -0 -0)
(159.92225734507 -0 -0)
(168.004730918826 -0 -0)
(176.126817959251 -0 -0)
(184.290403437705 -0 -0)
(192.497394228832 -0 -0)
(200.749720113964 -0 -0)
(209.04933485111 -0 -0)
(217.398217211564 -0 -0)
(225.798372049941 -0 -0)
(234.251831399137 -0 -0)
(242.76065564435 -0 -0)
(251.326934605449 -0 -0)
(259.952788732335 -0 -0)
(268.640370336443 -0 -0)
(277.391864773823 -0 -0)
(286.20949174832 -0 -0)
(295.095506584771 -0 -0)
(304.052201570364 -0 -0)
(313.081907332734 -0 -0)
(322.186994283801 -0 -0)
(331.369874015319 -0 -0)
(340.633000864323 -0 -0)
(349.978873419344 -0 -0)
(359.410036199144 -0 -0)
(368.929081230631 -0 -0)
(378.538649833988 -0 -0)
(388.24143439301 -0 -0)
(398.040180224529 -0 -0)
(407.937687479973 -0 -0)
(417.936813153136 -0 -0)
(428.040473203539 -0 -0)
(438.251644686902 -0 -0)
(448.573368029469 -0 -0)
(459.008749371983 -0 -0)
(469.560963070649 -0 -0)
(480.233254225488 -0 -0)
(491.028941361541 -0 -0)
(501.951419271168 -0 -0)
(513.004161954609 -0 -0)
(524.190725621816 -0 -0)
(535.514752013407 -0 -0)
(546.979971699391 -0 -0)
(558.590207672189 -0 -0)
(570.349379025503 -0 -0)
(582.2615048569 -0 -0)
(594.330708414472 -0 -0)
(606.561221346072 -0 -0)
(618.95738821803 -0 -0)
(631.523671332293 -0 -0)
(644.264655716491 -0 -0)
(657.185054358948 -0 -0)
(670.289713800084 -0 -0)
(683.583619992611 -0 -0)
(697.071904444261 -0 -0)
(710.759850758374 -0 -0)
(724.652901455747 -0 -0)
(738.756665095849 -0 -0)
(753.076923916477 -0 -0)
(767.619642475034 -0 -0)
(782.39097698452 -0 -0)
(797.397282599565 -0 -0)
(812.645115470883 -0 -0)
(828.141242273209 -0 -0)
(843.892687479945 -0 -0)
(859.90679804257 -0 -0)
(876.191154289093 -0 -0)
(892.753154914482 -0 -0)
(909.59989139947 -0 -0)
(926.740176519593 -0 -0)
(944.187765243668 -0 -0)
(961.95778485779 -0 -0)
(980.061883448601 -0 -0)
(998.509991893922 -0 -0)
(1017.31222949413 -0 -0)
(1036.47913284162 -0 -0)
(1056.02167719969 -0 -0)
(1075.95131050171 -0 -0)
(1096.27998091088 -0 -0)
(1117.02016471909 -0 -0)
(1138.18489562861 -0 -0)
(1159.78779610925 -0 -0)
(1181.8431107384 -0 -0)
(1204.36574212329 -0 -0)
(1227.3712892569 -0 -0)
(1250.87608870573 -0 -0)
(1274.89725886288 -0 -0)
(1299.45274736758 -0 -0)
(1324.56138214761 -0 -0)
(1350.24292635551 -0 -0)
(1376.51813741618 -0 -0)
(1403.40883068037 -0 -0)
(1430.93794809524 -0 -0)
(1459.12963231934 -0 -0)
(1488.00930667173 -0 -0)
(1517.60376178743 -0 -0)
(1547.94124922999 -0 -0)
(1579.0515829896 -0 -0)
(1610.96624962401 -0 -0)
(1643.71852773815 -0 -0)
(1677.34361794253 -0 -0)
(1711.87878429421 -0 -0)
(1747.36350832364 -0 -0)
(1783.83965717968 -0 -0)
(1821.35166719049 -0 -0)
(1859.9467447238 -0 -0)
(1899.67508607857 -0 -0)
(1940.59011869879 -0 -0)
(1982.74876607968 -0 -0)
(2026.21173913418 -0 -0)
(2071.04385714802 -0 -0)
(2117.31440190556 -0 -0)
(2165.09750896062 -0 -0)
(2214.47260080081 -0 -0)
(2265.52486709784 -0 -0)
(2318.34579807353 -0 -0)
(2373.03377819704 -0 -0)
(2429.69474779176 -0 -0)
(2488.44294229333 -0 -0)
(2549.40171946938 -0 -0)
(2612.70448724207 -0 -0)
(2678.49574643342 -0 -0)
(2746.93226530206 -0 -0)
(2818.18440514779 -0 -0)
(2892.43762075818 -0 -0)
(2969.89416216392 -0 -0)
(3050.77500847927 -0 -0)
(3135.32206959903 -0 -0)
(3223.800717882 -0 -0)
(3316.50267507916 -0 -0)
(3413.7492526332 -0 -0)
(3515.89536316155 -0 -0)
(3623.33383602038 -0 -0)
(3736.50018241113 -0 -0)
(3855.87886461741 -0 -0)
(3982.01261008958 -0 -0)
(4115.50261242191 -0 -0)
(4257.02615068948 -0 -0)
(4407.3623245605 -0 -0)
(4567.39526556079 -0 -0)
(4738.10596011617 -0 -0)
(4920.60595634237 -0 -0)
(5116.17148947398 -0 -0)
(5326.23783647877 -0 -0)
(5552.55090779771 -0 -0)
(5797.06030092367 -0 -0)
(6063.89005053161 -0 -0)
(6359.31134356237 -0 -0)
(6687.14156130342 -0 -0)
(7049.81747772714 -0 -0)
(7451.6108314423 -0 -0)
(7899.16422732133 -0 -0)
(8401.34197257164 -0 -0)
(8968.12740613053 -0 -0)
(9610.62852902997 -0 -0)
(10338.1639909843 -0 -0)
(11154.9334700524 -0 -0)
(12074.916695831 -0 -0)
(13119.5362535571 -0 -0)
(14290.0509003828 -0 -0)
(15594.0825162722 -0 -0)
(17057.0222723131 -0 -0)
(18677.0025594273 -0 -0)
(20455.5013666703 -0 -0)
(22411.2435717469 -0 -0)
(24532.7820257082 -0 -0)
(26812.3160113833 -0 -0)
(29256.9111761967 -0 -0)
(31843.3841735663 -0 -0)
(34551.4184685796 -0 -0)
(37379.1805551682 -0 -0)
(40298.0795287262 -0 -0)
(43277.4899248615 -0 -0)
(46307.0175414629 -0 -0)
(49376.7463305102 -0 -0)
(52459.3955298147 -0 -0)
(55533.5896987983 -0 -0)
(58596.9393693212 -0 -0)
(61648.536980042 -0 -0)
(64691.5409025658 -0 -0)
(67721.7866809608 -0 -0)
(70735.3176423194 -0 -0)
(73752.8716109622 -0 -0)
(76791.6235904787 -0 -0)
(79853.0034681157 -0 -0)
(82928.8245209281 -0 -0)
(86001.1935020478 -0 -0)
(89057.4371232343 -0 -0)
(92087.9895086526 -0 -0)
(95089.5008788626 -0 -0)
(98061.576335324 -0 -0)
(101005.430879613 -0 -0)
(103923.182961358 -0 -0)
(106817.426475385 -0 -0)
(109685.123125084 -0 -0)
(112521.724135604 -0 -0)
(115328.233341725 -0 -0)
(118107.287789764 -0 -0)
(120861.347679359 -0 -0)
(123592.706708705 -0 -0)
(126303.488964977 -0 -0)
(128995.678638402 -0 -0)
(131671.109497726 -0 -0)
(134331.489794254 -0 -0)
(136978.404761809 -0 -0)
(139613.341585114 -0 -0)
(142233.115787835 -0 -0)
(144834.321183228 -0 -0)
(147417.891325221 -0 -0)
(149984.990635379 -0 -0)
(152536.682643993 -0 -0)
(155073.966220486 -0 -0)
(157597.756474174 -0 -0)
(160108.917560385 -0 -0)
(162608.242025422 -0 -0)
(165096.480865417 -0 -0)
(167574.324876144 -0 -0)
(170042.434682039 -0 -0)
(172501.422281478 -0 -0)
(174951.878086912 -0 -0)
(177394.352637092 -0 -0)
(179829.381117503 -0 -0)
(182256.760454966 -0 -0)
(184673.794777957 -0 -0)
(187078.516394662 -0 -0)
(189471.38930995 -0 -0)
(191852.842842638 -0 -0)
(194223.293801504 -0 -0)
(196583.129856054 -0 -0)
(198932.729893686 -0 -0)
(201272.447613268 -0 -0)
(203602.630407337 -0 -0)
(205923.604120347 -0 -0)
(208235.691577856 -0 -0)
(210539.197580754 -0 -0)
(212834.425550957 -0 -0)
(215121.661182302 -0 -0)
(217401.189258148 -0 -0)
(219673.276687158 -0 -0)
(221938.190682229 -0 -0)
(224196.181940982 -0 -0)
(226447.503214856 -0 -0)
(228692.393541083 -0 -0)
(230931.09454794 -0 -0)
(233163.835976575 -0 -0)
(235390.848964545 -0 -0)
(237611.07631239 -0 -0)
(239822.711686226 -0 -0)
(242025.202634054 -0 -0)
(244218.777026423 -0 -0)
(246403.650271499 -0 -0)
(248580.037677942 -0 -0)
(250748.143392519 -0 -0)
(252908.171118598 -0 -0)
(255060.313760656 -0 -0)
(257204.763551041 -0 -0)
(259341.701685357 -0 -0)
(261471.310110892 -0 -0)
(263593.760071834 -0 -0)
(265709.225692862 -0 -0)
(267817.870250948 -0 -0)
(269919.861846579 -0 -0)
(272015.357079729 -0 -0)
(274104.517763718 -0 -0)
(276187.494301499 -0 -0)
(278264.439316954 -0 -0)
(280335.493065055 -0 -0)
(282400.799326042 -0 -0)
(284460.491578803 -0 -0)
(286514.706044036 -0 -0)
(288563.570620423 -0 -0)
(290607.215247026 -0 -0)
(292645.757125424 -0 -0)
(294679.316310871 -0 -0)
(296708.006708059 -0 -0)
(298731.940462614 -0 -0)
(300751.21751696 -0 -0)
(302765.940955889 -0 -0)
(304776.191435807 -0 -0)
(306782.056739251 -0 -0)
(308780.982346834 -0 -0)
)
;

boundaryField
{
    electrode
    {
        type            calculated;
        value           uniform (4.35755058788346 -0 -0);
    }
    ground
    {
        type            calculated;
        value           uniform (309777.874729599 -0 -0);
    }
    otherfaces
    {
        type            empty;
    }
}


// ************************************************************************* //
