/*--------------------------------*- C++ -*----------------------------------*\
| =========                 |                                                 |
| \\      /  F ield         | foam-extend: Open Source CFD                    |
|  \\    /   O peration     | Version:     4.0                                |
|   \\  /    A nd           | Web:         http://www.foam-extend.org         |
|    \\/     M anipulation  |                                                 |
\*---------------------------------------------------------------------------*/
FoamFile
{
    version     2.0;
    format      ascii;
    class       volVectorField;
    location    "7.2e-06";
    object      J_Arp1;
}
// * * * * * * * * * * * * * * * * * * * * * * * * * * * * * * * * * * * * * //

dimensions      [1 -1 -1 0 0 0 0];

internalField   nonuniform List<vector> 
300
(
(1.96330881403613e+16 -0 -0)
(7.05947848102745e+16 -0 -0)
(1.26131407486122e+17 -0 -0)
(1.75390736443782e+17 -0 -0)
(2.25358340765154e+17 -0 -0)
(2.75630994704445e+17 -0 -0)
(3.25773509751792e+17 -0 -0)
(3.75975105443544e+17 -0 -0)
(4.26207404509993e+17 -0 -0)
(4.7647019754482e+17 -0 -0)
(5.26771025874119e+17 -0 -0)
(5.77112353694262e+17 -0 -0)
(6.27497823724543e+17 -0 -0)
(6.77931057186096e+17 -0 -0)
(7.28415569972278e+17 -0 -0)
(7.78954899069827e+17 -0 -0)
(8.29552563216596e+17 -0 -0)
(8.80212065144562e+17 -0 -0)
(9.30936892453926e+17 -0 -0)
(9.81730516102182e+17 -0 -0)
(1.03259638868607e+18 -0 -0)
(1.08353794398055e+18 -0 -0)
(1.13455859513281e+18 -0 -0)
(1.18566173365555e+18 -0 -0)
(1.23685072790418e+18 -0 -0)
(1.28812892153108e+18 -0 -0)
(1.33949963210885e+18 -0 -0)
(1.3909661493568e+18 -0 -0)
(1.44253173341497e+18 -0 -0)
(1.49419961301257e+18 -0 -0)
(1.54597298389608e+18 -0 -0)
(1.59785500650049e+18 -0 -0)
(1.64984880404691e+18 -0 -0)
(1.70195746058104e+18 -0 -0)
(1.75418401850698e+18 -0 -0)
(1.80653147654264e+18 -0 -0)
(1.8590027871861e+18 -0 -0)
(1.9116008543631e+18 -0 -0)
(1.96432853092331e+18 -0 -0)
(2.01718861622039e+18 -0 -0)
(2.0701838531041e+18 -0 -0)
(2.12331692553719e+18 -0 -0)
(2.17659045548828e+18 -0 -0)
(2.23000700054214e+18 -0 -0)
(2.28356905041993e+18 -0 -0)
(2.33727902436445e+18 -0 -0)
(2.39113926803858e+18 -0 -0)
(2.44515205049372e+18 -0 -0)
(2.49931956087382e+18 -0 -0)
(2.55364390531671e+18 -0 -0)
(2.60812710393746e+18 -0 -0)
(2.66277108734734e+18 -0 -0)
(2.71757769349603e+18 -0 -0)
(2.77254866426856e+18 -0 -0)
(2.82768564240614e+18 -0 -0)
(2.88299016797123e+18 -0 -0)
(2.93846367498968e+18 -0 -0)
(2.99410748830544e+18 -0 -0)
(3.04992282032518e+18 -0 -0)
(3.10591076725454e+18 -0 -0)
(3.16207230638213e+18 -0 -0)
(3.21840829241065e+18 -0 -0)
(3.27491945450131e+18 -0 -0)
(3.33160639286609e+18 -0 -0)
(3.38846957568293e+18 -0 -0)
(3.44550933625946e+18 -0 -0)
(3.50272586967988e+18 -0 -0)
(3.56011922984608e+18 -0 -0)
(3.61768932687865e+18 -0 -0)
(3.67543592418608e+18 -0 -0)
(3.73335863557377e+18 -0 -0)
(3.79145692279007e+18 -0 -0)
(3.84973009302818e+18 -0 -0)
(3.9081772964072e+18 -0 -0)
(3.96679752383885e+18 -0 -0)
(4.02558960459834e+18 -0 -0)
(4.08455220356673e+18 -0 -0)
(4.14368381914313e+18 -0 -0)
(4.20298278445726e+18 -0 -0)
(4.26244727123933e+18 -0 -0)
(4.32207527997289e+18 -0 -0)
(4.38186459263557e+18 -0 -0)
(4.44181275955863e+18 -0 -0)
(4.50191730621833e+18 -0 -0)
(4.5621760706604e+18 -0 -0)
(4.62258670567917e+18 -0 -0)
(4.68314419585972e+18 -0 -0)
(4.74383956397899e+18 -0 -0)
(4.804670938746e+18 -0 -0)
(4.86566478398705e+18 -0 -0)
(4.92684689934218e+18 -0 -0)
(4.98822137034917e+18 -0 -0)
(5.04978352115048e+18 -0 -0)
(5.11152774351039e+18 -0 -0)
(5.17344810753718e+18 -0 -0)
(5.23553849829414e+18 -0 -0)
(5.29779268265801e+18 -0 -0)
(5.36020432185049e+18 -0 -0)
(5.42276697351771e+18 -0 -0)
(5.48547409020933e+18 -0 -0)
(5.54831901790626e+18 -0 -0)
(5.61129499354683e+18 -0 -0)
(5.67439514362311e+18 -0 -0)
(5.73761248236321e+18 -0 -0)
(5.80093991021324e+18 -0 -0)
(5.86437021264665e+18 -0 -0)
(5.92789605869655e+18 -0 -0)
(5.99150999986431e+18 -0 -0)
(6.05520446922057e+18 -0 -0)
(6.11897178029276e+18 -0 -0)
(6.18280412607208e+18 -0 -0)
(6.24669357817167e+18 -0 -0)
(6.31063208609101e+18 -0 -0)
(6.37461147591482e+18 -0 -0)
(6.43862344980281e+18 -0 -0)
(6.50265958478932e+18 -0 -0)
(6.5667113317051e+18 -0 -0)
(6.63077001419979e+18 -0 -0)
(6.6948268272978e+18 -0 -0)
(6.75887283599977e+18 -0 -0)
(6.82289897380231e+18 -0 -0)
(6.88689604071705e+18 -0 -0)
(6.9508547014106e+18 -0 -0)
(7.01476548272688e+18 -0 -0)
(7.07861877130624e+18 -0 -0)
(7.14240481047109e+18 -0 -0)
(7.20611369696517e+18 -0 -0)
(7.26973537731252e+18 -0 -0)
(7.3332596436198e+18 -0 -0)
(7.39667612896099e+18 -0 -0)
(7.4599743023344e+18 -0 -0)
(7.52314346281526e+18 -0 -0)
(7.58617273335444e+18 -0 -0)
(7.64905105387634e+18 -0 -0)
(7.71176717340673e+18 -0 -0)
(7.77430964208337e+18 -0 -0)
(7.83666680166087e+18 -0 -0)
(7.8988267757609e+18 -0 -0)
(7.96077745890643e+18 -0 -0)
(8.02250650493399e+18 -0 -0)
(8.08400131405259e+18 -0 -0)
(8.14524902003077e+18 -0 -0)
(8.20623647329252e+18 -0 -0)
(8.26695022877576e+18 -0 -0)
(8.32737652716757e+18 -0 -0)
(8.38750128019783e+18 -0 -0)
(8.44731002411548e+18 -0 -0)
(8.50678797097636e+18 -0 -0)
(8.56592002866282e+18 -0 -0)
(8.62469011065233e+18 -0 -0)
(8.68308293448296e+18 -0 -0)
(8.74108171585987e+18 -0 -0)
(8.79866912902693e+18 -0 -0)
(8.85582420495416e+18 -0 -0)
(8.91254677257326e+18 -0 -0)
(8.96878227806609e+18 -0 -0)
(9.02453447787927e+18 -0 -0)
(9.07982429884336e+18 -0 -0)
(9.13468542255994e+18 -0 -0)
(9.18904248933506e+18 -0 -0)
(9.24291460529079e+18 -0 -0)
(9.29631960954002e+18 -0 -0)
(9.34896542734495e+18 -0 -0)
(9.4016582359933e+18 -0 -0)
(9.45214102277784e+18 -0 -0)
(9.50513121576457e+18 -0 -0)
(9.55512147030791e+18 -0 -0)
(9.6049084556815e+18 -0 -0)
(9.6546216005417e+18 -0 -0)
(9.70269863129226e+18 -0 -0)
(9.7515315221418e+18 -0 -0)
(9.79851562269046e+18 -0 -0)
(9.84557962893974e+18 -0 -0)
(9.89230193512663e+18 -0 -0)
(9.93714164369161e+18 -0 -0)
(9.97764518440221e+18 -0 -0)
(1.00272587150492e+19 -0 -0)
(1.00677155674042e+19 -0 -0)
(1.01040729386256e+19 -0 -0)
(1.01495971628864e+19 -0 -0)
(1.01869857511873e+19 -0 -0)
(1.02158876707272e+19 -0 -0)
(1.02623569808979e+19 -0 -0)
(1.02855165686373e+19 -0 -0)
(1.03151889420851e+19 -0 -0)
(1.03520928918589e+19 -0 -0)
(1.03740429641125e+19 -0 -0)
(1.03972732280477e+19 -0 -0)
(1.04292764073018e+19 -0 -0)
(1.04498756107896e+19 -0 -0)
(1.04728136940963e+19 -0 -0)
(1.04990872049834e+19 -0 -0)
(1.05233728221015e+19 -0 -0)
(1.05546337563222e+19 -0 -0)
(1.05773001431438e+19 -0 -0)
(1.06263958243959e+19 -0 -0)
(1.0660575943412e+19 -0 -0)
(1.07367648559341e+19 -0 -0)
(1.08074446645066e+19 -0 -0)
(1.09564786429374e+19 -0 -0)
(1.11215705576796e+19 -0 -0)
(1.13712974241986e+19 -0 -0)
(1.16279893199314e+19 -0 -0)
(1.1919667858435e+19 -0 -0)
(1.21070999087382e+19 -0 -0)
(1.23180884901153e+19 -0 -0)
(1.24598751668774e+19 -0 -0)
(1.25637015029625e+19 -0 -0)
(1.26450889596794e+19 -0 -0)
(1.27112542933991e+19 -0 -0)
(1.27687618063525e+19 -0 -0)
(1.28202913151638e+19 -0 -0)
(1.28695814590469e+19 -0 -0)
(1.29147613545005e+19 -0 -0)
(1.2961857050585e+19 -0 -0)
(1.30059009590418e+19 -0 -0)
(1.3052461652256e+19 -0 -0)
(1.3096487337529e+19 -0 -0)
(1.3143479878546e+19 -0 -0)
(1.31879195674847e+19 -0 -0)
(1.32355038656444e+19 -0 -0)
(1.32803778421663e+19 -0 -0)
(1.33283599919766e+19 -0 -0)
(1.33733633526836e+19 -0 -0)
(1.34216026084366e+19 -0 -0)
(1.34657317671501e+19 -0 -0)
(1.35144390052405e+19 -0 -0)
(1.35579592376179e+19 -0 -0)
(1.36061741749305e+19 -0 -0)
(1.36488224650425e+19 -0 -0)
(1.36962722723949e+19 -0 -0)
(1.37377941315207e+19 -0 -0)
(1.37842316374281e+19 -0 -0)
(1.38243896875524e+19 -0 -0)
(1.38695679161729e+19 -0 -0)
(1.39081438907089e+19 -0 -0)
(1.39518806354132e+19 -0 -0)
(1.39887460982794e+19 -0 -0)
(1.40309381852719e+19 -0 -0)
(1.40660290086819e+19 -0 -0)
(1.41066418631549e+19 -0 -0)
(1.4139887942602e+19 -0 -0)
(1.4178675406148e+19 -0 -0)
(1.4210385089508e+19 -0 -0)
(1.42474230367572e+19 -0 -0)
(1.42772308184372e+19 -0 -0)
(1.43125792156856e+19 -0 -0)
(1.4340512823028e+19 -0 -0)
(1.43742075657764e+19 -0 -0)
(1.44003198286036e+19 -0 -0)
(1.44324130124713e+19 -0 -0)
(1.44567752279621e+19 -0 -0)
(1.44873526321677e+19 -0 -0)
(1.45100736583453e+19 -0 -0)
(1.45392431517e+19 -0 -0)
(1.45604142475635e+19 -0 -0)
(1.45882577070014e+19 -0 -0)
(1.46079428707168e+19 -0 -0)
(1.46345132318839e+19 -0 -0)
(1.46527778204668e+19 -0 -0)
(1.46781461530157e+19 -0 -0)
(1.46950816303928e+19 -0 -0)
(1.47193352301671e+19 -0 -0)
(1.47350425040292e+19 -0 -0)
(1.47582814940335e+19 -0 -0)
(1.47726941961588e+19 -0 -0)
(1.47951577178144e+19 -0 -0)
(1.48085315761193e+19 -0 -0)
(1.48300781807847e+19 -0 -0)
(1.48424143695168e+19 -0 -0)
(1.4863127093787e+19 -0 -0)
(1.48744994671992e+19 -0 -0)
(1.48944367202002e+19 -0 -0)
(1.49049017170511e+19 -0 -0)
(1.49241045956809e+19 -0 -0)
(1.49336927480004e+19 -0 -0)
(1.49522024925617e+19 -0 -0)
(1.49609530131733e+19 -0 -0)
(1.49788298067839e+19 -0 -0)
(1.49867954132838e+19 -0 -0)
(1.50041120354027e+19 -0 -0)
(1.50113509852558e+19 -0 -0)
(1.50281654278542e+19 -0 -0)
(1.50347323852773e+19 -0 -0)
(1.50510471036794e+19 -0 -0)
(1.50569280275124e+19 -0 -0)
(1.50727414595089e+19 -0 -0)
(1.50779574689097e+19 -0 -0)
(1.5093276443537e+19 -0 -0)
(1.5097861103964e+19 -0 -0)
(1.51126980427778e+19 -0 -0)
(1.51165994285939e+19 -0 -0)
(1.51309090011016e+19 -0 -0)
(1.51341721632768e+19 -0 -0)
(1.5147930272951e+19 -0 -0)
(1.51504395072767e+19 -0 -0)
(1.51636009701252e+19 -0 -0)
(1.51651522824167e+19 -0 -0)
(1.51774548045973e+19 -0 -0)
(1.51544191020879e+19 -0 -0)
)
;

boundaryField
{
    electrode
    {
        type            calculated;
        value           uniform (-14058094252.8667 -0 -0);
    }
    ground
    {
        type            calculated;
        value           uniform (1.51830017958089e+19 -0 -0);
    }
    otherfaces
    {
        type            empty;
    }
}


// ************************************************************************* //
