/*--------------------------------*- C++ -*----------------------------------*\
| =========                 |                                                 |
| \\      /  F ield         | foam-extend: Open Source CFD                    |
|  \\    /   O peration     | Version:     4.0                                |
|   \\  /    A nd           | Web:         http://www.foam-extend.org         |
|    \\/     M anipulation  |                                                 |
\*---------------------------------------------------------------------------*/
FoamFile
{
    version     2.0;
    format      ascii;
    class       volVectorField;
    location    "7.2e-06";
    object      J_electron;
}
// * * * * * * * * * * * * * * * * * * * * * * * * * * * * * * * * * * * * * //

dimensions      [1 -1 -1 0 0 0 0];

internalField   nonuniform List<vector> 
300
(
(-1.32726701258281e+19 0 0)
(-1.36220716963335e+19 0 0)
(-1.60963330949435e+19 0 0)
(-1.5604724708013e+19 0 0)
(-1.56033610223391e+19 0 0)
(-1.55891895600516e+19 0 0)
(-1.55248618237108e+19 0 0)
(-1.54765422001647e+19 0 0)
(-1.54258055235053e+19 0 0)
(-1.53744200803479e+19 0 0)
(-1.53233775671234e+19 0 0)
(-1.52721972661349e+19 0 0)
(-1.52209708497167e+19 0 0)
(-1.51697009020967e+19 0 0)
(-1.51183739587734e+19 0 0)
(-1.5066989360349e+19 0 0)
(-1.50155432031417e+19 0 0)
(-1.49640317156209e+19 0 0)
(-1.49124512803049e+19 0 0)
(-1.48607983926003e+19 0 0)
(-1.4809069369293e+19 0 0)
(-1.47572607348382e+19 0 0)
(-1.4705368913426e+19 0 0)
(-1.4653390407466e+19 0 0)
(-1.46013217466219e+19 0 0)
(-1.45491594538703e+19 0 0)
(-1.44969001251766e+19 0 0)
(-1.44445403739361e+19 0 0)
(-1.43920768427327e+19 0 0)
(-1.43395061566489e+19 0 0)
(-1.42868250829917e+19 0 0)
(-1.42340303490706e+19 0 0)
(-1.41811187139072e+19 0 0)
(-1.41280870412253e+19 0 0)
(-1.4074932167333e+19 0 0)
(-1.40216510238795e+19 0 0)
(-1.39682405527286e+19 0 0)
(-1.39146977621659e+19 0 0)
(-1.38610196742109e+19 0 0)
(-1.38072034408151e+19 0 0)
(-1.37532461746095e+19 0 0)
(-1.36991451277967e+19 0 0)
(-1.36448975005415e+19 0 0)
(-1.35905006942468e+19 0 0)
(-1.35359520410622e+19 0 0)
(-1.34812490008533e+19 0 0)
(-1.34263890707698e+19 0 0)
(-1.33713698502906e+19 0 0)
(-1.33161889748164e+19 0 0)
(-1.32608441150761e+19 0 0)
(-1.32053330904778e+19 0 0)
(-1.31496537467199e+19 0 0)
(-1.30938040180715e+19 0 0)
(-1.30377818797292e+19 0 0)
(-1.29815854450695e+19 0 0)
(-1.29252128702058e+19 0 0)
(-1.28686623695747e+19 0 0)
(-1.28119322529746e+19 0 0)
(-1.27550209836492e+19 0 0)
(-1.26979269678221e+19 0 0)
(-1.26406488296375e+19 0 0)
(-1.25831851799234e+19 0 0)
(-1.25255347924212e+19 0 0)
(-1.24676964819421e+19 0 0)
(-1.2409669125709e+19 0 0)
(-1.23514517700883e+19 0 0)
(-1.22930434941059e+19 0 0)
(-1.22344434308549e+19 0 0)
(-1.21756508540796e+19 0 0)
(-1.21166651298994e+19 0 0)
(-1.20574856605288e+19 0 0)
(-1.19981119565875e+19 0 0)
(-1.19385436233117e+19 0 0)
(-1.18787803119435e+19 0 0)
(-1.18188218102836e+19 0 0)
(-1.17586680090282e+19 0 0)
(-1.16983187999291e+19 0 0)
(-1.16377738347275e+19 0 0)
(-1.1577032836696e+19 0 0)
(-1.15160970319301e+19 0 0)
(-1.14549704704236e+19 0 0)
(-1.13936524249116e+19 0 0)
(-1.13321224788115e+19 0 0)
(-1.1270357736014e+19 0 0)
(-1.12084244216121e+19 0 0)
(-1.11465367542385e+19 0 0)
(-1.10846779584272e+19 0 0)
(-1.1021667111932e+19 0 0)
(-1.09556133557043e+19 0 0)
(-1.08887615797508e+19 0 0)
(-1.08240683739628e+19 0 0)
(-1.07604630028534e+19 0 0)
(-1.06968687140568e+19 0 0)
(-1.06330917065877e+19 0 0)
(-1.0569074635523e+19 0 0)
(-1.05048020842242e+19 0 0)
(-1.04402712731645e+19 0 0)
(-1.03754824922757e+19 0 0)
(-1.03104368579398e+19 0 0)
(-1.02451353890697e+19 0 0)
(-1.01795790638086e+19 0 0)
(-1.01137684665556e+19 0 0)
(-1.00477039669291e+19 0 0)
(-9.98138557678381e+18 0 0)
(-9.91481293763877e+18 0 0)
(-9.84798537036018e+18 0 0)
(-9.78090171964221e+18 0 0)
(-9.71356036984209e+18 0 0)
(-9.64595926403174e+18 0 0)
(-9.57809577208368e+18 0 0)
(-9.50996667345089e+18 0 0)
(-9.44156810038005e+18 0 0)
(-9.37289554668867e+18 0 0)
(-9.30394363123309e+18 0 0)
(-9.23470623909138e+18 0 0)
(-9.1651763047849e+18 0 0)
(-9.09534573293208e+18 0 0)
(-9.02520539136865e+18 0 0)
(-8.95474491156228e+18 0 0)
(-8.88395260101342e+18 0 0)
(-8.81281536882115e+18 0 0)
(-8.74131847754967e+18 0 0)
(-8.6694455086678e+18 0 0)
(-8.59717807190783e+18 0 0)
(-8.52449571443573e+18 0 0)
(-8.45137563411651e+18 0 0)
(-8.37779246093487e+18 0 0)
(-8.30371799392951e+18 0 0)
(-8.22912090276417e+18 0 0)
(-8.15396637308407e+18 0 0)
(-8.07821577590145e+18 0 0)
(-8.00182618174626e+18 0 0)
(-7.92474994100929e+18 0 0)
(-7.84693416323868e+18 0 0)
(-7.76831999972999e+18 0 0)
(-7.68884218138932e+18 0 0)
(-7.60842801676288e+18 0 0)
(-7.5269967253272e+18 0 0)
(-7.44445834022879e+18 0 0)
(-7.36071265701698e+18 0 0)
(-7.27564793498619e+18 0 0)
(-7.18913962533034e+18 0 0)
(-7.10104844215203e+18 0 0)
(-7.0112187727699e+18 0 0)
(-6.91947668828271e+18 0 0)
(-6.82562831426938e+18 0 0)
(-6.72945267830843e+18 0 0)
(-6.63070182132941e+18 0 0)
(-6.52912851870967e+18 0 0)
(-6.42436387972632e+18 0 0)
(-6.31609862926107e+18 0 0)
(-6.20400136707637e+18 0 0)
(-6.08765202307691e+18 0 0)
(-5.96572338451487e+18 0 0)
(-5.83981785137178e+18 0 0)
(-5.70699628373397e+18 0 0)
(-5.56312036698069e+18 0 0)
(-5.41027993182745e+18 0 0)
(-5.25349391068194e+18 0 0)
(-5.08819192416725e+18 0 0)
(-4.90785463663801e+18 0 0)
(-4.72158294140518e+18 0 0)
(-4.47946646505076e+18 0 0)
(-4.22177750419977e+18 0 0)
(-3.58937212020589e+18 0 0)
(-2.64857572517872e+18 0 0)
(-2.32956406370874e+18 0 0)
(-2.34570708121079e+18 0 0)
(-2.11711420412618e+18 0 0)
(-1.61624367537376e+18 0 0)
(-9.27332714976117e+17 0 0)
(-3.22326581139735e+17 0 0)
(1.37735695584199e+17 0 0)
(1.1523103653888e+17 0 0)
(-7.69629986338374e+17 0 0)
(-6.67602985289777e+17 0 0)
(-2.30680862339891e+15 0 0)
(-1.73210400883474e+18 0 0)
(-2.77881687103347e+18 0 0)
(-1.91345855189064e+18 0 0)
(-3.78134561100818e+18 0 0)
(-4.71668396024503e+18 0 0)
(-3.94495930265292e+18 0 0)
(-4.44613539573478e+18 0 0)
(-3.69662211933707e+18 0 0)
(-1.51321614616311e+18 0 0)
(1.52178316965577e+17 0 0)
(2.68880648415687e+18 0 0)
(5.9383763317896e+18 0 0)
(8.43594334003475e+18 0 0)
(1.06093447503377e+19 0 0)
(1.24070318946832e+19 0 0)
(1.2964295848367e+19 0 0)
(1.37431163717741e+19 0 0)
(1.17084196853949e+19 0 0)
(1.00358370292501e+19 0 0)
(8.32184226033513e+18 0 0)
(6.37589725297816e+18 0 0)
(8.48569483444473e+18 0 0)
(-2.41247423927026e+18 0 0)
(4.12809172233437e+17 0 0)
(6.35148011776016e+17 0 0)
(-2.07307751505269e+18 0 0)
(-2.14606744235373e+18 0 0)
(-2.07359218995241e+18 0 0)
(-2.13132746585955e+18 0 0)
(-2.37192967823068e+18 0 0)
(-2.65553587570507e+18 0 0)
(-2.84996097987374e+18 0 0)
(-2.95382083123239e+18 0 0)
(-2.99337102488125e+18 0 0)
(-2.98969514166682e+18 0 0)
(-2.974338284248e+18 0 0)
(-2.94168082553025e+18 0 0)
(-2.90636856291087e+18 0 0)
(-2.86868597079244e+18 0 0)
(-2.82600904417653e+18 0 0)
(-2.78027855127251e+18 0 0)
(-2.73392680638071e+18 0 0)
(-2.68696171234462e+18 0 0)
(-2.64039964659433e+18 0 0)
(-2.59296960049951e+18 0 0)
(-2.54578305835115e+18 0 0)
(-2.49796240627784e+18 0 0)
(-2.4501309592556e+18 0 0)
(-2.40232450579887e+18 0 0)
(-2.35466136325327e+18 0 0)
(-2.30724704750502e+18 0 0)
(-2.26017201281052e+18 0 0)
(-2.21351812423173e+18 0 0)
(-2.16735998847979e+18 0 0)
(-2.12176496500258e+18 0 0)
(-2.07679362510642e+18 0 0)
(-2.03249950910211e+18 0 0)
(-1.9889295790839e+18 0 0)
(-1.94612414767607e+18 0 0)
(-1.904116520306e+18 0 0)
(-1.86293368134015e+18 0 0)
(-1.82257899291995e+18 0 0)
(-1.78302932590067e+18 0 0)
(-1.74459175126716e+18 0 0)
(-1.70689919912354e+18 0 0)
(-1.67011425977484e+18 0 0)
(-1.63421088269858e+18 0 0)
(-1.59920248050849e+18 0 0)
(-1.56508194921695e+18 0 0)
(-1.53184184154305e+18 0 0)
(-1.49947114102887e+18 0 0)
(-1.46795692489295e+18 0 0)
(-1.43728429739324e+18 0 0)
(-1.40743702097369e+18 0 0)
(-1.37839724296964e+18 0 0)
(-1.35014785507963e+18 0 0)
(-1.32266565398596e+18 0 0)
(-1.29595792978424e+18 0 0)
(-1.26990120431974e+18 0 0)
(-1.24462086046261e+18 0 0)
(-1.22006432737259e+18 0 0)
(-1.19609891086092e+18 0 0)
(-1.17281136215381e+18 0 0)
(-1.15014620805449e+18 0 0)
(-1.12808969774987e+18 0 0)
(-1.10662034507953e+18 0 0)
(-1.08571925149294e+18 0 0)
(-1.06536904750568e+18 0 0)
(-1.04555060642911e+18 0 0)
(-1.02624359536381e+18 0 0)
(-1.00743213179316e+18 0 0)
(-9.89096106256095e+17 0 0)
(-9.71227389057626e+17 0 0)
(-9.53727393232615e+17 0 0)
(-9.36760215474921e+17 0 0)
(-9.20255245530762e+17 0 0)
(-9.04094778975413e+17 0 0)
(-8.88327572128789e+17 0 0)
(-8.72937696853371e+17 0 0)
(-8.57917053523567e+17 0 0)
(-8.43253965960632e+17 0 0)
(-8.28937619876215e+17 0 0)
(-8.1495648279891e+17 0 0)
(-8.01301438157928e+17 0 0)
(-7.87949326894561e+17 0 0)
(-7.74915102941382e+17 0 0)
(-7.61942215204898e+17 0 0)
(-7.4971661029876e+17 0 0)
(-7.37676850571558e+17 0 0)
(-7.2586107634544e+17 0 0)
(-7.14302136064772e+17 0 0)
(-7.03003153437173e+17 0 0)
(-6.91642621210455e+17 0 0)
(-6.8143896038026e+17 0 0)
(-6.71061853098962e+17 0 0)
(-6.60640552177369e+17 0 0)
(-6.51107886565786e+17 0 0)
(-6.41762384519743e+17 0 0)
(-6.32682763673936e+17 0 0)
(-6.24490590875698e+17 0 0)
(-6.17345260556644e+17 0 0)
(-6.1098701995943e+17 0 0)
(-6.00175726896191e+17 0 0)
)
;

boundaryField
{
    electrode
    {
        type            calculated;
        value           uniform (-1.58611904916656e+19 0 0);
    }
    ground
    {
        type            calculated;
        value           uniform (-5.97536059313641e+17 0 0);
    }
    otherfaces
    {
        type            empty;
    }
}


// ************************************************************************* //
