/*--------------------------------*- C++ -*----------------------------------*\
| =========                 |                                                 |
| \\      /  F ield         | foam-extend: Open Source CFD                    |
|  \\    /   O peration     | Version:     4.0                                |
|   \\  /    A nd           | Web:         http://www.foam-extend.org         |
|    \\/     M anipulation  |                                                 |
\*---------------------------------------------------------------------------*/
FoamFile
{
    version     2.0;
    format      ascii;
    class       volScalarField;
    location    "7.2e-06";
    object      Phi;
}
// * * * * * * * * * * * * * * * * * * * * * * * * * * * * * * * * * * * * * //

dimensions      [0 0 0 1 0 0 0];

internalField   nonuniform List<scalar> 
300
(
699.999927374157
699.999711547852
699.999202282575
699.998432647463
699.997411043016
699.996132103225
699.994596703104
699.992804406231
699.990754648788
699.988446938858
699.985880687837
699.983055254763
699.979969943832
699.976624001136
699.97301661548
699.96914691775
699.96501398043
699.960616817132
699.955954382072
699.951025569515
699.945829213194
699.940364085692
699.934628897799
699.928622297828
699.922342870903
699.915789138213
699.908959556229
699.901852515889
699.894466341748
699.886799291086
699.878849552988
699.870615247377
699.862094424014
699.853285061461
699.844185065992
699.834792270476
699.825104433209
699.815119236704
699.804834286438
699.794247109548
699.783355153485
699.772155784613
699.760646286761
699.748823859719
699.736685617681
699.724228587637
699.711449707692
699.698345825344
699.684913695677
699.671149979512
699.657051241467
699.642613947965
699.627834465155
699.612709056763
699.597233881863
699.581404992558
699.565218331581
699.548669729801
699.53175490363
699.514469452337
699.496808855255
699.47876846887
699.460343523808
699.441529121692
699.422320231873
699.402711688035
699.382698184646
699.362274273278
699.341434358764
699.320172695189
699.298483381717
699.276360358232
699.253797400797
699.230788116899
699.2073259405
699.183404126849
699.15901574707
699.134153682509
699.108810618809
699.082979039678
699.056651220343
699.029819220837
699.002474879312
698.974609804686
698.946215366813
698.917282684816
698.887802623194
698.857765807822
698.827162630434
698.795983129387
698.764216779418
698.731852610397
698.698879320521
698.665285277604
698.631058505221
698.596186668748
698.560657060075
698.524456581382
698.487571728014
698.449988570401
698.411692734971
698.372669383993
698.332903194255
698.292378334518
698.251078441639
698.208986595271
698.166085291048
698.122356412114
698.077781198904
698.032340217023
697.986013323077
697.938779628311
697.89061745987
697.84150431949
697.791416839425
697.740330735371
697.688220756143
697.635060629838
697.580823006169
697.525479394656
697.469000098306
697.41135414237
697.35250919775
697.292431498558
697.231085753271
697.168435048909
697.104440747533
697.039062374329
696.972257496461
696.903981591721
696.834187905984
696.76282729826
696.689848072053
696.61519579154
696.538813080914
696.460639405002
696.380610829034
696.298659755149
696.214714632881
696.128699640517
696.040534333732
695.950133257422
695.857405516045
695.762254297079
695.664576341328
695.564261352934
695.461191340763
695.355239881628
695.246271292904
695.134139703289
695.018688009395
694.899746679078
694.777132420327
694.650646666917
694.520073829353
694.385179159578
694.245706988524
694.101377416198
693.951882833554
693.796884398494
693.63600910288
693.468844001405
693.294931003581
693.113761478973
692.924760943061
692.727290792245
692.520501606359
692.303336702674
692.074692168939
691.833348870826
691.577918113509
691.306737922338
691.017828648671
690.708862761929
690.377120080069
690.019651829197
689.633457848733
689.214657382808
688.758822098496
688.261987322782
687.719216597411
687.124852504628
686.474083093449
685.761152413517
684.980000188666
684.125633611803
683.192512454574
682.175172866723
681.069620176336
679.871744968818
678.577674805991
677.185206333569
675.692508811
674.098071830805
672.4007257223
670.600778795484
668.698486409046
666.694316170863
664.588583943711
662.381546777358
660.07379816498
657.665858934537
655.156940057582
652.546417361838
649.833406493041
647.017829060443
644.099993592905
641.080666585561
637.960794292328
634.74136652697
631.423355869973
628.007671134994
624.495143672549
620.88650936997
617.182802130877
613.385061094263
609.49425324143
605.511241908278
601.436830062805
597.271728127698
593.01659746514
588.672016218471
584.238523498626
579.71658356552
575.106629847838
570.409027459846
565.62442212865
560.75340604763
555.796562706968
550.754406671939
545.627450530702
540.41614225724
535.120933432424
529.742214419879
524.280383964063
518.735782362185
513.108762305653
507.399620050049
501.608667486888
495.736161510921
489.782377311082
483.747536103088
477.631926614084
471.435949784558
465.160025521106
458.80452383056
452.369835998265
445.856304243793
439.264294007861
432.594122250881
425.846130833643
419.020613557058
412.117890558953
405.138234118536
398.081944053569
390.949272415137
383.74049997475
376.455859797927
369.095614862273
361.659980419112
354.149202732873
346.56348020479
338.903043163468
331.168073901593
323.358787431696
315.475350637291
307.518049010869
299.487169858209
291.383035501933
283.205918056447
274.956125483833
266.633915544584
258.239582590998
249.773370803342
241.23556167362
232.626386566608
223.946114894598
215.194965892548
206.373197556476
197.481017513024
188.51867287308
179.486360056585
170.384315734431
161.212725539004
151.97181611433
142.661762917875
133.282783243326
123.835042962805
114.318750471408
104.734062559868
95.0811790967102
85.360248210068
75.5714619550169
65.7149604560088
55.7909281744804
45.7994977585029
35.7408470066831
25.6151016947762
15.4224342442939
5.16296457882501
)
;

boundaryField
{
    electrode
    {
        type            fixedValue;
        value           uniform 700;
    }
    ground
    {
        type            fixedValue;
        value           uniform 0;
    }
    otherfaces
    {
        type            empty;
    }
}


// ************************************************************************* //
