/*--------------------------------*- C++ -*----------------------------------*\
| =========                 |                                                 |
| \\      /  F ield         | foam-extend: Open Source CFD                    |
|  \\    /   O peration     | Version:     4.0                                |
|   \\  /    A nd           | Web:         http://www.foam-extend.org         |
|    \\/     M anipulation  |                                                 |
\*---------------------------------------------------------------------------*/
FoamFile
{
    version     2.0;
    format      ascii;
    class       volScalarField;
    location    "3e-06";
    object      Ar;
}
// * * * * * * * * * * * * * * * * * * * * * * * * * * * * * * * * * * * * * //

dimensions      [0 0 0 1 0 0 0];

internalField   nonuniform List<scalar> 
300
(
3.21880353107954e+22
3.21880352766773e+22
3.21880353000602e+22
3.21880353137029e+22
3.21880353333063e+22
3.21880353603773e+22
3.21880353935535e+22
3.21880354330813e+22
3.21880354789546e+22
3.21880355311141e+22
3.21880355895394e+22
3.21880356542054e+22
3.21880357250867e+22
3.21880358021589e+22
3.21880358853975e+22
3.21880359747778e+22
3.21880360702779e+22
3.2188036171871e+22
3.21880362795295e+22
3.2188036393227e+22
3.21880365129361e+22
3.21880366386291e+22
3.21880367702777e+22
3.21880369078528e+22
3.2188037051341e+22
3.21880372006997e+22
3.21880373558996e+22
3.21880375169127e+22
3.21880376836988e+22
3.2188037856226e+22
3.21880380344808e+22
3.21880382184239e+22
3.21880384080093e+22
3.21880386032035e+22
3.2188038803973e+22
3.21880390102849e+22
3.21880392221105e+22
3.21880394394153e+22
3.21880396621642e+22
3.2188039890326e+22
3.21880401238697e+22
3.21880403627633e+22
3.21880406069766e+22
3.21880408564799e+22
3.21880411112449e+22
3.21880413712441e+22
3.21880416364531e+22
3.21880419068481e+22
3.21880421824158e+22
3.21880424631375e+22
3.21880427490069e+22
3.21880430399943e+22
3.21880433360891e+22
3.21880436372593e+22
3.21880439434842e+22
3.21880442547367e+22
3.21880445710044e+22
3.21880448922777e+22
3.21880452185492e+22
3.21880455498159e+22
3.21880458860733e+22
3.21880462273214e+22
3.21880465735683e+22
3.21880469248395e+22
3.21880472811409e+22
3.21880476424599e+22
3.21880480088103e+22
3.21880483802091e+22
3.21880487566768e+22
3.21880491382373e+22
3.21880495249199e+22
3.21880499167638e+22
3.2188050313806e+22
3.2188050716078e+22
3.21880511236362e+22
3.21880515365258e+22
3.21880519547908e+22
3.21880523784895e+22
3.21880528076599e+22
3.21880532423947e+22
3.21880536827254e+22
3.21880541287203e+22
3.21880545804567e+22
3.21880550380111e+22
3.21880555014812e+22
3.21880559709465e+22
3.21880564464866e+22
3.2188056928197e+22
3.21880574161898e+22
3.21880579105616e+22
3.2188058411427e+22
3.21880589189444e+22
3.21880594331756e+22
3.21880599542407e+22
3.21880604822653e+22
3.21880610173795e+22
3.21880615597174e+22
3.21880621094177e+22
3.21880626666332e+22
3.21880632315102e+22
3.21880638041918e+22
3.21880643848303e+22
3.21880649736144e+22
3.2188065570675e+22
3.21880661761851e+22
3.21880667903207e+22
3.21880674132364e+22
3.21880680451242e+22
3.21880686861487e+22
3.21880693364817e+22
3.21880699963046e+22
3.21880706658011e+22
3.21880713451618e+22
3.21880720345735e+22
3.21880727342239e+22
3.21880734443171e+22
3.21880741650587e+22
3.21880748966111e+22
3.21880756391604e+22
3.21880763929009e+22
3.21880771580447e+22
3.21880779347629e+22
3.2188078723267e+22
3.2188079523727e+22
3.21880803363089e+22
3.21880811611892e+22
3.21880819985667e+22
3.21880828485923e+22
3.21880837114478e+22
3.21880845872999e+22
3.21880854763173e+22
3.21880863786521e+22
3.21880872944514e+22
3.2188088223877e+22
3.21880891670936e+22
3.2188090124203e+22
3.21880910953133e+22
3.21880920805523e+22
3.21880930800322e+22
3.21880940938261e+22
3.21880951220214e+22
3.21880961646939e+22
3.21880972219217e+22
3.21880982937695e+22
3.21880993802793e+22
3.21881004814328e+22
3.21881015972294e+22
3.21881027276513e+22
3.21881038726749e+22
3.21881050322728e+22
3.21881062063325e+22
3.21881073947519e+22
3.21881085974371e+22
3.21881098141995e+22
3.21881110448296e+22
3.21881122891093e+22
3.21881135467617e+22
3.2188114817384e+22
3.21881161006832e+22
3.21881173960241e+22
3.21881187023007e+22
3.21881200232579e+22
3.21881213445641e+22
3.21881226670239e+22
3.21881240040547e+22
3.21881253501366e+22
3.21881267028499e+22
3.21881280531737e+22
3.21881294083286e+22
3.21881307480871e+22
3.21881320910157e+22
3.21881334608736e+22
3.21881347849686e+22
3.21881360889462e+22
3.21881374187188e+22
3.2188138682465e+22
3.21881398971641e+22
3.21881411345196e+22
3.21881422684186e+22
3.2188143341116e+22
3.21881443874627e+22
3.21881453266823e+22
3.21881461728676e+22
3.21881469869335e+22
3.21881476713679e+22
3.21881482661271e+22
3.21881488208656e+22
3.21881492936785e+22
3.21881496684589e+22
3.21881499859199e+22
3.21881502807159e+22
3.218815052816e+22
3.21881507145695e+22
3.21881508628291e+22
3.21881509232655e+22
3.21881509443083e+22
3.21881509088703e+22
3.2188150891122e+22
3.21881508805635e+22
3.21881508959874e+22
3.21881509268216e+22
3.21881509677338e+22
3.2188151026387e+22
3.2188151091126e+22
3.21881511500274e+22
3.21881512034699e+22
3.21881512510512e+22
3.21881512940635e+22
3.21881513313541e+22
3.21881513648051e+22
3.21881513935904e+22
3.21881514312441e+22
3.21881514722535e+22
3.21881515109158e+22
3.21881515451515e+22
3.21881515778131e+22
3.21881516065271e+22
3.21881516341541e+22
3.21881516582334e+22
3.2188151681696e+22
3.21881517018782e+22
3.21881517218779e+22
3.21881517387966e+22
3.21881517559905e+22
3.21881517769696e+22
3.21881518049665e+22
3.21881518300398e+22
3.21881518556302e+22
3.21881518784128e+22
3.21881519018742e+22
3.218815192257e+22
3.21881519441991e+22
3.21881519629926e+22
3.21881519829746e+22
3.21881520001017e+22
3.21881520185071e+22
3.21881520341213e+22
3.21881520510524e+22
3.21881520652507e+22
3.21881520807702e+22
3.2188152093608e+22
3.21881521077488e+22
3.21881521222033e+22
3.21881521440904e+22
3.21881521631557e+22
3.21881521837368e+22
3.21881522015322e+22
3.21881522209353e+22
3.21881522375588e+22
3.21881522559698e+22
3.21881522715119e+22
3.21881522889732e+22
3.21881523035143e+22
3.218815232002e+22
3.21881523335711e+22
3.21881523490807e+22
3.21881523616756e+22
3.21881523761979e+22
3.21881523878115e+22
3.21881524014598e+22
3.21881524120752e+22
3.21881524249165e+22
3.21881524346079e+22
3.21881524467255e+22
3.21881524556065e+22
3.21881524670678e+22
3.21881524752603e+22
3.218815248608e+22
3.2188152499207e+22
3.21881525152867e+22
3.2188152528082e+22
3.21881525434765e+22
3.21881525555519e+22
3.21881525703091e+22
3.21881525816909e+22
3.21881525958599e+22
3.21881526065589e+22
3.21881526201738e+22
3.21881526302115e+22
3.21881526432975e+22
3.21881526527048e+22
3.21881526652985e+22
3.21881526742363e+22
3.21881526864436e+22
3.21881526948486e+22
3.21881527065824e+22
3.21881527144384e+22
3.21881527257144e+22
3.21881527330331e+22
3.2188152744027e+22
3.21881527510456e+22
3.21881527616673e+22
3.21881527681884e+22
3.21881527786218e+22
3.21881527849291e+22
3.21881527951204e+22
3.21881528012793e+22
3.2188152811591e+22
3.21881528178761e+22
3.21881528308067e+22
)
;

boundaryField
{
    electrode
    {
        type            zeroGradient;
    }
    ground
    {
        type            zeroGradient;
    }
    otherfaces
    {
        type            empty;
    }
}


// ************************************************************************* //
