/*--------------------------------*- C++ -*----------------------------------*\
| =========                 |                                                 |
| \\      /  F ield         | foam-extend: Open Source CFD                    |
|  \\    /   O peration     | Version:     4.0                                |
|   \\  /    A nd           | Web:         http://www.foam-extend.org         |
|    \\/     M anipulation  |                                                 |
\*---------------------------------------------------------------------------*/
FoamFile
{
    version     2.0;
    format      ascii;
    class       volScalarField;
    location    "3e-06";
    object      Arm;
}
// * * * * * * * * * * * * * * * * * * * * * * * * * * * * * * * * * * * * * //

dimensions      [0 0 0 1 0 0 0];

internalField   nonuniform List<scalar> 
300
(
3.57414990275417e+15
3.57602844437902e+15
3.57797775008328e+15
3.5792836178865e+15
3.58009980237152e+15
3.58047829267939e+15
3.58046330000573e+15
3.58008625682268e+15
3.5793728198082e+15
3.57834497544125e+15
3.57701849376421e+15
3.57540746123929e+15
3.57352393064122e+15
3.5713785043556e+15
3.56898063922338e+15
3.56633888286047e+15
3.56345805125261e+15
3.56034673505673e+15
3.55701327739369e+15
3.55346415623434e+15
3.54970557304314e+15
3.54574344952417e+15
3.54158347570378e+15
3.5372311144694e+15
3.53267564685024e+15
3.52793485197114e+15
3.52301242112105e+15
3.51791035671411e+15
3.51264227130368e+15
3.50721305582643e+15
3.50160890843906e+15
3.49584122162553e+15
3.4899281212501e+15
3.48387497826641e+15
3.47768687893651e+15
3.4713686291107e+15
3.4649203918847e+15
3.45834868920868e+15
3.45166059415603e+15
3.4448596387095e+15
3.43794932478688e+15
3.43093493175823e+15
3.42382033934897e+15
3.41660923917853e+15
3.40930513149317e+15
3.40191128207243e+15
3.39442863278555e+15
3.38685864147474e+15
3.37919352933239e+15
3.37143190363582e+15
3.36356112512905e+15
3.3555937416774e+15
3.34752431924759e+15
3.33937060945714e+15
3.33114072801833e+15
3.32285106712653e+15
3.31450491511616e+15
3.30610518813881e+15
3.29765446005542e+15
3.28915314281077e+15
3.28060555794649e+15
3.27201381983666e+15
3.26337459265147e+15
3.25466987661898e+15
3.24590365036585e+15
3.2371015452661e+15
3.22826563131985e+15
3.21939774827984e+15
3.21049948196211e+15
3.20157219392025e+15
3.19261504276933e+15
3.18362086513352e+15
3.17458812069657e+15
3.16552428600258e+15
3.15641578200568e+15
3.14726367700576e+15
3.13807433075523e+15
3.12884357750443e+15
3.11959147414192e+15
3.1102873406614e+15
3.10096586498526e+15
3.09162914517442e+15
3.08227408618336e+15
3.07290297179713e+15
3.06350094130732e+15
3.0540757558988e+15
3.04463913713914e+15
3.03519140623137e+15
3.02572061943055e+15
3.01623456581817e+15
3.00672725686742e+15
2.99715349232134e+15
2.98756870569792e+15
2.9779744811399e+15
2.96837084595347e+15
2.95875782650989e+15
2.94913520447933e+15
2.9395025579869e+15
2.92984892852947e+15
2.92017425978933e+15
2.91048482677032e+15
2.90078193867847e+15
2.89103373158779e+15
2.88126953702464e+15
2.87148009535389e+15
2.86165603569116e+15
2.85181244335993e+15
2.84192963704476e+15
2.83201807800167e+15
2.82208322039327e+15
2.81212318684761e+15
2.80213569616667e+15
2.79211299621937e+15
2.78205288057799e+15
2.7719531448409e+15
2.76179612181427e+15
2.75156287748046e+15
2.74127828306558e+15
2.73094319610379e+15
2.72054954673275e+15
2.71007088553574e+15
2.69952026061748e+15
2.68886859754656e+15
2.67812633104327e+15
2.66730490758875e+15
2.6564021393584e+15
2.6453898394964e+15
2.63428552092856e+15
2.62307831685823e+15
2.61176620981032e+15
2.60033352975924e+15
2.58877642030331e+15
2.57708990452877e+15
2.56524788409732e+15
2.55321382579229e+15
2.54100665878525e+15
2.52863032116487e+15
2.51605973275183e+15
2.50327601226984e+15
2.49028833668425e+15
2.47708069333842e+15
2.46363644264549e+15
2.44992342306578e+15
2.43590952803486e+15
2.42157010585393e+15
2.40692503977858e+15
2.39195942759434e+15
2.37665691868661e+15
2.36098698009734e+15
2.34490063795632e+15
2.32841042534708e+15
2.31149159436408e+15
2.29408177356164e+15
2.27617985721668e+15
2.25776760396068e+15
2.23879524461254e+15
2.21921949053324e+15
2.19903985445268e+15
2.17823719833927e+15
2.15676652499681e+15
2.1345922163272e+15
2.11169922694427e+15
2.08804922654864e+15
2.0636548387552e+15
2.0385030856959e+15
2.0125392751872e+15
1.98578428267316e+15
1.95828271841052e+15
1.93006352018969e+15
1.90116864292674e+15
1.87166675363609e+15
1.84159108014666e+15
1.81103398433226e+15
1.78016703704757e+15
1.74918423489415e+15
1.71825539067809e+15
1.68755968016958e+15
1.6572960809258e+15
1.62770352309508e+15
1.59893748686561e+15
1.57115224802666e+15
1.54449489787856e+15
1.51904668109443e+15
1.49492250389827e+15
1.47212211051365e+15
1.4505548728426e+15
1.43026039873977e+15
1.41118700799498e+15
1.39324567307306e+15
1.37634704044685e+15
1.36036923054401e+15
1.34526761577399e+15
1.331179679061e+15
1.3219334551863e+15
1.34030528718702e+15
1.38908047390108e+15
1.43911191528e+15
1.45718627948879e+15
1.45115010333726e+15
1.43271104055807e+15
1.40922327315949e+15
1.38661386294234e+15
1.36773662807368e+15
1.35303701198835e+15
1.34186258960092e+15
1.33331481505319e+15
1.32622865135781e+15
1.32034290545415e+15
1.31548929413354e+15
1.31125142515262e+15
1.30694800493533e+15
1.30247424807335e+15
1.29804292184683e+15
1.29359685696098e+15
1.2891052442956e+15
1.28451043843719e+15
1.27976692525284e+15
1.27489376676674e+15
1.26987013787016e+15
1.26469587440624e+15
1.25938942233684e+15
1.25394645888054e+15
1.24837867349873e+15
1.24259412875151e+15
1.23661167248919e+15
1.23058305622458e+15
1.22453849955693e+15
1.21848523156013e+15
1.21244449013326e+15
1.20644218434499e+15
1.20048054151281e+15
1.19457681170039e+15
1.18875233152691e+15
1.18301090984409e+15
1.1773591610352e+15
1.17181975571399e+15
1.16638164709859e+15
1.16106781089856e+15
1.15586988509423e+15
1.15080046674143e+15
1.14586125186453e+15
1.1410450153985e+15
1.13636657702471e+15
1.13181124023145e+15
1.12738411718883e+15
1.12309916090015e+15
1.1189405428121e+15
1.11491369525296e+15
1.11101870467549e+15
1.10724505091569e+15
1.10359725798731e+15
1.10006882844138e+15
1.09665470893741e+15
1.09335807373701e+15
1.09017046474648e+15
1.08708950104978e+15
1.08411403497984e+15
1.08122879990287e+15
1.07844306492363e+15
1.0757493747638e+15
1.07315408322623e+15
1.07064518804353e+15
1.06822626378401e+15
1.06588982147141e+15
1.06363444989858e+15
1.06145728199388e+15
1.05935181957582e+15
1.05731620134391e+15
1.05534094692527e+15
1.0534331926491e+15
1.05158638602901e+15
1.04980700784936e+15
1.048082925719e+15
1.04642082335572e+15
1.04480941415482e+15
1.04324801800314e+15
1.04173559284061e+15
1.04027275749617e+15
1.03886203897635e+15
1.03749751496473e+15
1.03617845785728e+15
1.03488630270056e+15
1.03355196661868e+15
1.03223123894467e+15
1.03095071065058e+15
1.0297005735469e+15
1.02848786215667e+15
1.02731310207167e+15
1.026168540293e+15
1.02490213307644e+15
1.02362166166972e+15
1.02237656764259e+15
1.02116711646635e+15
1.01976921702578e+15
1.01836492253392e+15
1.01690200874182e+15
1.01524470924146e+15
1.01340956838988e+15
1.01130813805703e+15
1.00876345467871e+15
)
;

boundaryField
{
    electrode
    {
        type            zeroGradient;
    }
    ground
    {
        type            zeroGradient;
    }
    otherfaces
    {
        type            empty;
    }
}


// ************************************************************************* //
