/*--------------------------------*- C++ -*----------------------------------*\
| =========                 |                                                 |
| \\      /  F ield         | foam-extend: Open Source CFD                    |
|  \\    /   O peration     | Version:     4.0                                |
|   \\  /    A nd           | Web:         http://www.foam-extend.org         |
|    \\/     M anipulation  |                                                 |
\*---------------------------------------------------------------------------*/
FoamFile
{
    version     2.0;
    format      ascii;
    class       volScalarField;
    location    "3e-06";
    object      Arp1;
}
// * * * * * * * * * * * * * * * * * * * * * * * * * * * * * * * * * * * * * //

dimensions      [0 0 0 1 0 0 0];

internalField   nonuniform List<scalar> 
300
(
5.90430093224578e+16
5.90771093761122e+16
5.90563282250151e+16
5.90489692478287e+16
5.90391331500733e+16
5.90252668465234e+16
5.90086904507913e+16
5.89891215486082e+16
5.89665368268402e+16
5.89409688055762e+16
5.89124171104762e+16
5.88808868253121e+16
5.88463849759197e+16
5.8808918446845e+16
5.87684947512529e+16
5.87251219821056e+16
5.8678808745057e+16
5.86295641565659e+16
5.85773978278647e+16
5.85223198452031e+16
5.84643407500028e+16
5.84034715186429e+16
5.83397235404512e+16
5.8273108594184e+16
5.82036388243088e+16
5.81313267156064e+16
5.80561850659651e+16
5.79782269593686e+16
5.78974657368963e+16
5.78139149664027e+16
5.77275884114866e+16
5.76384999997412e+16
5.75466637885298e+16
5.7452093930994e+16
5.73548046406162e+16
5.72548101539879e+16
5.71521246934894e+16
5.70467624286292e+16
5.6938737435697e+16
5.6828063657367e+16
5.67147548610628e+16
5.65988245956779e+16
5.64802861482519e+16
5.63591524996236e+16
5.62354362785953e+16
5.61091497157677e+16
5.59803045971471e+16
5.58489122154427e+16
5.57149833223844e+16
5.55785280794992e+16
5.54395560081843e+16
5.52980759397447e+16
5.51540959648693e+16
5.50076233821579e+16
5.48586646468077e+16
5.47072253191855e+16
5.45533100124662e+16
5.43969223405697e+16
5.42380648664071e+16
5.4076739049082e+16
5.39129451921631e+16
5.37466823919421e+16
5.3577948485362e+16
5.34067399988002e+16
5.32330520978627e+16
5.30568785359029e+16
5.28782116054212e+16
5.26970420888789e+16
5.2513359210192e+16
5.2327150588159e+16
5.21384021905681e+16
5.19470982888176e+16
5.17532214149468e+16
5.15567523196608e+16
5.13576699313089e+16
5.11559513177377e+16
5.09515716492018e+16
5.07445041630469e+16
5.05347201312306e+16
5.03221888296206e+16
5.01068775096086e+16
4.98887513722977e+16
4.96677735458428e+16
4.94439050646827e+16
4.92171048525419e+16
4.89873297082754e+16
4.87545342948001e+16
4.85186711317389e+16
4.82796905915957e+16
4.80375408993748e+16
4.77921681364673e+16
4.75435162485904e+16
4.72915270576954e+16
4.70361402780793e+16
4.67772935381505e+16
4.65149224051999e+16
4.62489604164104e+16
4.59793391146437e+16
4.57059880885992e+16
4.54288350193669e+16
4.51478057321733e+16
4.48628242533444e+16
4.45738128735818e+16
4.42806922173825e+16
4.39833813180411e+16
4.36817976992497e+16
4.33758574634627e+16
4.30654753863534e+16
4.2750565018185e+16
4.24310387924915e+16
4.21068081413485e+16
4.17777836179027e+16
4.14438750268224e+16
4.11049915617535e+16
4.0761041950491e+16
4.04119346088983e+16
4.00575778018825e+16
3.96978798134709e+16
3.93327491257909e+16
3.89620946061545e+16
3.85858257045418e+16
3.82038526606113e+16
3.78160867203106e+16
3.74224403632514e+16
3.702282753671e+16
3.66171640029592e+16
3.62053674630549e+16
3.57873575178447e+16
3.53630562817585e+16
3.49323888279314e+16
3.44952830498766e+16
3.40516700403223e+16
3.36014846874803e+16
3.31446659854843e+16
3.26811573558262e+16
3.22109070354735e+16
3.17338684836468e+16
3.12500008224183e+16
3.07592693084712e+16
3.02616458414315e+16
2.97571095225951e+16
2.92456472687765e+16
2.87272544855148e+16
2.82019358189044e+16
2.76697060074691e+16
2.71305908388882e+16
2.65846282447066e+16
2.60318695690247e+16
2.54723810382328e+16
2.4906245483547e+16
2.43335643789823e+16
2.37544602669851e+16
2.31690796365614e+16
2.25775963855635e+16
2.19802167383468e+16
2.13771807717254e+16
2.07687740534792e+16
2.01553584742448e+16
1.95371968317425e+16
1.89149124896191e+16
1.82895894192083e+16
1.76574368488751e+16
1.70328373120004e+16
1.641521047786e+16
1.57915376078719e+16
1.51676976560237e+16
1.45462515726877e+16
1.39362701934234e+16
1.33305412076873e+16
1.27491828482331e+16
1.21732440540033e+16
1.15779201449671e+16
1.10339892351934e+16
1.05132731315447e+16
9.96638210297577e+15
9.48049024279913e+15
9.03314667984122e+15
8.54617498810609e+15
8.13819098429197e+15
7.75924386071902e+15
7.36680060180288e+15
7.03435064630481e+15
6.74173988690956e+15
6.42351641211932e+15
6.17464368865196e+15
5.95493387945494e+15
5.71648153882326e+15
5.50505347186913e+15
5.34217148928428e+15
5.19323634850036e+15
5.03024222196552e+15
4.88437781089196e+15
4.77533153423018e+15
4.68187569083614e+15
4.63634606770971e+15
4.59109734707373e+15
4.59420508764017e+15
4.60663402207647e+15
4.63219798764166e+15
4.64104732325322e+15
4.63722423386862e+15
4.62094593950768e+15
4.58231667921486e+15
4.53293409892863e+15
4.48559187248394e+15
4.44092761094554e+15
4.40057265239066e+15
4.36353172033796e+15
4.33114680459277e+15
4.30196480909366e+15
4.27750098069185e+15
4.24433115519587e+15
4.20775858815061e+15
4.17354582350112e+15
4.14380440109111e+15
4.11574062206091e+15
4.09177417715828e+15
4.06902590646484e+15
4.04997745078043e+15
4.03169834051723e+15
4.01683364181046e+15
4.00229007065445e+15
3.99095423761993e+15
3.97956182166661e+15
3.96458373676075e+15
3.94263559094719e+15
3.92362831863903e+15
3.90411380752182e+15
3.88739569114394e+15
3.86996101353157e+15
3.8552519828797e+15
3.83955227338084e+15
3.82660930087048e+15
3.8123949290549e+15
3.80094591595404e+15
3.78810616974256e+15
3.77795624442571e+15
3.76636496179344e+15
3.75739028906302e+15
3.74696543978599e+15
3.7390917515297e+15
3.72979168412168e+15
3.72003950831696e+15
3.70273107354214e+15
3.68811563462363e+15
3.67184168757582e+15
3.65822649816059e+15
3.642871184586e+15
3.63016299452233e+15
3.61554530352512e+15
3.60367007447556e+15
3.5897556528455e+15
3.57864650426637e+15
3.56545470273157e+15
3.55510792537662e+15
3.54269535852899e+15
3.53309139118714e+15
3.52146926075802e+15
3.51265590525992e+15
3.50171514616915e+15
3.49370843548836e+15
3.4833889452102e+15
3.47612895452311e+15
3.46635985669333e+15
3.45974577747121e+15
3.45047279900751e+15
3.44439650082164e+15
3.43562290531818e+15
3.42448119981296e+15
3.41031892384566e+15
3.39937979151353e+15
3.38577377409281e+15
3.37543111940145e+15
3.36234445170147e+15
3.3525823291644e+15
3.33998253023289e+15
3.3308035638669e+15
3.318658959925e+15
3.31003907903906e+15
3.29832441118856e+15
3.29024278664474e+15
3.27894772094277e+15
3.27135034544654e+15
3.26046982228667e+15
3.253351134079e+15
3.24287306345036e+15
3.23623521242778e+15
3.22613923861794e+15
3.21997013804618e+15
3.210247481927e+15
3.20451403230782e+15
3.1951418849953e+15
3.1898345150061e+15
3.18080301270368e+15
3.17590380723191e+15
3.16717874373816e+15
3.16268003211126e+15
3.15420558393753e+15
3.15002276833823e+15
3.13963567061273e+15
)
;

boundaryField
{
    electrode
    {
        type            driftDiffusionPositiveIonDensity;
        seec            0;
        fieldName       Arp1;
        value           uniform 5.89060407867799e+16;
    }
    ground
    {
        type            driftDiffusionPositiveIonDensity;
        seec            0;
        fieldName       Arp1;
        value           uniform 3.13963567061273e+15;
    }
    otherfaces
    {
        type            empty;
    }
}


// ************************************************************************* //
