/*--------------------------------*- C++ -*----------------------------------*\
| =========                 |                                                 |
| \\      /  F ield         | foam-extend: Open Source CFD                    |
|  \\    /   O peration     | Version:     4.0                                |
|   \\  /    A nd           | Web:         http://www.foam-extend.org         |
|    \\/     M anipulation  |                                                 |
\*---------------------------------------------------------------------------*/
FoamFile
{
    version     2.0;
    format      ascii;
    class       volVectorField;
    location    "3e-06";
    object      E;
}
// * * * * * * * * * * * * * * * * * * * * * * * * * * * * * * * * * * * * * //

dimensions      [0 0 0 1 0 0 0];

internalField   nonuniform List<vector> 
300
(
(5.04333213108277 -0 -0)
(10.4691786656508 -0 -0)
(18.2175275864616 -0 -0)
(25.5765935930355 -0 -0)
(32.8266343607713 -0 -0)
(40.1216684375876 -0 -0)
(47.4078998224941 -0 -0)
(54.690554147917 -0 -0)
(61.9719405375869 -0 -0)
(69.2505491867175 -0 -0)
(76.5261659374502 -0 -0)
(83.7985456192411 -0 -0)
(91.0673760151646 -0 -0)
(98.3323957592911 -0 -0)
(105.593370001989 -0 -0)
(112.850090638884 -0 -0)
(120.102381569173 -0 -0)
(127.35010087306 -0 -0)
(134.593143359675 -0 -0)
(141.831443394022 -0 -0)
(149.06497772388 -0 -0)
(156.293768294181 -0 -0)
(163.517885248818 -0 -0)
(170.737449915749 -0 -0)
(177.952637887837 -0 -0)
(185.163682241137 -0 -0)
(192.370876740679 -0 -0)
(199.574579200226 -0 -0)
(206.775214900419 -0 -0)
(213.973280090154 -0 -0)
(221.169345571171 -0 -0)
(228.364060440809 -0 -0)
(235.558155776994 -0 -0)
(242.752448580155 -0 -0)
(249.947845720693 -0 -0)
(257.145347973302 -0 -0)
(264.346054187929 -0 -0)
(271.551165516248 -0 -0)
(278.761989758209 -0 -0)
(285.97994579524 -0 -0)
(293.206568137357 -0 -0)
(300.443511486201 -0 -0)
(307.69255551791 -0 -0)
(314.955609646777 -0 -0)
(322.234717950484 -0 -0)
(329.532064156958 -0 -0)
(336.849976736929 -0 -0)
(344.190934066546 -0 -0)
(351.557569722196 -0 -0)
(358.952677839625 -0 -0)
(366.379218551298 -0 -0)
(373.840323547627 -0 -0)
(381.339301727603 -0 -0)
(388.879644885915 -0 -0)
(396.465033561427 -0 -0)
(404.099342979279 -0 -0)
(411.786649008634 -0 -0)
(419.5312343067 -0 -0)
(427.337594502335 -0 -0)
(435.210444511878 -0 -0)
(443.154724962024 -0 -0)
(451.175608664942 -0 -0)
(459.278507292155 -0 -0)
(467.469078109563 -0 -0)
(475.753230852375 -0 -0)
(484.137134723664 -0 -0)
(492.627225533228 -0 -0)
(501.230213017966 -0 -0)
(509.953088265228 -0 -0)
(518.803131367755 -0 -0)
(527.787919193841 -0 -0)
(536.915333439251 -0 -0)
(546.193568827566 -0 -0)
(555.631141596512 -0 -0)
(565.236898195156 -0 -0)
(575.020024316861 -0 -0)
(584.990054189219 -0 -0)
(595.156880191294 -0 -0)
(605.530762927468 -0 -0)
(616.122341587239 -0 -0)
(626.942644765885 -0 -0)
(638.003101845262 -0 -0)
(649.315554781965 -0 -0)
(660.892270555666 -0 -0)
(672.745954198649 -0 -0)
(684.889762515709 -0 -0)
(697.337318531021 -0 -0)
(710.102726819775 -0 -0)
(723.200589655547 -0 -0)
(736.646024159032 -0 -0)
(750.454680531552 -0 -0)
(764.642761458119 -0 -0)
(779.227042716011 -0 -0)
(794.224895271722 -0 -0)
(809.654308776671 -0 -0)
(825.533916847057 -0 -0)
(841.883024056782 -0 -0)
(858.721634920501 -0 -0)
(876.07048506891 -0 -0)
(893.951074736141 -0 -0)
(912.385704866611 -0 -0)
(931.397515929847 -0 -0)
(951.010529913565 -0 -0)
(971.249695598335 -0 -0)
(992.14093749754 -0 -0)
(1013.7112087417 -0 -0)
(1035.98854843937 -0 -0)
(1059.00214361086 -0 -0)
(1082.78239650272 -0 -0)
(1107.36099727787 -0 -0)
(1132.77100304853 -0 -0)
(1159.04692339644 -0 -0)
(1186.22481304734 -0 -0)
(1214.34237222452 -0 -0)
(1243.43905516257 -0 -0)
(1273.55618711303 -0 -0)
(1304.73709038945 -0 -0)
(1337.02721934343 -0 -0)
(1370.47430439463 -0 -0)
(1405.1285045337 -0 -0)
(1441.04256744897 -0 -0)
(1478.27199648396 -0 -0)
(1516.87522406141 -0 -0)
(1556.91379476621 -0 -0)
(1598.45260263409 -0 -0)
(1641.55962688058 -0 -0)
(1686.30439315185 -0 -0)
(1732.76704895747 -0 -0)
(1781.0347082441 -0 -0)
(1831.19190221729 -0 -0)
(1883.33529565311 -0 -0)
(1937.5724465866 -0 -0)
(1994.01454257532 -0 -0)
(2052.78093534336 -0 -0)
(2113.99975762634 -0 -0)
(2177.80890949692 -0 -0)
(2244.35717262977 -0 -0)
(2313.80545894803 -0 -0)
(2386.32820888261 -0 -0)
(2462.1149633664 -0 -0)
(2541.37214080068 -0 -0)
(2624.32505583777 -0 -0)
(2711.22022258236 -0 -0)
(2802.32799140831 -0 -0)
(2897.9455793307 -0 -0)
(2998.4005630695 -0 -0)
(3104.05491721514 -0 -0)
(3215.30969710384 -0 -0)
(3332.61048608502 -0 -0)
(3456.45374995073 -0 -0)
(3587.39427272115 -0 -0)
(3726.05388412943 -0 -0)
(3873.13173003703 -0 -0)
(4029.41641242007 -0 -0)
(4195.80039260822 -0 -0)
(4373.29677856524 -0 -0)
(4563.06054092314 -0 -0)
(4766.4141750244 -0 -0)
(4984.86409041177 -0 -0)
(5220.18423626038 -0 -0)
(5474.46371927829 -0 -0)
(5749.91421079588 -0 -0)
(6051.0433823941 -0 -0)
(6384.80087203773 -0 -0)
(6756.35675521721 -0 -0)
(7169.71699153612 -0 -0)
(7630.71720800963 -0 -0)
(8147.93412854634 -0 -0)
(8731.34342699261 -0 -0)
(9393.66190452719 -0 -0)
(10146.8391914266 -0 -0)
(10995.3454261346 -0 -0)
(11952.0485811365 -0 -0)
(13036.6137496229 -0 -0)
(14253.4059708376 -0 -0)
(15612.2084565538 -0 -0)
(17132.6264531247 -0 -0)
(18811.025205801 -0 -0)
(20648.2168274836 -0 -0)
(22655.6841746514 -0 -0)
(24820.4123742337 -0 -0)
(27131.4864892644 -0 -0)
(29586.9765798798 -0 -0)
(32160.53728328 -0 -0)
(34831.1079468924 -0 -0)
(37590.7913379141 -0 -0)
(40408.7037458877 -0 -0)
(43254.812126172 -0 -0)
(46119.5244561891 -0 -0)
(48994.1643293429 -0 -0)
(51855.9892607464 -0 -0)
(54686.5107808237 -0 -0)
(57484.5892427542 -0 -0)
(60256.0319290386 -0 -0)
(63012.4830760523 -0 -0)
(65755.6134354228 -0 -0)
(68497.3004165131 -0 -0)
(71255.0776427099 -0 -0)
(74030.0497493376 -0 -0)
(76818.9337930892 -0 -0)
(79612.2939239916 -0 -0)
(82401.3782823958 -0 -0)
(85174.9339917324 -0 -0)
(87922.4822139382 -0 -0)
(90641.1378725984 -0 -0)
(93332.1940697388 -0 -0)
(95997.6975533733 -0 -0)
(98639.9132783047 -0 -0)
(101261.226963395 -0 -0)
(103863.99420763 -0 -0)
(106450.594640625 -0 -0)
(109019.822456748 -0 -0)
(111568.021885284 -0 -0)
(114094.875734656 -0 -0)
(116602.443553438 -0 -0)
(119092.579973264 -0 -0)
(121567.026918398 -0 -0)
(124027.388216266 -0 -0)
(126475.148063871 -0 -0)
(128911.65523788 -0 -0)
(131338.172793737 -0 -0)
(133755.828777094 -0 -0)
(136165.688288482 -0 -0)
(138568.70276602 -0 -0)
(140963.775026351 -0 -0)
(143347.722587309 -0 -0)
(145719.331150059 -0 -0)
(148079.335383473 -0 -0)
(150428.426319772 -0 -0)
(152767.231748442 -0 -0)
(155096.358045682 -0 -0)
(157416.328808096 -0 -0)
(159727.676917882 -0 -0)
(162030.850534159 -0 -0)
(164326.30028986 -0 -0)
(166614.440790054 -0 -0)
(168895.663779147 -0 -0)
(171170.345677181 -0 -0)
(173438.840768032 -0 -0)
(175701.500627585 -0 -0)
(177958.657051537 -0 -0)
(180210.648952662 -0 -0)
(182456.90951717 -0 -0)
(184695.023226194 -0 -0)
(186923.523047103 -0 -0)
(189142.72061611 -0 -0)
(191352.917242094 -0 -0)
(193554.389587128 -0 -0)
(195747.410871391 -0 -0)
(197932.2032059 -0 -0)
(200109.017369485 -0 -0)
(202278.06509979 -0 -0)
(204439.577065087 -0 -0)
(206593.770817569 -0 -0)
(208740.875847053 -0 -0)
(210881.126914528 -0 -0)
(213014.747592726 -0 -0)
(215141.975804453 -0 -0)
(217263.049854658 -0 -0)
(219378.174860972 -0 -0)
(221487.593761426 -0 -0)
(223591.493657697 -0 -0)
(225690.099472591 -0 -0)
(227783.576960165 -0 -0)
(229872.120639496 -0 -0)
(231955.879918046 -0 -0)
(234035.016764271 -0 -0)
(236109.681500802 -0 -0)
(238178.346283788 -0 -0)
(240239.385767738 -0 -0)
(242292.860792493 -0 -0)
(244338.93890713 -0 -0)
(246377.79981423 -0 -0)
(248409.59995735 -0 -0)
(250434.514241943 -0 -0)
(252452.689322461 -0 -0)
(254464.300907237 -0 -0)
(256469.486120356 -0 -0)
(258468.413418693 -0 -0)
(260461.212320545 -0 -0)
(262448.045011442 -0 -0)
(264429.037865702 -0 -0)
(266404.336803807 -0 -0)
(268374.066759225 -0 -0)
(270338.371908947 -0 -0)
(272297.373528326 -0 -0)
(274251.216595046 -0 -0)
(276200.016139769 -0 -0)
(278143.913374811 -0 -0)
(280083.020867891 -0 -0)
(282017.469834637 -0 -0)
(283947.365815589 -0 -0)
(285872.837242604 -0 -0)
(287793.98666117 -0 -0)
(289710.936882057 -0 -0)
(291623.780103728 -0 -0)
(293532.636230114 -0 -0)
(295437.580346057 -0 -0)
(297338.710939556 -0 -0)
(299235.450430894 -0 -0)
)
;

boundaryField
{
    electrode
    {
        type            calculated;
        value           uniform (3.60670412874243 -0 -0);
    }
    ground
    {
        type            calculated;
        value           uniform (300182.253743977 -0 -0);
    }
    otherfaces
    {
        type            empty;
    }
}


// ************************************************************************* //
