/*--------------------------------*- C++ -*----------------------------------*\
| =========                 |                                                 |
| \\      /  F ield         | foam-extend: Open Source CFD                    |
|  \\    /   O peration     | Version:     4.0                                |
|   \\  /    A nd           | Web:         http://www.foam-extend.org         |
|    \\/     M anipulation  |                                                 |
\*---------------------------------------------------------------------------*/
FoamFile
{
    version     2.0;
    format      ascii;
    class       volScalarField;
    location    "3e-06";
    object      electron;
}
// * * * * * * * * * * * * * * * * * * * * * * * * * * * * * * * * * * * * * //

dimensions      [0 0 0 1 0 0 0];

internalField   nonuniform List<scalar> 
300
(
5.90513739197147e+16
5.90495133996721e+16
5.90449624164081e+16
5.90373728680905e+16
5.90267895328586e+16
5.9013206443079e+16
5.8996621769059e+16
5.89770400639427e+16
5.89544652041039e+16
5.89289017176148e+16
5.89003548459459e+16
5.886883038781e+16
5.88343347174352e+16
5.87968747759656e+16
5.87564580554856e+16
5.87130925856773e+16
5.86667869189024e+16
5.8617550113927e+16
5.85653917185625e+16
5.85103217511363e+16
5.84523506807831e+16
5.83914894065742e+16
5.83277492354793e+16
5.82611418591584e+16
5.81916793295941e+16
5.81193740335568e+16
5.8044238665908e+16
5.79662862017519e+16
5.78855298674302e+16
5.78019831103729e+16
5.77156595678136e+16
5.76265730343651e+16
5.75347374284817e+16
5.7440166757814e+16
5.7342875083458e+16
5.72428764831298e+16
5.71401850132735e+16
5.70348146701237e+16
5.69267793497435e+16
5.6816092807058e+16
5.67027686139072e+16
5.65868201161543e+16
5.64682603898718e+16
5.63471021966358e+16
5.62233579379691e+16
5.60970396089665e+16
5.59681587511417e+16
5.58367264045433e+16
5.57027530591796e+16
5.55662486057994e+16
5.54272222860867e+16
5.52856826423175e+16
5.51416374665335e+16
5.49950937493001e+16
5.48460576281091e+16
5.46945343354812e+16
5.45405281468497e+16
5.4384042328295e+16
5.42250790842e+16
5.40636395049084e+16
5.38997235144639e+16
5.37333298185177e+16
5.35644558524927e+16
5.33930977300856e+16
5.32192501922091e+16
5.30429065564692e+16
5.28640586672762e+16
5.26826968466892e+16
5.24988098461018e+16
5.23123847988766e+16
5.21234071740415e+16
5.19318607311607e+16
5.17377274764937e+16
5.15409876205656e+16
5.13416195372706e+16
5.11395997246297e+16
5.09349027673312e+16
5.07275013011887e+16
5.05173659796385e+16
5.03044654424106e+16
5.00887662865229e+16
4.98702330397214e+16
4.96488281365088e+16
4.9424511896907e+16
4.91972425080896e+16
4.89669760090311e+16
4.87336662783218e+16
4.84972650252853e+16
4.82577217845458e+16
4.8014983914201e+16
4.77689965977363e+16
4.75197028498278e+16
4.72670435261864e+16
4.70109573375818e+16
4.67513808681958e+16
4.64882485984426e+16
4.62214929323949e+16
4.59510442299624e+16
4.56768308439524e+16
4.53987791621442e+16
4.51168136545072e+16
4.48308569256922e+16
4.45408297729158e+16
4.42466512493495e+16
4.39482387331317e+16
4.36455080021158e+16
4.33383733144504e+16
4.30267474951012e+16
4.27105420284126e+16
4.23896671568226e+16
4.20640319858453e+16
4.173354459544e+16
4.13981121579324e+16
4.10576410626794e+16
4.07120370477265e+16
4.03612053388133e+16
4.00050507961971e+16
3.96434780699531e+16
3.92763917646663e+16
3.8903696614756e+16
3.85252976721017e+16
3.81411005080501e+16
3.77510114320769e+16
3.73549377285083e+16
3.69527879083587e+16
3.65444719543245e+16
3.61299016079757e+16
3.57089880792741e+16
3.52816382604205e+16
3.48477633635048e+16
3.44072822690769e+16
3.39601156465483e+16
3.3506186439573e+16
3.30454200916843e+16
3.2577744805835e+16
3.21030918020261e+16
3.16213955629029e+16
3.11325940640561e+16
3.0636628989464e+16
3.01334459335104e+16
2.96229945908924e+16
2.9105228935204e+16
2.85801073864992e+16
2.80475929678613e+16
2.75076534508016e+16
2.69602614892983e+16
2.6405394742633e+16
2.58430359877026e+16
2.52731732222629e+16
2.46957997618314e+16
2.4110914334769e+16
2.3518521182488e+16
2.29186301752331e+16
2.23112569584177e+16
2.16964231470342e+16
2.10741566061763e+16
2.04444918329319e+16
1.98074703024895e+16
1.91631413530743e+16
1.85115618891829e+16
1.78527894026252e+16
1.71868849091602e+16
1.6513835718808e+16
1.58334048445776e+16
1.514520674977e+16
1.44489369171419e+16
1.37444332733118e+16
1.30316013432452e+16
1.23104039662511e+16
1.15809083043641e+16
1.08434302616464e+16
1.00989822646362e+16
9.3493859186803e+15
8.59700229725978e+15
7.8451147393239e+15
7.09820045977312e+15
6.36155172005063e+15
5.64144217365766e+15
4.94512964801016e+15
4.28015428835263e+15
3.65404352685523e+15
3.07393699795419e+15
2.54581455777955e+15
2.07409831684249e+15
1.66133719922125e+15
1.30785345953692e+15
1.01185891206121e+15
769543265429649
575581121731645
423948950806072
308120113220926
221637709867785
158358587345665
112797870801132
79516978527792
54945722089194.6
37243029273206.4
24486807187867.7
15516522426743.1
9681594539637.99
6157716712645.22
4132909484002.9
2985995795802.34
2329097600124.45
1944245234207.1
1713776534513.46
1573610973310.26
1487946402295.78
1435873065071.62
1404697778940.56
1386649636914.17
1376578524232.03
1371002503337.37
1367627046737.8
1364942672230.93
1361919609863.19
1357869380485.17
1352343134565.3
1345065905778.87
1335888081638.32
1324752592908.55
1311632359714.89
1296561495008.58
1279655220828.45
1261056369125.88
1240929292499.38
1219448931834.04
1196793829409.32
1173141070620.41
1148663118899.03
1123525433921.5
1097884758372.82
1071887895114.38
1045670899297.33
1019358611367.88
993064454512.802
966890467946.162
940927516746.887
915255648042.121
889944556969.113
865054145053.844
840635150540.626
816729973691.839
793373808889.61
770595302942.323
748416536857.257
726853260034.86
705915388219.182
685606476998.536
665920812058.425
646852257502.7
628397785314.401
610551485305.135
593305305760.535
576648955669.922
560571753798.533
545060562046.413
530097331405.323
515665167138.008
501749715001.337
488335280318.031
475405106919.871
462942300772.131
450929989385.353
439351162719.543
428188789997.476
417419637035.427
407021458373.337
396979350937.377
387279534738.386
377909375288.177
368856833705.849
360110482810.468
351659506171.684
343493728638.022
335603646276.648
327980458166.543
320616101695.13
313503283452.921
306635494841.123
300006825969.335
293611246040.512
287437403227.82
281454918394.086
275644610033.988
270013842240.945
264573334207.836
259334817336.979
254309876660.016
249466740533.094
244783812228.822
240299495545.268
236050848908.6
232033249072.058
228293132993.046
224911578795.796
222024515616.207
219928020153.709
219064015665.73
220256042658.229
)
;

boundaryField
{
    electrode
    {
        type            driftDiffusionElectronDensity;
        seec            0.05;
        Edepend         1;
        field_emission  0;
        field_enhancement_factor 55;
        work_function   5;
        value           uniform 5.90513739197147e+16;
    }
    ground
    {
        type            driftDiffusionElectronDensity;
        seec            0.05;
        Edepend         1;
        field_emission  0;
        field_enhancement_factor 55;
        work_function   5;
        value           uniform 222462468862.984;
    }
    otherfaces
    {
        type            empty;
    }
}


// ************************************************************************* //
