/*--------------------------------*- C++ -*----------------------------------*\
| =========                 |                                                 |
| \\      /  F ield         | foam-extend: Open Source CFD                    |
|  \\    /   O peration     | Version:     4.0                                |
|   \\  /    A nd           | Web:         http://www.foam-extend.org         |
|    \\/     M anipulation  |                                                 |
\*---------------------------------------------------------------------------*/
FoamFile
{
    version     2.0;
    format      ascii;
    class       volVectorField;
    location    "3e-06";
    object      J_Arp1;
}
// * * * * * * * * * * * * * * * * * * * * * * * * * * * * * * * * * * * * * //

dimensions      [1 -1 -1 0 0 0 0];

internalField   nonuniform List<vector> 
300
(
(1.79973972559984e+16 -0 -0)
(6.16843167795123e+16 -0 -0)
(1.08754376677952e+17 -0 -0)
(1.51607352639884e+17 -0 -0)
(1.94582245618786e+17 -0 -0)
(2.37787025484093e+17 -0 -0)
(2.80852711024708e+17 -0 -0)
(3.23854755234727e+17 -0 -0)
(3.66787923036259e+17 -0 -0)
(4.09636140904276e+17 -0 -0)
(4.52392771264457e+17 -0 -0)
(4.95049703582882e+17 -0 -0)
(5.37598698377635e+17 -0 -0)
(5.8003190066414e+17 -0 -0)
(6.22341625819207e+17 -0 -0)
(6.64520394921235e+17 -0 -0)
(7.06560964660829e+17 -0 -0)
(7.48456339329983e+17 -0 -0)
(7.90199787198086e+17 -0 -0)
(8.31784857576669e+17 -0 -0)
(8.73205397373028e+17 -0 -0)
(9.14455567236383e+17 -0 -0)
(9.55529858393851e+17 -0 -0)
(9.96423108860501e+17 -0 -0)
(1.03713051974261e+18 -0 -0)
(1.07764767188174e+18 -0 -0)
(1.11797054180719e+18 -0 -0)
(1.15809551804932e+18 -0 -0)
(1.19801941724774e+18 -0 -0)
(1.2377395000735e+18 -0 -0)
(1.27725348697693e+18 -0 -0)
(1.31655957425452e+18 -0 -0)
(1.35565644902778e+18 -0 -0)
(1.39454330496094e+18 -0 -0)
(1.43321985733254e+18 -0 -0)
(1.47168635775669e+18 -0 -0)
(1.50994360888185e+18 -0 -0)
(1.54799297862549e+18 -0 -0)
(1.58583641415699e+18 -0 -0)
(1.62347645548267e+18 -0 -0)
(1.66091624880211e+18 -0 -0)
(1.69815955893231e+18 -0 -0)
(1.73521078197604e+18 -0 -0)
(1.77207495691216e+18 -0 -0)
(1.80875777698678e+18 -0 -0)
(1.84526560032148e+18 -0 -0)
(1.88160546007734e+18 -0 -0)
(1.91778507374509e+18 -0 -0)
(1.95381285199033e+18 -0 -0)
(1.98969790664945e+18 -0 -0)
(2.02545005781279e+18 -0 -0)
(2.0610798402757e+18 -0 -0)
(2.0965985091432e+18 -0 -0)
(2.13201804417453e+18 -0 -0)
(2.16735115353178e+18 -0 -0)
(2.20261127657282e+18 -0 -0)
(2.2378125851237e+18 -0 -0)
(2.27296998410698e+18 -0 -0)
(2.30809911077458e+18 -0 -0)
(2.34321633284058e+18 -0 -0)
(2.37833874538473e+18 -0 -0)
(2.4134841662148e+18 -0 -0)
(2.44867113028401e+18 -0 -0)
(2.48391888238456e+18 -0 -0)
(2.51924736859203e+18 -0 -0)
(2.55467722602227e+18 -0 -0)
(2.59022977112859e+18 -0 -0)
(2.62592698660013e+18 -0 -0)
(2.6617915062193e+18 -0 -0)
(2.69784659838719e+18 -0 -0)
(2.73411614758729e+18 -0 -0)
(2.77062463437821e+18 -0 -0)
(2.8073971132369e+18 -0 -0)
(2.84445918880854e+18 -0 -0)
(2.88183698988847e+18 -0 -0)
(2.9195571417704e+18 -0 -0)
(2.95764673633106e+18 -0 -0)
(2.99613329994199e+18 -0 -0)
(3.03504475977209e+18 -0 -0)
(3.07440940737552e+18 -0 -0)
(3.11425586018371e+18 -0 -0)
(3.15461302114722e+18 -0 -0)
(3.19551003560984e+18 -0 -0)
(3.23697624623991e+18 -0 -0)
(3.27904114543266e+18 -0 -0)
(3.32173432539746e+18 -0 -0)
(3.36508542571677e+18 -0 -0)
(3.40912407881708e+18 -0 -0)
(3.45387985264562e+18 -0 -0)
(3.49938219096857e+18 -0 -0)
(3.54566035129009e+18 -0 -0)
(3.5927433403235e+18 -0 -0)
(3.64065984664381e+18 -0 -0)
(3.68943817122707e+18 -0 -0)
(3.73910615508857e+18 -0 -0)
(3.78969110486608e+18 -0 -0)
(3.84121971552948e+18 -0 -0)
(3.89371799075777e+18 -0 -0)
(3.94721116090714e+18 -0 -0)
(4.00172359842859e+18 -0 -0)
(4.05727873113247e+18 -0 -0)
(4.11389895258074e+18 -0 -0)
(4.17160553065548e+18 -0 -0)
(4.23041851359309e+18 -0 -0)
(4.29035663373629e+18 -0 -0)
(4.35143720884012e+18 -0 -0)
(4.41367604171638e+18 -0 -0)
(4.4770873168431e+18 -0 -0)
(4.54168349550877e+18 -0 -0)
(4.60747520756327e+18 -0 -0)
(4.67447114148239e+18 -0 -0)
(4.74267793094777e+18 -0 -0)
(4.81210003819428e+18 -0 -0)
(4.88273963330927e+18 -0 -0)
(4.9545964683576e+18 -0 -0)
(5.02766774460969e+18 -0 -0)
(5.10194797131248e+18 -0 -0)
(5.17742881214536e+18 -0 -0)
(5.25409891620279e+18 -0 -0)
(5.33194372735175e+18 -0 -0)
(5.41094526545557e+18 -0 -0)
(5.49108187306537e+18 -0 -0)
(5.57232792288395e+18 -0 -0)
(5.65465349421743e+18 -0 -0)
(5.73802416285335e+18 -0 -0)
(5.82239902914073e+18 -0 -0)
(5.90772450352658e+18 -0 -0)
(5.99396349087718e+18 -0 -0)
(6.08108068163309e+18 -0 -0)
(6.16900990654715e+18 -0 -0)
(6.25770075815154e+18 -0 -0)
(6.34711135512071e+18 -0 -0)
(6.43718300513449e+18 -0 -0)
(6.52785246761592e+18 -0 -0)
(6.61905121755311e+18 -0 -0)
(6.71070556197848e+18 -0 -0)
(6.802736774397e+18 -0 -0)
(6.89506121259437e+18 -0 -0)
(6.98759040417109e+18 -0 -0)
(7.08023110118581e+18 -0 -0)
(7.17288531531239e+18 -0 -0)
(7.26545034319548e+18 -0 -0)
(7.35781878767821e+18 -0 -0)
(7.44987858021587e+18 -0 -0)
(7.54151301458576e+18 -0 -0)
(7.63260079022921e+18 -0 -0)
(7.72301606808695e+18 -0 -0)
(7.81262854465276e+18 -0 -0)
(7.9013035445416e+18 -0 -0)
(7.9889021323261e+18 -0 -0)
(8.07528124896901e+18 -0 -0)
(8.16029387690516e+18 -0 -0)
(8.24378921999974e+18 -0 -0)
(8.32561291316622e+18 -0 -0)
(8.4056077460581e+18 -0 -0)
(8.48361195753654e+18 -0 -0)
(8.55946224387531e+18 -0 -0)
(8.63301291459619e+18 -0 -0)
(8.70402202585213e+18 -0 -0)
(8.77241018326694e+18 -0 -0)
(8.83852240505251e+18 -0 -0)
(8.89936844730781e+18 -0 -0)
(8.96080326718522e+18 -0 -0)
(9.01387694349074e+18 -0 -0)
(9.06490121696872e+18 -0 -0)
(9.11322960486171e+18 -0 -0)
(9.1577999138247e+18 -0 -0)
(9.19996874889531e+18 -0 -0)
(9.23332739067587e+18 -0 -0)
(9.27077029086718e+18 -0 -0)
(9.29432601225232e+18 -0 -0)
(9.31912184176507e+18 -0 -0)
(9.34965940198333e+18 -0 -0)
(9.36098706077014e+18 -0 -0)
(9.37485828890285e+18 -0 -0)
(9.3994403983217e+18 -0 -0)
(9.40024616262022e+18 -0 -0)
(9.40730681667357e+18 -0 -0)
(9.42334322787828e+18 -0 -0)
(9.41805110315625e+18 -0 -0)
(9.4262289610463e+18 -0 -0)
(9.4260559727161e+18 -0 -0)
(9.43060500708931e+18 -0 -0)
(9.42203245788177e+18 -0 -0)
(9.43556947468003e+18 -0 -0)
(9.42092577851536e+18 -0 -0)
(9.42891252935821e+18 -0 -0)
(9.41680968023603e+18 -0 -0)
(9.42828575386315e+18 -0 -0)
(9.41302073485976e+18 -0 -0)
(9.4229963549946e+18 -0 -0)
(9.41843636106168e+18 -0 -0)
(9.44496494688169e+18 -0 -0)
(9.46795691563338e+18 -0 -0)
(9.55930003437432e+18 -0 -0)
(9.68808938031395e+18 -0 -0)
(9.91963548967133e+18 -0 -0)
(1.01593936750212e+19 -0 -0)
(1.0416819222903e+19 -0 -0)
(1.06245565571493e+19 -0 -0)
(1.07887660645592e+19 -0 -0)
(1.09081981020609e+19 -0 -0)
(1.10213074821696e+19 -0 -0)
(1.11005396864971e+19 -0 -0)
(1.11689806735209e+19 -0 -0)
(1.12293531249636e+19 -0 -0)
(1.12868935601207e+19 -0 -0)
(1.13401489113668e+19 -0 -0)
(1.1393591914367e+19 -0 -0)
(1.14443241673637e+19 -0 -0)
(1.14972859375449e+19 -0 -0)
(1.15478911724342e+19 -0 -0)
(1.16022051459204e+19 -0 -0)
(1.16539952753878e+19 -0 -0)
(1.17099550427631e+19 -0 -0)
(1.17628888387446e+19 -0 -0)
(1.18202563038597e+19 -0 -0)
(1.18742986388378e+19 -0 -0)
(1.19326738583515e+19 -0 -0)
(1.19871837720086e+19 -0 -0)
(1.2046008262327e+19 -0 -0)
(1.2100211081631e+19 -0 -0)
(1.21587528164993e+19 -0 -0)
(1.22120123306015e+19 -0 -0)
(1.2269327697342e+19 -0 -0)
(1.23211028017022e+19 -0 -0)
(1.2377307156249e+19 -0 -0)
(1.24274101855899e+19 -0 -0)
(1.24820991872529e+19 -0 -0)
(1.2530340011283e+19 -0 -0)
(1.25834162972175e+19 -0 -0)
(1.26294061835391e+19 -0 -0)
(1.26807451947369e+19 -0 -0)
(1.27242670103507e+19 -0 -0)
(1.27735251130885e+19 -0 -0)
(1.28147177923995e+19 -0 -0)
(1.28617105383763e+19 -0 -0)
(1.29005854874021e+19 -0 -0)
(1.29452913506367e+19 -0 -0)
(1.29819471269308e+19 -0 -0)
(1.30244570058296e+19 -0 -0)
(1.30591047080273e+19 -0 -0)
(1.30996383506566e+19 -0 -0)
(1.31321111367569e+19 -0 -0)
(1.31712897592063e+19 -0 -0)
(1.32018293821018e+19 -0 -0)
(1.32392916588813e+19 -0 -0)
(1.32678941586137e+19 -0 -0)
(1.33036473563884e+19 -0 -0)
(1.33299743677305e+19 -0 -0)
(1.33640492870725e+19 -0 -0)
(1.33882564028053e+19 -0 -0)
(1.34206786372948e+19 -0 -0)
(1.34430983897265e+19 -0 -0)
(1.34741066148015e+19 -0 -0)
(1.34952012564886e+19 -0 -0)
(1.35249594382534e+19 -0 -0)
(1.35450075254525e+19 -0 -0)
(1.35739229223723e+19 -0 -0)
(1.35927235287316e+19 -0 -0)
(1.36210658990271e+19 -0 -0)
(1.36385812716448e+19 -0 -0)
(1.36663073522464e+19 -0 -0)
(1.36824337731601e+19 -0 -0)
(1.37093146762294e+19 -0 -0)
(1.37239907146613e+19 -0 -0)
(1.37497426254021e+19 -0 -0)
(1.37631541882544e+19 -0 -0)
(1.37876591826256e+19 -0 -0)
(1.37998580566066e+19 -0 -0)
(1.38234906541651e+19 -0 -0)
(1.3834710323595e+19 -0 -0)
(1.38577344436638e+19 -0 -0)
(1.38679976897998e+19 -0 -0)
(1.38905135497324e+19 -0 -0)
(1.38998444400055e+19 -0 -0)
(1.39220184777181e+19 -0 -0)
(1.39304325281971e+19 -0 -0)
(1.39523100901093e+19 -0 -0)
(1.39598374479582e+19 -0 -0)
(1.39814663313389e+19 -0 -0)
(1.39881904946709e+19 -0 -0)
(1.40094664687273e+19 -0 -0)
(1.40154839478514e+19 -0 -0)
(1.40364990064973e+19 -0 -0)
(1.40418696151676e+19 -0 -0)
(1.4062742608938e+19 -0 -0)
(1.40674833897166e+19 -0 -0)
(1.40882648901347e+19 -0 -0)
(1.40924359375935e+19 -0 -0)
(1.41130771708563e+19 -0 -0)
(1.41166694785994e+19 -0 -0)
(1.41372167492328e+19 -0 -0)
(1.41402718958403e+19 -0 -0)
(1.41607286988096e+19 -0 -0)
(1.4163173417277e+19 -0 -0)
(1.41835822386001e+19 -0 -0)
(1.41852387968166e+19 -0 -0)
(1.42053010063885e+19 -0 -0)
(1.41964153688377e+19 -0 -0)
)
;

boundaryField
{
    electrode
    {
        type            calculated;
        value           uniform (212219781806.263 -0 -0);
    }
    ground
    {
        type            calculated;
        value           uniform (1.42150650908286e+19 -0 -0);
    }
    otherfaces
    {
        type            empty;
    }
}


// ************************************************************************* //
