/*--------------------------------*- C++ -*----------------------------------*\
| =========                 |                                                 |
| \\      /  F ield         | foam-extend: Open Source CFD                    |
|  \\    /   O peration     | Version:     4.0                                |
|   \\  /    A nd           | Web:         http://www.foam-extend.org         |
|    \\/     M anipulation  |                                                 |
\*---------------------------------------------------------------------------*/
FoamFile
{
    version     2.0;
    format      ascii;
    class       volVectorField;
    location    "3e-06";
    object      J_electron;
}
// * * * * * * * * * * * * * * * * * * * * * * * * * * * * * * * * * * * * * //

dimensions      [1 -1 -1 0 0 0 0];

internalField   nonuniform List<vector> 
300
(
(-1.24623254569281e+19 0 0)
(-1.26257417808613e+19 0 0)
(-1.47902199760102e+19 0 0)
(-1.45078022310636e+19 0 0)
(-1.44484133262589e+19 0 0)
(-1.44412128638818e+19 0 0)
(-1.4393197519865e+19 0 0)
(-1.43507297978045e+19 0 0)
(-1.43095168111366e+19 0 0)
(-1.42675192560287e+19 0 0)
(-1.42257009940711e+19 0 0)
(-1.41839895810844e+19 0 0)
(-1.41423393653211e+19 0 0)
(-1.41007752217737e+19 0 0)
(-1.40593013037476e+19 0 0)
(-1.40179209648454e+19 0 0)
(-1.39766389793154e+19 0 0)
(-1.39354595616914e+19 0 0)
(-1.3894386535834e+19 0 0)
(-1.38534234621359e+19 0 0)
(-1.38125736799449e+19 0 0)
(-1.37718400758472e+19 0 0)
(-1.37312252757111e+19 0 0)
(-1.36907315405243e+19 0 0)
(-1.36503606892323e+19 0 0)
(-1.36101142441559e+19 0 0)
(-1.35699932543262e+19 0 0)
(-1.35299983660563e+19 0 0)
(-1.34901297953951e+19 0 0)
(-1.34503873335386e+19 0 0)
(-1.34107702281002e+19 0 0)
(-1.33712773940329e+19 0 0)
(-1.33319071179559e+19 0 0)
(-1.32926572556136e+19 0 0)
(-1.32535251637042e+19 0 0)
(-1.32145076450507e+19 0 0)
(-1.31756009889173e+19 0 0)
(-1.31368009282418e+19 0 0)
(-1.30981026552827e+19 0 0)
(-1.30595007765988e+19 0 0)
(-1.30209894018202e+19 0 0)
(-1.29825619378568e+19 0 0)
(-1.29442113290237e+19 0 0)
(-1.29059298481125e+19 0 0)
(-1.2867709206415e+19 0 0)
(-1.28295404998015e+19 0 0)
(-1.27914142234003e+19 0 0)
(-1.27533202380853e+19 0 0)
(-1.27152478090114e+19 0 0)
(-1.26771855903545e+19 0 0)
(-1.26391215884072e+19 0 0)
(-1.26010431895859e+19 0 0)
(-1.25629372211066e+19 0 0)
(-1.25247898114901e+19 0 0)
(-1.24865864747718e+19 0 0)
(-1.24483121927571e+19 0 0)
(-1.24099512463196e+19 0 0)
(-1.23714873599011e+19 0 0)
(-1.23329036275606e+19 0 0)
(-1.22941825591699e+19 0 0)
(-1.2255306123644e+19 0 0)
(-1.22162556241162e+19 0 0)
(-1.21770118608142e+19 0 0)
(-1.21375550604449e+19 0 0)
(-1.20978649158341e+19 0 0)
(-1.20579205822129e+19 0 0)
(-1.20177006789413e+19 0 0)
(-1.19771833850221e+19 0 0)
(-1.19363463352156e+19 0 0)
(-1.18951667627393e+19 0 0)
(-1.18536213956759e+19 0 0)
(-1.18116866043441e+19 0 0)
(-1.1769338299448e+19 0 0)
(-1.1726552073422e+19 0 0)
(-1.16833031213078e+19 0 0)
(-1.16395663460283e+19 0 0)
(-1.15953163731198e+19 0 0)
(-1.15505274791629e+19 0 0)
(-1.15051737984378e+19 0 0)
(-1.14592292471597e+19 0 0)
(-1.14126675021044e+19 0 0)
(-1.13654621870705e+19 0 0)
(-1.13175867598213e+19 0 0)
(-1.12690146586856e+19 0 0)
(-1.1219719274011e+19 0 0)
(-1.1169674031352e+19 0 0)
(-1.11188523583621e+19 0 0)
(-1.10672278239495e+19 0 0)
(-1.10147741091223e+19 0 0)
(-1.09614650644056e+19 0 0)
(-1.09072747599123e+19 0 0)
(-1.08521775677445e+19 0 0)
(-1.07961480892457e+19 0 0)
(-1.07391613787607e+19 0 0)
(-1.06811927603472e+19 0 0)
(-1.0622218088809e+19 0 0)
(-1.05622136847026e+19 0 0)
(-1.05011563541016e+19 0 0)
(-1.04390235133879e+19 0 0)
(-1.03757931360588e+19 0 0)
(-1.03114439266329e+19 0 0)
(-1.02459551907248e+19 0 0)
(-1.01793070048388e+19 0 0)
(-1.01114802075038e+19 0 0)
(-1.00424564803146e+19 0 0)
(-9.97221824449584e+18 0 0)
(-9.90074893101905e+18 0 0)
(-9.82803275883531e+18 0 0)
(-9.75405510985358e+18 0 0)
(-9.67880223324897e+18 0 0)
(-9.60226160600102e+18 0 0)
(-9.52442192500097e+18 0 0)
(-9.44527325305609e+18 0 0)
(-9.36480725779559e+18 0 0)
(-9.28301756385801e+18 0 0)
(-9.19990001862391e+18 0 0)
(-9.11545348310277e+18 0 0)
(-9.02968045131163e+18 0 0)
(-8.94258820540583e+18 0 0)
(-8.85419014915306e+18 0 0)
(-8.76450700451748e+18 0 0)
(-8.67356746281805e+18 0 0)
(-8.58140486551837e+18 0 0)
(-8.48804229252435e+18 0 0)
(-8.39342121426564e+18 0 0)
(-8.2978512731253e+18 0 0)
(-8.18806576791578e+18 0 0)
(-8.07400289091872e+18 0 0)
(-8.00259501641957e+18 0 0)
(-7.89797745640394e+18 0 0)
(-7.79311696185708e+18 0 0)
(-7.68663744584719e+18 0 0)
(-7.57868572103305e+18 0 0)
(-7.46923756247686e+18 0 0)
(-7.35822142601167e+18 0 0)
(-7.24554010952466e+18 0 0)
(-7.13108508138013e+18 0 0)
(-7.0147399760992e+18 0 0)
(-6.89637942457532e+18 0 0)
(-6.77586549293659e+18 0 0)
(-6.65304341797457e+18 0 0)
(-6.52773714371071e+18 0 0)
(-6.39974502781524e+18 0 0)
(-6.26883451635211e+18 0 0)
(-6.13473731190509e+18 0 0)
(-5.99714410760923e+18 0 0)
(-5.85569854800318e+18 0 0)
(-5.70999064134523e+18 0 0)
(-5.55955015279182e+18 0 0)
(-5.40383890909535e+18 0 0)
(-5.2422428601153e+18 0 0)
(-5.07406433360386e+18 0 0)
(-4.89851269588766e+18 0 0)
(-4.71467872475205e+18 0 0)
(-4.52160373495903e+18 0 0)
(-4.31803205626836e+18 0 0)
(-4.1018099703732e+18 0 0)
(-3.87385820147456e+18 0 0)
(-3.62291936071411e+18 0 0)
(-3.32115057110942e+18 0 0)
(-3.03626083808942e+18 0 0)
(-2.29855780025768e+18 0 0)
(-1.17010479903565e+18 0 0)
(-6.54648014364738e+17 0 0)
(-5.32067915361419e+17 0 0)
(-2.05642195298943e+17 0 0)
(4.39113133939753e+17 0 0)
(1.03029366639611e+18 0 0)
(1.69308956366628e+18 0 0)
(1.88152799192888e+18 0 0)
(6.46415639990239e+17 0 0)
(4.22712409601343e+17 0 0)
(7.87557041529946e+17 0 0)
(-9.30306309428871e+17 0 0)
(-1.88329036456604e+18 0 0)
(-1.72510671280171e+18 0 0)
(-3.38504302822792e+18 0 0)
(-3.74677722484546e+18 0 0)
(-2.56495823233221e+18 0 0)
(-2.03475546641583e+18 0 0)
(-1.54294497457471e+17 0 0)
(2.96148604780806e+18 0 0)
(5.72869508403193e+18 0 0)
(9.05066946133544e+18 0 0)
(1.2446943225103e+19 0 0)
(1.4525066267761e+19 0 0)
(1.6787109908637e+19 0 0)
(1.67575608243176e+19 0 0)
(1.5150881552764e+19 0 0)
(1.40402635573049e+19 0 0)
(1.07981154022574e+19 0 0)
(8.78790746401761e+18 0 0)
(5.44703910446524e+18 0 0)
(6.37386344396915e+18 0 0)
(-6.45119264657408e+17 0 0)
(-1.30799760583016e+18 0 0)
(-1.09512081398939e+18 0 0)
(-3.14513593409344e+18 0 0)
(-2.85299992296709e+18 0 0)
(-2.78382110221946e+18 0 0)
(-2.86000570150487e+18 0 0)
(-3.05825457504111e+18 0 0)
(-3.23774578536482e+18 0 0)
(-3.34080716150144e+18 0 0)
(-3.38421169059916e+18 0 0)
(-3.38213823330151e+18 0 0)
(-3.36119495770376e+18 0 0)
(-3.32133994200342e+18 0 0)
(-3.27973153736678e+18 0 0)
(-3.23049043311382e+18 0 0)
(-3.17867574219178e+18 0 0)
(-3.12546108384398e+18 0 0)
(-3.07157296698583e+18 0 0)
(-3.01605598817257e+18 0 0)
(-2.96001385135664e+18 0 0)
(-2.90347456424351e+18 0 0)
(-2.84665108931656e+18 0 0)
(-2.78968131233564e+18 0 0)
(-2.73268367563208e+18 0 0)
(-2.67582441599735e+18 0 0)
(-2.61881654108845e+18 0 0)
(-2.56299496609476e+18 0 0)
(-2.50712892872342e+18 0 0)
(-2.45191044861503e+18 0 0)
(-2.39734807377911e+18 0 0)
(-2.34354721721951e+18 0 0)
(-2.29057568789177e+18 0 0)
(-2.23850460204634e+18 0 0)
(-2.18738677634395e+18 0 0)
(-2.13726713056122e+18 0 0)
(-2.08818249192116e+18 0 0)
(-2.04016169985078e+18 0 0)
(-1.99322724637431e+18 0 0)
(-1.94739452282068e+18 0 0)
(-1.90267342802117e+18 0 0)
(-1.8590682403226e+18 0 0)
(-1.81657838984626e+18 0 0)
(-1.77519896824211e+18 0 0)
(-1.73492111062795e+18 0 0)
(-1.69573274208033e+18 0 0)
(-1.65761869735647e+18 0 0)
(-1.62056301568268e+18 0 0)
(-1.58454745907214e+18 0 0)
(-1.54954381788296e+18 0 0)
(-1.51552795088791e+18 0 0)
(-1.48247925408784e+18 0 0)
(-1.45037197617075e+18 0 0)
(-1.41916952090812e+18 0 0)
(-1.38882892083362e+18 0 0)
(-1.35947251763751e+18 0 0)
(-1.33087391450315e+18 0 0)
(-1.30309539027602e+18 0 0)
(-1.27610043865641e+18 0 0)
(-1.24986517909882e+18 0 0)
(-1.22438570325314e+18 0 0)
(-1.19957290017602e+18 0 0)
(-1.17546033640836e+18 0 0)
(-1.15206580380508e+18 0 0)
(-1.12927492578489e+18 0 0)
(-1.10709496780242e+18 0 0)
(-1.08552278405321e+18 0 0)
(-1.06452744461115e+18 0 0)
(-1.04409046289203e+18 0 0)
(-1.02418755186511e+18 0 0)
(-1.00480817211143e+18 0 0)
(-9.85855342416828e+17 0 0)
(-9.67539215923903e+17 0 0)
(-9.49613606156682e+17 0 0)
(-9.3214800972321e+17 0 0)
(-9.15114154477819e+17 0 0)
(-8.98504976726913e+17 0 0)
(-8.82306279467165e+17 0 0)
(-8.66505438026092e+17 0 0)
(-8.51089765491806e+17 0 0)
(-8.36047186017678e+17 0 0)
(-8.21365898519736e+17 0 0)
(-8.07034641300397e+17 0 0)
(-7.93042277248213e+17 0 0)
(-7.79378113397414e+17 0 0)
(-7.66029784913892e+17 0 0)
(-7.52983975920274e+17 0 0)
(-7.40191160258147e+17 0 0)
(-7.27620147016663e+17 0 0)
(-7.15721588483097e+17 0 0)
(-7.03887310513827e+17 0 0)
(-6.92348705059187e+17 0 0)
(-6.81059234197731e+17 0 0)
(-6.70061067311072e+17 0 0)
(-6.58958272910547e+17 0 0)
(-6.48921511706402e+17 0 0)
(-6.38790442670318e+17 0 0)
(-6.28836831999825e+17 0 0)
(-6.1898898819435e+17 0 0)
(-6.10217606622865e+17 0 0)
(-6.00902465725979e+17 0 0)
(-5.92842891370049e+17 0 0)
(-5.8474004352134e+17 0 0)
(-5.78166602760952e+17 0 0)
(-5.72052747597582e+17 0 0)
(-5.62170619354034e+17 0 0)
)
;

boundaryField
{
    electrode
    {
        type            calculated;
        value           uniform (-1.46679295631313e+19 0 0);
    }
    ground
    {
        type            calculated;
        value           uniform (-5.59606358458878e+17 0 0);
    }
    otherfaces
    {
        type            empty;
    }
}


// ************************************************************************* //
