/*--------------------------------*- C++ -*----------------------------------*\
| =========                 |                                                 |
| \\      /  F ield         | foam-extend: Open Source CFD                    |
|  \\    /   O peration     | Version:     4.0                                |
|   \\  /    A nd           | Web:         http://www.foam-extend.org         |
|    \\/     M anipulation  |                                                 |
\*---------------------------------------------------------------------------*/
FoamFile
{
    version     2.0;
    format      ascii;
    class       volScalarField;
    location    "3e-06";
    object      N_electronMean;
}
// * * * * * * * * * * * * * * * * * * * * * * * * * * * * * * * * * * * * * //

dimensions      [0 0 0 1 0 0 0];

internalField   nonuniform List<scalar> 
300
(
6.03165227758344e+16
6.0315143474005e+16
6.03110859046368e+16
6.03037711253899e+16
6.02932146731426e+16
6.02793627038803e+16
6.02621772814662e+16
6.02416335174403e+16
6.02177098967304e+16
6.01903900075865e+16
6.01596618376504e+16
6.01255173860271e+16
6.00879523333516e+16
6.00469657323638e+16
6.00025597910395e+16
5.99547396568296e+16
5.99035132360753e+16
5.98488910405878e+16
5.9790886039385e+16
5.97295135195975e+16
5.96647909653908e+16
5.95967379445723e+16
5.9525376000175e+16
5.94507285396823e+16
5.93728207583598e+16
5.92916795826911e+16
5.92073335551295e+16
5.91198127200352e+16
5.902914853397e+16
5.89353737396581e+16
5.88385222906602e+16
5.87386293438838e+16
5.86357311476143e+16
5.85298648509951e+16
5.84210683726576e+16
5.83093802997538e+16
5.81948397893472e+16
5.80774864801785e+16
5.79573603948082e+16
5.78345018402745e+16
5.77089513304224e+16
5.75807495057288e+16
5.74499370332431e+16
5.73165545160544e+16
5.71806424173889e+16
5.70422409870598e+16
5.69013901941158e+16
5.67581296690048e+16
5.66124986635513e+16
5.64645360284106e+16
5.63142802317747e+16
5.61617693795196e+16
5.60070411690298e+16
5.58501327871143e+16
5.56910807557453e+16
5.55299207723734e+16
5.53666875746327e+16
5.52014148366267e+16
5.50341350920331e+16
5.48648796595445e+16
5.46936785771471e+16
5.45205605418313e+16
5.43455528410268e+16
5.41686813461152e+16
5.3989970580484e+16
5.38094436516441e+16
5.36271220559303e+16
5.34430255635322e+16
5.3257172164537e+16
5.30695780124115e+16
5.28802573655533e+16
5.26892225609811e+16
5.24964840500418e+16
5.23020503657382e+16
5.21059280111914e+16
5.19081214601814e+16
5.17086331986886e+16
5.15074636642027e+16
5.13046110883521e+16
5.11000713955235e+16
5.08938381810778e+16
5.06859025447349e+16
5.04762529283869e+16
5.02648750513903e+16
5.00517518725281e+16
4.98368635981271e+16
4.96201875951998e+16
4.94016982260902e+16
4.91813667619394e+16
4.89591613535938e+16
4.87350469497643e+16
4.85089853033873e+16
4.82809350013528e+16
4.80508512561277e+16
4.7818685706637e+16
4.75843863437533e+16
4.7347897432744e+16
4.71091594357305e+16
4.68681089334771e+16
4.66246785711782e+16
4.63787970009686e+16
4.61303887745085e+16
4.58793743081506e+16
4.56256698934258e+16
4.53691875708351e+16
4.51098350327797e+16
4.48475155775325e+16
4.45821280339077e+16
4.43135667250579e+16
4.40417213707563e+16
4.37664769674723e+16
4.34877137229125e+16
4.32053070168396e+16
4.29191274023528e+16
4.26290405691014e+16
4.23349073075288e+16
4.20365835851738e+16
4.17339205574113e+16
4.14267644349981e+16
4.11149563744949e+16
4.0798332502433e+16
4.04767239853548e+16
4.01499570834925e+16
3.98178532306055e+16
3.94802289803861e+16
3.91368958606772e+16
3.87876603791504e+16
3.84323240943501e+16
3.80706836048518e+16
3.77025305692511e+16
3.73276517978067e+16
3.69458293474773e+16
3.65568406004197e+16
3.61604583456642e+16
3.57564510139174e+16
3.53445829704835e+16
3.49246145785754e+16
3.44963022241088e+16
3.40593985564092e+16
3.36136527460589e+16
3.31588105983993e+16
3.26946146931277e+16
3.22208046308573e+16
3.17371173384701e+16
3.1243287491395e+16
3.07390479010466e+16
3.02241297232706e+16
2.9698262650442e+16
2.91611751198535e+16
2.86125947019793e+16
2.80522486666031e+16
2.74798643455104e+16
2.68951695585477e+16
2.6297893187474e+16
2.56877656008194e+16
2.5064519231319e+16
2.44278894022529e+16
2.37776152266864e+16
2.31134404895222e+16
2.2435114623176e+16
2.17423939284727e+16
2.10350419474595e+16
2.03128262239861e+16
1.95755059618208e+16
1.88228122737455e+16
1.80544355840909e+16
1.7270026155568e+16
1.64692038544132e+16
1.56515742980427e+16
1.48167605831685e+16
1.39644662158458e+16
1.30945996055304e+16
1.22075168168732e+16
1.1304327690915e+16
1.03872053057716e+16
9.45973330363137e+15
8.52724963767817e+15
7.59713512739917e+15
6.67890841752733e+15
5.78402583025866e+15
4.92540491478429e+15
4.11663164546034e+15
3.37082481838973e+15
2.69936681757332e+15
2.11070298184777e+15
1.60933919089719e+15
1.19535540797197e+15
864530009003165
608992120475092
418341307691800
280965273090352
185294251938835
120772584740386
78561374400516.5
50957506974435.3
32899406507625.1
21196927858961
13700644093571.4
9095079668064.09
6368196773695.59
4803638663153.63
3920533662246.47
3410424267682.35
3098617808911.52
2895001543358.15
2753243459841.06
2648598599453.08
2567028762767.59
2500140388301.86
2442687521023
2391320287192.67
2343794961351.75
2298600830096.97
2254718056006.07
2211453652827.97
2168337705846.77
2125064478569.95
2081447660377.16
2037387612339.94
1992849992549.36
1947849040546.58
1902409031226.71
1856582146631.05
1810463220871.83
1764164205638.03
1717806304893.22
1671513725606.8
1625407891198.67
1579605378624.39
1534215567045.84
1489339144405.16
1445068717606.11
1401486711256.03
1358665966452.51
1316670388576.96
1275554329588.16
1235362763467.17
1196133014830.07
1157893675240.89
1120665915366.12
1084464757794.28
1049298533842.48
1015171040128.86
982081286191.482
950023872356.505
918989516833.39
888963496069.456
859927790485.365
831862118978.919
804744469414.591
778553078192.472
753265824827.188
728859488366.361
705309624501.687
682591451240.785
660680427308.307
639552551161.642
619181792115.921
599540811631.359
580605567896.362
562353401769.405
544760285214.709
527802699592.367
511457154305.03
495700783308.278
480511840577.814
465868451884.608
451748777189.985
438131538076.829
424996128157.136
412322453307.374
400092560834.634
388290468679.47
376901895294.024
365913391022.649
355312356919.224
345086861854.689
335225408260.139
325717420063.893
316553261710.101
307723961060.523
299220009400.403
291031744981.791
283138350090.871
275515707086.379
268157385557.448
261067726070.481
254252184969.287
247716333806.165
241444347599.787
235415597320.242
229643405203.811
224160142031.932
218962546104.991
214075949543.707
209569322850.689
205549740095.877
202238268039.783
199991326431.005
199452796777.254
)
;

boundaryField
{
    electrode
    {
        type            calculated;
        value           uniform 6.03165227762278e+16;
    }
    ground
    {
        type            calculated;
        value           uniform 200502135275.898;
    }
    otherfaces
    {
        type            empty;
    }
}


// ************************************************************************* //
