/*--------------------------------*- C++ -*----------------------------------*\
| =========                 |                                                 |
| \\      /  F ield         | foam-extend: Open Source CFD                    |
|  \\    /   O peration     | Version:     4.0                                |
|   \\  /    A nd           | Web:         http://www.foam-extend.org         |
|    \\/     M anipulation  |                                                 |
\*---------------------------------------------------------------------------*/
FoamFile
{
    version     2.0;
    format      ascii;
    class       volScalarField;
    location    "3e-06";
    object      Phi;
}
// * * * * * * * * * * * * * * * * * * * * * * * * * * * * * * * * * * * * * //

dimensions      [0 0 0 1 0 0 0];

internalField   nonuniform List<scalar> 
300
(
699.999939888265
699.999723889593
699.99924194302
699.998509387754
699.99753683678
699.996320945464
699.994862058884
699.993160418809
699.991216021941
699.989028956107
699.986599318662
699.983927211711
699.981012748954
699.97785605331
699.974457255903
699.97081649531
699.966933916527
699.962809669872
699.958443909802
699.953836793648
699.948988480243
699.943899128467
699.93856889569
699.932997936117
699.927186399029
699.921134426924
699.914842153546
699.908309701808
699.9015371816
699.894524687481
699.88727229626
699.879780064443
699.872048025564
699.864076187391
699.855864528992
699.847412997676
699.838721505794
699.829789927397
699.82061809476
699.811205794747
699.80155276504
699.791658690205
699.781523197607
699.77114585317
699.760526156964
699.74966353864
699.738557352687
699.727206873524
699.715611290416
699.703769702209
699.691681111893
699.679344420973
699.666758423657
699.653921800857
699.640833113998
699.62749079862
699.613893157799
699.600038355353
699.585924408845
699.571549182386
699.556910379211
699.542005534055
699.5268320053
699.511386966902
699.495667400093
699.479670084846
699.463391591111
699.44682826981
699.429976243577
699.412831397259
699.395389368152
699.377645535979
699.35959501259
699.341232631391
699.322552936483
699.303550171511
699.284218268196
699.264550834565
699.244541142849
699.224182117036
699.203466320077
699.182385940719
699.160932779954
699.139098237067
699.11687329525
699.094248506787
699.071213977749
699.047759352218
699.023873795961
698.999545979574
698.974764061018
698.949515667539
698.923787876921
698.897567198024
698.870839550569
698.843590244106
698.815803956113
698.787464709168
698.758555847118
698.729060010164
698.698959108802
698.668234296506
698.636865941073
698.604833594512
698.572115961367
698.538690865346
698.504535214117
698.469624962117
698.433935071209
698.397439469017
698.360111004724
698.321921402147
698.282841209831
698.242839747944
698.201885051683
698.159943810933
698.116981305875
698.07296133824
698.027846157919
697.981596384614
697.934170924283
697.885526880117
697.835619457851
697.78440186518
697.731825204867
697.677838358338
697.622387896408
697.565418065461
697.506870093144
697.446682418245
697.384790632996
697.321126731868
697.255619136557
697.18819242903
697.118767074201
697.047259111854
696.973579813568
696.897635300346
696.819326116305
696.738546753087
696.655185118747
696.5691219437
696.480230115024
696.388373928862
696.29340824893
696.195177556907
696.093514878058
695.988240562426
695.879160898251
695.76606653002
695.648730648255
695.526906911839
695.400327055979
695.268698129836
695.131699295152
694.988978103662
694.840146176581
694.684774067601
694.522385231579
694.352449794907
694.174372949161
693.987485546955
693.791045335108
693.584082654795
693.365391943639
693.133658871114
692.88741081087
692.62494439058
692.3442152023
692.04285482878
691.717971075332
691.366398882685
690.984948046923
690.569595643943
690.115840463615
689.61936857922
689.075026566511
688.477193482345
687.820958219458
687.100645693846
686.310579274481
685.445951535564
684.50181350853
683.473486430239
682.357777689645
681.151412567113
679.851724933784
678.457498984054
676.968070792039
675.382864020308
673.701793170082
671.925798069591
670.056025784694
668.093492120075
666.038956989425
663.892659915004
661.655249427064
659.32617322057
656.90491091755
654.390836570614
651.783648664677
649.083350309015
646.290223445851
643.405021376233
640.428724631588
637.362278851392
634.206578360272
630.962432347834
627.630584141719
624.211683883608
620.706317861209
617.114977574232
613.438329697426
609.677109448548
605.83200464845
601.903613211652
597.892499316899
593.799144750425
589.624006769148
585.367468212834
581.029896419956
576.611590026584
572.11284116815
567.533877474019
562.874927650415
558.136292472262
553.318412811261
548.421670395591
543.44645711903
538.39310864094
533.261975002467
528.053351437895
522.767553081927
517.404839643368
511.965496379651
506.449752957377
500.857866993647
495.190042038768
489.446510615168
483.627452654231
477.733077239996
471.76354218413
465.719033976485
459.599748216319
453.406032428072
447.138180013178
440.796517720332
434.381318863704
427.892891747857
421.331491472279
414.69741153413
407.990890314313
401.212207194144
394.361585176641
387.439289139639
380.445526786836
373.380547345338
366.244543613987
359.037748958375
351.760340290343
344.412537300976
336.99450070625
329.506437723796
321.948494074743
314.320865926452
306.623686032111
298.857140598581
291.021351581159
283.116495165195
275.14279516224
267.100536114013
258.989937776073
250.811273520203
242.564751121789
234.250633523046
225.869116838995
217.420454234883
208.904830111846
200.322488493527
191.6736025506
182.958407672157
174.177066216503
165.329805147777
156.41677709625
147.438200697161
138.394218968987
129.285042461939
120.110804529317
110.871708052623
101.567876970995
92.1995066614275
82.7667123153546
73.2696822737231
63.7085231658466
54.0834164963126
44.3944607070445
34.641831156064
24.8256182917028
14.945992466325
5.00303756239802
)
;

boundaryField
{
    electrode
    {
        type            fixedValue;
        value           uniform 700;
    }
    ground
    {
        type            fixedValue;
        value           uniform 0;
    }
    otherfaces
    {
        type            empty;
    }
}


// ************************************************************************* //
