/*--------------------------------*- C++ -*----------------------------------*\
| =========                 |                                                 |
| \\      /  F ield         | foam-extend: Open Source CFD                    |
|  \\    /   O peration     | Version:     4.0                                |
|   \\  /    A nd           | Web:         http://www.foam-extend.org         |
|    \\/     M anipulation  |                                                 |
\*---------------------------------------------------------------------------*/
FoamFile
{
    version     2.0;
    format      ascii;
    class       volScalarField;
    location    "3e-06";
    object      PhiMean;
}
// * * * * * * * * * * * * * * * * * * * * * * * * * * * * * * * * * * * * * //

dimensions      [0 0 0 1 0 0 0];

internalField   nonuniform List<scalar> 
300
(
699.975521253379
699.973266906072
699.97076712462
699.968036653267
699.965085002465
699.96190386406
699.958491179925
699.954844909738
699.950963180469
699.946844572119
699.942487932568
699.937892400291
699.933057342741
699.927982340701
699.922667168382
699.917111773866
699.911316263674
699.905280892683
699.899006051237
699.892492253091
699.885740127461
699.878750410498
699.871523937737
699.864061636286
699.856364516164
699.848433682553
699.840270316397
699.83187566799
699.823251056362
699.81439785518
699.805317482894
699.796011426538
699.786481228642
699.776728460352
699.766754717071
699.756561612564
699.746150772135
699.73552383047
699.724682424744
699.713628186301
699.702362738169
699.690887692902
699.679204641854
699.667315150656
699.655220754767
699.642922954977
699.630423212956
699.617722948913
699.604823539097
699.591726319903
699.578432589756
699.564943630638
699.551260692932
699.537385000131
699.523317720087
699.509059954935
699.494612721766
699.479976945894
699.465153455472
699.450142974197
699.434946116739
699.419563383176
699.403995151943
699.388241672413
699.372303097798
699.356179476963
699.339870709891
699.323376542734
699.306696562723
699.289830191137
699.272776676401
699.25553508475
699.238104315746
699.220483102638
699.202669977281
699.184663279431
699.166461174843
699.14806163477
699.129462423836
699.110661054405
699.091654835009
699.072440804769
699.053015717659
699.033376037732
699.013517919582
698.993437227668
698.97312951359
698.952589978658
698.931813458111
698.9107944235
698.889526958212
698.868004737765
698.846221083197
698.824168869487
698.80184050023
698.779227892375
698.756322452128
698.733115057027
698.709596025989
698.685755103727
698.661581439702
698.637063551853
698.612189289684
698.58694585769
698.56131973819
698.535296663317
698.508861597475
698.481998674525
698.454691192009
698.426921548557
698.398671188054
698.369920558625
698.340649058197
698.310834999406
698.280455557817
698.249486693857
698.217903133212
698.185678315559
698.15278428415
698.119191598432
698.084869251829
698.049784628048
698.013903380934
697.977189390478
697.939604624658
697.901108983344
697.861660169211
697.821213587213
697.77972215763
697.737136161607
697.693403068717
697.648467355587
697.602270292754
697.55474970577
697.505839740142
697.455470672062
697.403568554006
697.350054847448
697.294846084625
697.237853503379
697.178982551703
697.118132375604
697.055195267548
696.990056046068
696.922591392585
696.852669117798
696.780147208122
696.704872815857
696.626681069292
696.545393747169
696.460817900098
696.372744072883
696.280944296982
696.185169917226
696.085148812715
695.980582333842
695.871141708173
695.756463805269
695.636146079152
695.509740491092
695.376746396578
695.236601965857
695.088673001312
694.932236283673
694.766452709923
694.590339798071
694.402745085816
694.202310938392
693.987429586397
693.756182520534
693.506274283657
693.234957706215
692.938994306521
692.614625080503
692.257476449486
691.862567802993
691.424310520095
690.936501584946
690.392509974025
689.78528748008
689.107541162546
688.352044873394
687.511833961695
686.58026868534
685.551690366628
684.421259977605
683.185093372601
681.840599818462
680.386290177518
678.821514438264
677.146432168267
675.361886575286
673.469308115946
671.470541247555
669.367086367197
667.160304462698
664.851194977416
662.440444455517
659.92881342709
657.317012422366
654.605833976224
651.796101561314
648.888701328043
645.884757589821
642.785533196127
639.592193825457
636.305821583921
632.927400245613
629.457841918996
625.897971866731
622.248558156856
618.5102940821
614.683950404582
610.770408797389
606.770501039856
602.684991579738
598.514606925242
594.260015407203
589.921857494866
585.500722826268
580.997181755432
576.411760045811
571.74497172418
566.997292613307
562.169195432633
557.261215500041
552.273977870877
547.208067763752
542.064063690106
536.842506843288
531.543935805015
526.16885360367
520.717766195487
515.19115031009
509.589489745221
503.913237272541
498.162855022026
492.338774377177
486.441438823397
480.471261644272
474.428671265855
468.314067503044
462.127873254916
455.870553840667
449.542639847509
443.144616400367
436.676992548123
430.140231156093
423.534821453743
416.861205483606
410.119854230757
403.311190076767
396.435667196306
389.493689260652
382.48569490106
375.412069964816
368.273238601912
361.069569705474
353.801473812401
346.469303779619
339.073457244429
331.614271850299
324.092133118353
316.507363924248
308.860338426258
301.151372212301
293.38084727224
285.549086306885
277.656518428203
269.70351364224
261.690521053151
253.617895524916
245.486075733326
237.295401468231
229.046301663126
220.739101425997
212.374220593236
203.951970046318
195.472761116709
186.93689092896
178.344762869885
169.69666065734
160.992980327025
152.233992520541
143.420086625077
134.551520593522
125.628677760638
116.651803659753
107.621276113086
98.5373284887461
89.4003335578418
80.2105129931626
70.9682352277936
61.6737105320345
52.3273034105414
42.9292133054149
33.4798016684433
23.9792575319612
14.4279404449672
4.82602979954555
)
;

boundaryField
{
    electrode
    {
        type            calculated;
        value           uniform 700.000000000484;
    }
    ground
    {
        type            calculated;
        value           uniform 0;
    }
    otherfaces
    {
        type            empty;
    }
}


// ************************************************************************* //
