/*--------------------------------*- C++ -*----------------------------------*\
| =========                 |                                                 |
| \\      /  F ield         | foam-extend: Open Source CFD                    |
|  \\    /   O peration     | Version:     4.0                                |
|   \\  /    A nd           | Web:         http://www.foam-extend.org         |
|    \\/     M anipulation  |                                                 |
\*---------------------------------------------------------------------------*/
FoamFile
{
    version     2.0;
    format      ascii;
    class       volScalarField;
    location    "3e-06";
    object      Sy_electron;
}
// * * * * * * * * * * * * * * * * * * * * * * * * * * * * * * * * * * * * * //

dimensions      [1 -3 -1 0 0 0 0];

internalField   nonuniform List<scalar> 
300
(
7.37255548653503e-11
7.37363928565299e-11
7.37401141274008e-11
7.37374241910631e-11
7.37340978512684e-11
7.37294164227446e-11
7.37233448601902e-11
7.37159759762779e-11
7.37072932251524e-11
7.36972969482129e-11
7.36859909260955e-11
7.36733771242615e-11
7.36594583168498e-11
7.36442378282384e-11
7.36277193868977e-11
7.36099071667093e-11
7.35908057633654e-11
7.35704201876657e-11
7.35487558411892e-11
7.35258184939205e-11
7.35016142662831e-11
7.34761496071972e-11
7.34494312705273e-11
7.34214662904217e-11
7.33922619263305e-11
7.33618257161551e-11
7.33301653701783e-11
7.32972887630535e-11
7.3263203925709e-11
7.32279189753423e-11
7.31914420628906e-11
7.31537814149945e-11
7.31149452628938e-11
7.30749417680926e-11
7.30337790033364e-11
7.29914649101184e-11
7.29480072464928e-11
7.29034135605891e-11
7.28576911328328e-11
7.28108469193656e-11
7.27628875074055e-11
7.27138190657956e-11
7.26636472853122e-11
7.26123773248968e-11
7.25600137539651e-11
7.25065604932799e-11
7.24520207502254e-11
7.23963969612723e-11
7.2339690710996e-11
7.22819026930923e-11
7.22230326125146e-11
7.21630791790081e-11
7.21020399619586e-11
7.20399113887091e-11
7.19766886141413e-11
7.19123654759117e-11
7.18469343809657e-11
7.17803862488709e-11
7.17127104318586e-11
7.16438946304651e-11
7.15739248210725e-11
7.15027851613647e-11
7.14304578997207e-11
7.13569232733938e-11
7.12821594818586e-11
7.12061425969251e-11
7.11288463975455e-11
7.10502423179995e-11
7.0970299355866e-11
7.08889839793494e-11
7.08062600305639e-11
7.07220886248474e-11
7.06364280753963e-11
7.0549233803259e-11
7.04604581931104e-11
7.03700505549474e-11
7.02779570125413e-11
7.01841203817196e-11
7.00884801295951e-11
6.99909721583977e-11
6.98915288949947e-11
6.97900790386362e-11
6.96865475096313e-11
6.95808553716744e-11
6.94729197024586e-11
6.93626535631169e-11
6.92499658768394e-11
6.91347613140504e-11
6.90169402016686e-11
6.88963984848572e-11
6.87730275886033e-11
6.86467142943233e-11
6.85173408715814e-11
6.83847847598025e-11
6.82489185703968e-11
6.81096100129342e-11
6.79667218214515e-11
6.78201116833397e-11
6.76696321560181e-11
6.75151306340721e-11
6.73564492801308e-11
6.71934249494186e-11
6.70258890928348e-11
6.68536678450455e-11
6.6676581828332e-11
6.64944461655378e-11
6.63070704751518e-11
6.61142587479825e-11
6.59158094092751e-11
6.57115152381632e-11
6.55011633395133e-11
6.52845351327885e-11
6.50614063272231e-11
6.48315469236206e-11
6.45947211956152e-11
6.4350687659674e-11
6.40991990901105e-11
6.38400025788051e-11
6.35728394369958e-11
6.32974452160337e-11
6.30135496959451e-11
6.27208769746248e-11
6.24191453868414e-11
6.21080677212143e-11
6.17873515293473e-11
6.14566992492319e-11
6.11158322294795e-11
6.07645347178709e-11
6.0402324559301e-11
6.00287762416951e-11
5.96436952238982e-11
5.92467452789136e-11
5.88375892033255e-11
5.84158825494913e-11
5.79812745959636e-11
5.75334087044965e-11
5.70719222686125e-11
5.65964466079491e-11
5.61066068496606e-11
5.56020217397531e-11
5.50823033170522e-11
5.45470566452246e-11
5.39958794465457e-11
5.3428361722041e-11
5.28440853012248e-11
5.22426233578471e-11
5.16235397033931e-11
5.09863881357454e-11
5.03307116338447e-11
4.96560414566488e-11
4.89618962281417e-11
4.82477806806908e-11
4.75131843886277e-11
4.67575805608514e-11
4.59804242200725e-11
4.51811510603018e-11
4.43591800543647e-11
4.35139003037307e-11
4.26447099529119e-11
4.17511485790366e-11
4.08325084676674e-11
3.98899597770553e-11
3.89265725079192e-11
3.79396273705106e-11
3.69217026009769e-11
3.58693543216971e-11
3.47830526041723e-11
3.36619821572122e-11
3.25038516950699e-11
3.13039595588472e-11
3.00489442695613e-11
2.87346108770556e-11
2.73712844003001e-11
2.59518781536127e-11
2.44711169710731e-11
2.29487022980821e-11
2.13907494131516e-11
1.98064850524178e-11
1.82360268206066e-11
1.67106944052945e-11
1.52224126598728e-11
1.38241726557294e-11
1.26103332247774e-11
1.16366331922306e-11
1.09914852384136e-11
1.07976850506099e-11
1.1299647344072e-11
1.33310579869346e-11
1.87388904577218e-11
4.09541299275217e-11
1.40982916342781e-10
3.59118909021985e-10
7.70384029568474e-10
1.60545562969619e-09
3.09529178591352e-09
4.82857709183565e-09
6.35705640149371e-09
6.96359875789017e-09
6.42418809227107e-09
5.36752823935858e-09
4.22347765678824e-09
3.32979608492701e-09
2.6904683622561e-09
2.25996584168003e-09
1.9795819655197e-09
1.80710885482233e-09
1.70031804162253e-09
1.63753776092998e-09
1.59809353427652e-09
1.57886666905541e-09
1.57212947177375e-09
1.5708820142582e-09
1.57032192442899e-09
1.57164338408429e-09
1.5732341481306e-09
1.57399426227141e-09
1.5731924975803e-09
1.57035723517047e-09
1.56520625834914e-09
1.55759414825379e-09
1.54747773280972e-09
1.53484082927982e-09
1.51973566171814e-09
1.50122423498245e-09
1.48047609313257e-09
1.45786347116093e-09
1.43359470983259e-09
1.40788201491875e-09
1.38093561788677e-09
1.35296014895244e-09
1.32415189440451e-09
1.29469682593351e-09
1.26476919158361e-09
1.23453058637487e-09
1.20412941542009e-09
1.1737006628674e-09
1.14336593333049e-09
1.11323369862141e-09
1.08339971329701e-09
1.05394755864942e-09
1.02494929334044e-09
9.96466187299801e-10
9.68549685433518e-10
9.41242750632134e-10
9.1458063790138e-10
8.88590848356949e-10
8.63293393224841e-10
8.3870139294244e-10
8.14820454994213e-10
7.91644972931899e-10
7.69168916144717e-10
7.47390122952159e-10
7.26302868732223e-10
7.05898869997026e-10
6.8616711749729e-10
6.67096163002046e-10
6.48671132931388e-10
6.30872324804906e-10
6.13680755418892e-10
5.97080177146888e-10
5.81052923948661e-10
5.65580007176652e-10
5.50642238930962e-10
5.36220413521209e-10
5.22295109179474e-10
5.08846930156396e-10
4.95848890534536e-10
4.83275151861761e-10
4.71108746809623e-10
4.5933389115896e-10
4.47936125559992e-10
4.36901642862996e-10
4.26217315546012e-10
4.15870692604138e-10
4.0585003385878e-10
3.96144342913757e-10
3.86743400822509e-10
3.77637803541585e-10
3.68818992363354e-10
3.60279267718111e-10
3.52011565612416e-10
3.43771515789483e-10
3.35451043324549e-10
3.27338032918385e-10
3.19409624785451e-10
3.1167405685294e-10
3.0414241180021e-10
2.96826371817346e-10
2.89683885571852e-10
2.81642038829655e-10
2.73754196626125e-10
2.66059013083712e-10
2.5859001519507e-10
2.4939786242013e-10
2.40428349670033e-10
2.30493276815724e-10
2.19178776568867e-10
2.05465429910338e-10
1.88379637547238e-10
1.6457652095172e-10
)
;

boundaryField
{
    electrode
    {
        type            zeroGradient;
    }
    ground
    {
        type            zeroGradient;
    }
    otherfaces
    {
        type            empty;
    }
}


// ************************************************************************* //
