/*--------------------------------*- C++ -*----------------------------------*\
| =========                 |                                                 |
| \\      /  F ield         | foam-extend: Open Source CFD                    |
|  \\    /   O peration     | Version:     4.0                                |
|   \\  /    A nd           | Web:         http://www.foam-extend.org         |
|    \\/     M anipulation  |                                                 |
\*---------------------------------------------------------------------------*/
FoamFile
{
    version     2.0;
    format      ascii;
    class       volScalarField;
    location    "3e-06";
    object      Te;
}
// * * * * * * * * * * * * * * * * * * * * * * * * * * * * * * * * * * * * * //

dimensions      [0 0 0 1 0 0 0];

internalField   nonuniform List<scalar> 
300
(
35092.3480331689
35092.5913087608
35092.7651031213
35092.8905605653
35093.0734270693
35093.3005849195
35093.5714703939
35093.8877457997
35094.2490764476
35094.6554342118
35095.1068474551
35095.6033072778
35096.1448156038
35096.7313805385
35097.3630139838
35098.0397326565
35098.7615580512
35099.528516392
35100.3406386725
35101.1979606802
35102.100523017
35103.0483711277
35104.0415553309
35105.0801308489
35106.1641578471
35107.2937014703
35108.468831884
35109.6896243211
35110.9561591292
35112.2685218213
35113.6268031343
35115.0310990839
35116.4815110292
35117.9781457427
35119.521115477
35121.110538043
35122.7465368903
35124.4292411916
35126.1587859343
35127.9353120163
35129.758966345
35131.6299019469
35133.5482780804
35135.5142603546
35137.5280208557
35139.5897382809
35141.6995980779
35143.8577925941
35146.0645212334
35148.3199906192
35150.6244147689
35152.9780152775
35155.3810215078
35157.8336707938
35160.336208656
35162.888889023
35165.4919744673
35168.1457364548
35170.8504556048
35173.606421965
35176.4139352976
35179.2733053838
35182.1848523435
35185.1489069677
35188.1658110702
35191.2359178574
35194.3595923162
35197.5372116215
35200.7691655631
35204.055856996
35207.3977023121
35210.7951319369
35214.24859085
35217.7585391318
35221.3254525393
35224.9498231094
35228.6321597918
35232.3729891183
35236.172855903
35240.0323239742
35243.9519769533
35247.9324190668
35251.9742760009
35256.0781958029
35260.2448498262
35264.4749337263
35268.769168511
35273.1283016442
35277.5531082071
35282.0443921245
35286.6029874574
35291.2297597617
35295.9256075261
35300.6914636872
35305.52829723
35310.4371148799
35315.4189628858
35320.4749289116
35325.6061440344
35330.813784861
35336.0990757666
35341.4632912716
35346.907758562
35352.4338601609
35358.0430367658
35363.7367902682
35369.5166869584
35375.3843609385
35381.3415177508
35387.3899382435
35393.5314826921
35399.7680951814
35406.1018082798
35412.5347480141
35419.0691391596
35425.7073108634
35432.4517026067
35439.3048705071
35446.2694939651
35453.3483826395
35460.5444837757
35467.8608899702
35475.3008477427
35482.867768133
35490.5652445198
35498.3970473255
35506.3680749466
35514.48396579
35522.7457003328
35531.1565580173
35539.724096226
35548.453516657
35557.3504425234
35566.4208263301
35575.6709964129
35585.1076941278
35594.7381112217
35604.5699293985
35614.6113638644
35624.8712120709
35635.3589086652
35646.0845875913
35657.0591523553
35668.2943557245
35679.8028903185
35691.5984917544
35703.6960564444
35716.1117765645
35728.8632951121
35741.9698846187
35755.4526538454
35769.3347875549
35783.6418257259
35798.4019921253
35813.646571773
35829.4103773272
35845.732417512
35862.6562040421
35880.2317888257
35898.5212851795
35917.5883336774
35937.5714284606
35958.7012474518
35981.0513162629
36004.5539942853
36029.2914016703
36055.510496813
36083.4492216713
36113.3326704748
36145.330093398
36179.2476002573
36215.2344902438
36254.1066662253
36295.883091085
36340.5567891692
36389.3821192606
36442.9083999402
36501.7744588058
36568.7415068178
36646.5286347599
36738.6535485329
36851.9489094162
36994.9739584882
37179.3918729228
37423.4738005236
37751.3199335048
38198.4833931477
38815.07033633
39662.8174760734
40843.5527610679
42506.0089228202
44867.9645761041
48275.4185134015
53322.8421122531
60435.3561848519
69710.5010335841
82959.3665417951
101470.239171903
125855.081780638
158411.651010184
200024.875658917
249923.227516748
305204.816377928
362060.269421151
417123.048430131
468194.286338938
514215.69916225
555002.437999545
590848.537243448
622251.08854507
649857.006068473
674226.157432692
695844.052484225
715151.74686122
732534.836369578
748306.734124963
762727.765547434
776012.89943234
788340.46286052
799858.290045509
810692.796347141
820938.219130477
830674.278755865
839978.615949218
848910.229192981
857518.370861849
865843.349118726
873918.021320888
881768.809020373
889416.670783104
896877.811219868
904164.281260026
911284.472962695
918243.538399948
925043.750047034
931684.80517471
938164.096140756
944476.944553174
950616.810394945
956575.477057372
962343.218612102
967908.925687264
973260.213720545
978383.698415376
983265.195409012
987889.662483153
992241.288538992
996303.876992038
1000061.20521743
1003493.62922642
1006582.28377926
1009310.90847076
1011661.1435847
1013614.56053081
1015151.9331692
1016254.87439381
1016896.06472705
1017067.75898603
1016751.14707497
1015922.29610316
1014561.35366702
1012648.03431438
1010162.11835918
1007083.26643297
1003390.78627243
999066.032154221
994085.905946307
988426.809761359
982069.275926258
974990.638809463
967167.818418493
958576.724858198
949192.403455455
938988.892648848
927939.104223719
916014.669479884
903185.766121927
889420.923442947
874686.800313791
858948.002820418
842166.921260132
824305.094811231
805326.137751587
785178.552360042
763808.721964208
741164.940268208
717178.567006959
691772.848318601
664878.925029217
636404.901208664
606238.046674917
574262.402889072
540333.125565137
504263.890942868
465834.649121684
424761.476056997
380646.591752177
332944.536636242
280852.508282537
223320.602282055
)
;

boundaryField
{
    electrode
    {
        type            electronTemperature;
        seec            0.05;
        Tse             1000;
        Edepend         1;
        TFN             1000;
        field_emission  0;
        field_enhancement_factor 55;
        work_function   5;
        value           uniform 35092.3480331689;
    }
    ground
    {
        type            electronTemperature;
        seec            0.05;
        Tse             1000;
        Edepend         1;
        TFN             1000;
        field_emission  0;
        field_enhancement_factor 55;
        work_function   5;
        value           uniform 190650.390447811;
    }
    otherfaces
    {
        type            empty;
    }
}


// ************************************************************************* //
