/*--------------------------------*- C++ -*----------------------------------*\
| =========                 |                                                 |
| \\      /  F ield         | foam-extend: Open Source CFD                    |
|  \\    /   O peration     | Version:     4.0                                |
|   \\  /    A nd           | Web:         http://www.foam-extend.org         |
|    \\/     M anipulation  |                                                 |
\*---------------------------------------------------------------------------*/
FoamFile
{
    version     2.0;
    format      ascii;
    class       volScalarField;
    location    "3e-06";
    object      TeMean;
}
// * * * * * * * * * * * * * * * * * * * * * * * * * * * * * * * * * * * * * //

dimensions      [0 0 0 1 0 0 0];

internalField   nonuniform List<scalar> 
300
(
30160.5257421737
30160.8137730109
30160.8739417903
30160.7307054598
30160.5530427395
30160.3246802704
30160.0485455917
30159.7285083551
30159.3654476095
30158.9606185292
30158.5152088936
30158.030365674
30157.5071921604
30156.9467217856
30156.3499497963
30155.7178295947
30155.0512703969
30154.351147222
30153.6182998814
30152.8535325569
30152.0576196827
30151.2313014103
30150.3752886724
30149.4902615708
30148.5768684673
30147.6357493755
30146.6675203316
30145.6727676869
30144.6520663693
30143.60595502
30142.5349331608
30141.4395134022
30140.3202161305
30139.1775276011
30138.0119117814
30136.8238016783
30135.6136163427
30134.3817796423
30133.1287015944
30131.8547686961
30130.5603482003
30129.245812279
30127.9115204198
30126.5578132098
30125.1850196549
30123.7934564615
30122.3834268828
30120.9552185374
30119.5090963365
30118.0453022129
30116.5640555724
30115.0655845347
30113.5501434725
30112.0179736643
30110.4693133496
30108.9044102928
30107.3234879035
30105.7267492696
30104.1144044753
30102.4866568202
30100.8436992655
30099.1857335933
30097.5129185751
30095.8253916706
30094.1233441837
30092.4069893405
30090.6765223164
30088.9321242701
30087.1739701045
30085.4022385123
30083.6170942978
30081.8186693598
30080.0071177825
30078.1826075699
30076.345274663
30074.4952278894
30072.6326080411
30070.7576035568
30068.8703682893
30066.971033975
30065.0597830087
30063.1368045992
30061.2022476687
30059.2562363781
30057.2988903725
30055.330372642
30053.3508795351
30051.3605811254
30049.3596253512
30047.3481790176
30045.3263802084
30043.2943622062
30041.2523557448
30039.2005578934
30037.139139957
30035.0683198959
30032.9882995779
30030.8992864757
30028.8014812978
30026.6950956914
30024.5803833521
30022.4575424482
30020.3267701878
30018.1883431487
30016.0425333307
30013.8896047189
30011.7298186545
30009.563449384
30007.3908079011
30005.2122098333
30003.0279823119
30000.8384590069
29998.6439672994
29996.4448915319
29994.2416070888
29992.0344734208
29989.82385482
29987.6101772305
29985.393929504
29983.1755328243
29980.9554119398
29978.7340373933
29976.5118871318
29974.2894970071
29972.0674757629
29969.8464188638
29967.6268929585
29965.4095326169
29963.1950324674
29960.9840650557
29958.7773245922
29956.5755788789
29954.3796577123
29952.190337712
29950.0084083523
29947.8348500636
29945.6707086731
29943.5170092063
29941.3748749628
29939.2455688328
29937.130441083
29935.0309058906
29932.94845985
29930.8846999813
29928.8414184074
29926.8206714097
29924.8247540404
29922.8562396463
29920.9178618756
29919.0126455024
29917.1441761846
29915.3164493433
29913.5339878641
29911.802113579
29910.1268478389
29908.5151160319
29906.9750544973
29905.5162856788
29904.1502644536
29902.8906095762
29901.7544125003
29900.7653494679
29899.9596820105
29899.3871498301
29899.1004806293
29899.1519406713
29899.6026706181
29900.5305004246
29902.0272564745
29904.1862432239
29907.0720106584
29910.681646812
29914.9900547851
29919.9701933397
29925.5200922776
29931.5286329687
29937.9073596742
29944.6688425478
29952.23676301
29961.5849265633
29974.5856041284
29994.9169557199
30028.7173144489
30085.6400435016
30181.1715151997
30338.8458889132
30593.8490052044
30999.9128781223
31639.0319839874
32637.5606572694
34195.349866452
36639.5674553312
40509.2426128061
46886.1526133026
56792.4159704378
70899.6223435693
91805.9824206446
120168.329955521
158108.094158407
205508.746243924
260901.737791049
321042.054225606
382271.477718327
440983.789217912
494643.882275322
542084.624857315
583269.539630595
618757.073323799
649367.589535537
675937.062226678
699167.257151734
719627.577935715
737800.825910891
754092.761470236
768830.821713906
782280.818918322
794658.843318917
806141.539526762
816873.468752239
826970.754415245
836529.97793638
845629.189108879
854332.593216541
862697.251397792
870768.779254203
878583.799827233
886171.789039565
893556.077535556
900754.74317957
907781.344373891
914645.516889013
921353.478210586
927908.445798201
934310.831143404
940558.633323599
946647.832026895
952572.489761242
958324.98591596
963896.190110214
969275.64081529
974451.678095488
979411.556552357
984141.632621713
988627.557632552
992854.377063441
996806.71185749
1000468.20115638
1003822.04446082
1006851.57376569
1009539.41913915
1011868.59017344
1013822.34673852
1015383.39773557
1016534.36655147
1017257.71852207
1017535.72010142
1017349.82940257
1016678.33239001
1015516.62339687
1013839.59485705
1011629.90060359
1008869.27605937
1005539.83646914
1001623.49747399
997102.016739727
991957.235589414
986170.507093814
979722.538775123
972594.235411061
964765.884084378
956216.765386533
946925.845477658
936871.566250203
926031.02688019
914380.009020895
901892.983732593
888543.006470646
874301.513490416
859138.196055991
843020.693088339
825914.499339899
807782.524019692
788589.346619103
768291.619571559
746837.939873304
724177.720550282
700250.772472337
674985.94010132
648311.971924153
620144.639444973
590380.071085323
558901.562507242
525575.585107294
490226.324412454
452640.641424367
412548.223283004
369566.275926498
323174.712468066
272615.240295597
216877.755662548
)
;

boundaryField
{
    electrode
    {
        type            calculated;
        value           uniform 30160.5257421777;
    }
    ground
    {
        type            calculated;
        value           uniform 185294.291481143;
    }
    otherfaces
    {
        type            empty;
    }
}


// ************************************************************************* //
