/*--------------------------------*- C++ -*----------------------------------*\
| =========                 |                                                 |
| \\      /  F ield         | foam-extend: Open Source CFD                    |
|  \\    /   O peration     | Version:     4.0                                |
|   \\  /    A nd           | Web:         http://www.foam-extend.org         |
|    \\/     M anipulation  |                                                 |
\*---------------------------------------------------------------------------*/
FoamFile
{
    version     2.0;
    format      ascii;
    class       volScalarField;
    location    "6e-07";
    object      Ar;
}
// * * * * * * * * * * * * * * * * * * * * * * * * * * * * * * * * * * * * * //

dimensions      [0 0 0 1 0 0 0];

internalField   nonuniform List<scalar> 
300
(
3.21880308945828e+22
3.21880308712025e+22
3.21880308942643e+22
3.21880309101974e+22
3.21880309350522e+22
3.21880309674605e+22
3.21880310066929e+22
3.21880310535384e+22
3.21880311076618e+22
3.21880311690589e+22
3.21880312377869e+22
3.21880313138295e+22
3.21880313971901e+22
3.21880314878748e+22
3.21880315858873e+22
3.21880316912297e+22
3.21880318039044e+22
3.2188031923907e+22
3.21880320512289e+22
3.21880321858589e+22
3.2188032327781e+22
3.21880324769741e+22
3.21880326334121e+22
3.21880327970621e+22
3.21880329679029e+22
3.2188033145877e+22
3.21880333309356e+22
3.2188033523025e+22
3.21880337220739e+22
3.21880339280126e+22
3.21880341407855e+22
3.21880343603049e+22
3.2188034586471e+22
3.21880348191919e+22
3.21880350583705e+22
3.21880353039055e+22
3.21880355556962e+22
3.21880358136313e+22
3.21880360775956e+22
3.21880363474741e+22
3.21880366231496e+22
3.21880369045001e+22
3.21880371914039e+22
3.21880374837373e+22
3.21880377813759e+22
3.21880380841947e+22
3.21880383920708e+22
3.21880387048804e+22
3.21880390225096e+22
3.21880393448376e+22
3.21880396717577e+22
3.21880400031364e+22
3.21880403388622e+22
3.21880406787998e+22
3.21880410228269e+22
3.21880413708139e+22
3.2188041722647e+22
3.21880420782149e+22
3.2188042437409e+22
3.21880428001258e+22
3.21880431662602e+22
3.21880435357129e+22
3.21880439083919e+22
3.21880442842239e+22
3.21880446631167e+22
3.21880450449587e+22
3.21880454296665e+22
3.21880458171595e+22
3.21880462073609e+22
3.21880466001982e+22
3.21880469956042e+22
3.21880473935216e+22
3.21880477938923e+22
3.21880481966515e+22
3.21880486017606e+22
3.21880490091705e+22
3.2188049418829e+22
3.21880498307025e+22
3.21880502447322e+22
3.21880506609203e+22
3.21880510792036e+22
3.21880514995584e+22
3.21880519219714e+22
3.21880523464273e+22
3.21880527729346e+22
3.2188053201484e+22
3.21880536320679e+22
3.21880540646956e+22
3.21880544993948e+22
3.21880549361808e+22
3.21880553750859e+22
3.21880558161932e+22
3.21880562594874e+22
3.21880567050172e+22
3.21880571528397e+22
3.21880576030194e+22
3.218805805563e+22
3.21880585107535e+22
3.21880589684916e+22
3.21880594289438e+22
3.21880598922147e+22
3.21880603584209e+22
3.21880608277266e+22
3.21880613002426e+22
3.21880617761306e+22
3.21880622555662e+22
3.21880627387094e+22
3.21880632257714e+22
3.21880637169444e+22
3.21880642124401e+22
3.21880647124924e+22
3.21880652173501e+22
3.21880657272826e+22
3.2188066242571e+22
3.21880667635112e+22
3.21880672904328e+22
3.2188067823684e+22
3.21880683635859e+22
3.21880689105042e+22
3.21880694648292e+22
3.21880700269925e+22
3.21880705974012e+22
3.21880711765276e+22
3.2188071764822e+22
3.21880723627544e+22
3.21880729708263e+22
3.21880735895958e+22
3.21880742195941e+22
3.21880748613948e+22
3.21880755155804e+22
3.21880761827668e+22
3.21880768635756e+22
3.218807755865e+22
3.21880782686671e+22
3.21880789943341e+22
3.21880797363148e+22
3.2188080495302e+22
3.21880812720274e+22
3.21880820672281e+22
3.2188082881619e+22
3.21880837159458e+22
3.21880845709576e+22
3.2188085447421e+22
3.21880863460967e+22
3.21880872677367e+22
3.21880882130378e+22
3.21880891827185e+22
3.21880901774887e+22
3.21880911980492e+22
3.2188092245097e+22
3.21880933192482e+22
3.21880944211165e+22
3.21880955513275e+22
3.21880967104044e+22
3.21880978988439e+22
3.21880991171325e+22
3.21881003656932e+22
3.21881016448543e+22
3.2188102954897e+22
3.21881042960527e+22
3.21881056685404e+22
3.21881070723171e+22
3.21881085073073e+22
3.21881099735373e+22
3.21881114709143e+22
3.21881129988425e+22
3.21881145548099e+22
3.21881161391231e+22
3.21881177613349e+22
3.21881194068387e+22
3.21881210497396e+22
3.21881227106283e+22
3.21881244088021e+22
3.21881261353506e+22
3.21881278346267e+22
3.21881295175569e+22
3.21881312790935e+22
3.21881329648185e+22
3.21881346735105e+22
3.21881363571035e+22
3.2188137960584e+22
3.21881395949768e+22
3.21881410136591e+22
3.21881424526073e+22
3.21881437922914e+22
3.21881448651042e+22
3.21881459170495e+22
3.2188146813211e+22
3.21881475627718e+22
3.21881481950268e+22
3.21881486507044e+22
3.21881490242007e+22
3.21881493428511e+22
3.21881496047742e+22
3.2188149818923e+22
3.21881499634221e+22
3.21881501112394e+22
3.2188150217607e+22
3.21881502856475e+22
3.21881503536806e+22
3.21881503889688e+22
3.2188150434153e+22
3.21881505127262e+22
3.21881505677478e+22
3.21881506311819e+22
3.21881506723431e+22
3.21881506981815e+22
3.21881507329108e+22
3.21881507522214e+22
3.218815077817e+22
3.21881508318443e+22
3.21881508762117e+22
3.21881509195975e+22
3.21881509614233e+22
3.2188150983463e+22
3.21881510136664e+22
3.21881510403965e+22
3.2188151062459e+22
3.21881510971596e+22
3.21881511242729e+22
3.21881511572126e+22
3.21881512095432e+22
3.21881512628453e+22
3.21881513091267e+22
3.21881513550415e+22
3.21881513968231e+22
3.21881514377985e+22
3.2188151481924e+22
3.21881515236065e+22
3.21881515716055e+22
3.21881516178011e+22
3.2188151665703e+22
3.21881517162118e+22
3.21881517628955e+22
3.21881518149261e+22
3.21881518622547e+22
3.21881519124785e+22
3.21881519728792e+22
3.21881520325581e+22
3.2188152091022e+22
3.21881521482797e+22
3.21881522049038e+22
3.21881522614012e+22
3.21881523185018e+22
3.21881523761203e+22
3.21881524347418e+22
3.21881524934399e+22
3.21881525529693e+22
3.21881526115628e+22
3.21881526707714e+22
3.21881527278647e+22
3.21881527854492e+22
3.2188152840086e+22
3.21881528954143e+22
3.21881529476888e+22
3.21881530012036e+22
3.21881530518542e+22
3.21881531043389e+22
3.21881531538069e+22
3.21881532057371e+22
3.21881532541243e+22
3.21881533057243e+22
3.21881533536625e+22
3.21881534042553e+22
3.21881534523253e+22
3.21881535056434e+22
3.21881535538374e+22
3.21881536063365e+22
3.21881536534018e+22
3.21881537049749e+22
3.21881537503968e+22
3.21881538008426e+22
3.21881538445068e+22
3.21881538938083e+22
3.21881539356238e+22
3.21881539837204e+22
3.21881540236861e+22
3.2188154070649e+22
3.21881541087497e+22
3.21881541545942e+22
3.21881541907687e+22
3.21881542354216e+22
3.21881542695137e+22
3.21881543128861e+22
3.21881543447557e+22
3.21881543868093e+22
3.21881544165371e+22
3.21881544572869e+22
3.21881544848187e+22
3.21881545244101e+22
3.21881545498409e+22
3.21881545884446e+22
3.21881546118643e+22
3.21881546495811e+22
3.21881546711138e+22
3.21881547080456e+22
3.21881547276916e+22
3.21881547638952e+22
3.21881547817697e+22
3.21881548251449e+22
)
;

boundaryField
{
    electrode
    {
        type            zeroGradient;
    }
    ground
    {
        type            zeroGradient;
    }
    otherfaces
    {
        type            empty;
    }
}


// ************************************************************************* //
