/*--------------------------------*- C++ -*----------------------------------*\
| =========                 |                                                 |
| \\      /  F ield         | foam-extend: Open Source CFD                    |
|  \\    /   O peration     | Version:     4.0                                |
|   \\  /    A nd           | Web:         http://www.foam-extend.org         |
|    \\/     M anipulation  |                                                 |
\*---------------------------------------------------------------------------*/
FoamFile
{
    version     2.0;
    format      ascii;
    class       volScalarField;
    location    "6e-07";
    object      Arm;
}
// * * * * * * * * * * * * * * * * * * * * * * * * * * * * * * * * * * * * * //

dimensions      [0 0 0 1 0 0 0];

internalField   nonuniform List<scalar> 
300
(
3.57416747701927e+15
3.57604816874116e+15
3.57799832895877e+15
3.57930402012564e+15
3.58012014579775e+15
3.580498583409e+15
3.58048355042415e+15
3.5801064711994e+15
3.57939300003852e+15
3.57836512659314e+15
3.57703861563217e+15
3.57542755408081e+15
3.57354399412989e+15
3.57139853786641e+15
3.56900064187219e+15
3.5663588571984e+15
3.56347799096527e+15
3.56036663862471e+15
3.55703314528405e+15
3.55348398708146e+15
3.54972536549231e+15
3.54576320224825e+15
3.54160318736143e+15
3.53725080267858e+15
3.53269527626028e+15
3.52795443778954e+15
3.52303196385999e+15
3.51792984118238e+15
3.51266170646354e+15
3.50723246247628e+15
3.50162825536034e+15
3.49586049951079e+15
3.48994734399337e+15
3.4838941450228e+15
3.47770598888133e+15
3.47138768664887e+15
3.46493938837849e+15
3.45836762295632e+15
3.45167946835817e+15
3.44487845241528e+15
3.43796807494699e+15
3.43095361913037e+15
3.42383896326655e+15
3.41662779902753e+15
3.40932362672765e+15
3.40192971465311e+15
3.39444700132479e+15
3.38687695614828e+15
3.37921178177718e+15
3.37145010639494e+15
3.36357924751545e+15
3.355611804233e+15
3.34754229372216e+15
3.33938850659192e+15
3.33115853735965e+15
3.3228688036689e+15
3.3145225787667e+15
3.30612277882283e+15
3.29767197986943e+15
3.28917058666011e+15
3.28062292802249e+15
3.27203112217468e+15
3.26339184420542e+15
3.25468705086574e+15
3.24592072118852e+15
3.23711854023917e+15
3.228282550384e+15
3.2194145914248e+15
3.21051624915852e+15
3.20158888749793e+15
3.19263166994569e+15
3.18363741892705e+15
3.17460459010981e+15
3.16554069571014e+15
3.15643211431522e+15
3.14727992531364e+15
3.13809050726512e+15
3.1288596531639e+15
3.11960750889186e+15
3.11030325667448e+15
3.1009817007125e+15
3.09164490657588e+15
3.08228976668372e+15
3.07291859153423e+15
3.06351647323956e+15
3.05409119512915e+15
3.04465449701197e+15
3.03520670111849e+15
3.02573582573342e+15
3.01624969965562e+15
3.00674236452058e+15
2.99716845411881e+15
2.98758358531359e+15
2.97798928021476e+15
2.96838556432588e+15
2.95877246429033e+15
2.94914976172885e+15
2.93951704700274e+15
2.9298633361611e+15
2.92018857829066e+15
2.91049906178114e+15
2.90079612928068e+15
2.89104780488544e+15
2.88128353850834e+15
2.87149402483403e+15
2.86166986382391e+15
2.85182621105699e+15
2.84194330819057e+15
2.83203165818729e+15
2.82209671795386e+15
2.81213660188888e+15
2.80214903479413e+15
2.7921262514395e+15
2.7820660519356e+15
2.77196625017658e+15
2.76180916208437e+15
2.75157580013086e+15
2.74129111601703e+15
2.73095594932731e+15
2.72056224141003e+15
2.71008347411199e+15
2.69953279233806e+15
2.6888810247723e+15
2.67813865178934e+15
2.66731713724553e+15
2.65641430795816e+15
2.64540189198766e+15
2.63429749011495e+15
2.62309019135224e+15
2.61177800487572e+15
2.6003452304207e+15
2.58878802687423e+15
2.577101440974e+15
2.56525936165439e+15
2.55322517745482e+15
2.54101790109876e+15
2.52864148726286e+15
2.51607081397798e+15
2.50328697399427e+15
2.49029920740237e+15
2.47709147235149e+15
2.4636471468567e+15
2.44993405080777e+15
2.43592006879163e+15
2.42158050507076e+15
2.40693533698022e+15
2.3919696227223e+15
2.37666702673117e+15
2.36099702106158e+15
2.34491053692043e+15
2.32842022452412e+15
2.31150133630676e+15
2.29409138346312e+15
2.27618935322877e+15
2.25777702120794e+15
2.23880457311784e+15
2.21922867717929e+15
2.19904891898106e+15
2.17824616902047e+15
2.15677538827613e+15
2.13460094535962e+15
2.11170784691026e+15
2.08805767460166e+15
2.06366314288908e+15
2.03851129306623e+15
2.01254729396072e+15
1.98579208262818e+15
1.95829031624013e+15
1.93007089883152e+15
1.9011757693288e+15
1.87167366879281e+15
1.84159771327642e+15
1.81104024140525e+15
1.78017289200912e+15
1.7491897177446e+15
1.71826049255499e+15
1.68756438084523e+15
1.65730033735393e+15
1.62770743972254e+15
1.59894107176716e+15
1.57115551749029e+15
1.54449793877341e+15
1.51904946307938e+15
1.49492517362396e+15
1.47212478547e+15
1.45055740882325e+15
1.43026291376103e+15
1.41118955536079e+15
1.39324826125564e+15
1.37634971507119e+15
1.36037190292585e+15
1.34526777474804e+15
1.33102186117813e+15
1.31756468996521e+15
1.3049195031159e+15
1.29319687159713e+15
1.28240365667287e+15
1.27225158999164e+15
1.2635348740576e+15
1.25601987304954e+15
1.24742970760472e+15
1.23754059886467e+15
1.22763546232772e+15
1.21827228380391e+15
1.20956732146443e+15
1.20140256089617e+15
1.19373792106245e+15
1.18646715969872e+15
1.1795420106526e+15
1.17290019672499e+15
1.16652617947175e+15
1.16040822917692e+15
1.15452214870843e+15
1.14882873954747e+15
1.14334960752639e+15
1.13805850890768e+15
1.1329263097205e+15
1.12797988420889e+15
1.12319525156903e+15
1.11856234598205e+15
1.11408631345074e+15
1.10975003933707e+15
1.10555428470761e+15
1.10149605508773e+15
1.09756310041844e+15
1.09375444626964e+15
1.0900769992292e+15
1.08651538342685e+15
1.08306936586589e+15
1.07974466809693e+15
1.07652463344464e+15
1.07340914120286e+15
1.07040365845447e+15
1.06749756652854e+15
1.06468453132173e+15
1.06197577929265e+15
1.05935005536222e+15
1.05682159931872e+15
1.05437440591221e+15
1.05201466871649e+15
1.04973869506045e+15
1.04753480167102e+15
1.04541428885616e+15
1.04335954040625e+15
1.04137350972445e+15
1.03946870999779e+15
1.03762859596352e+15
1.03585855210709e+15
1.03415890611492e+15
1.03251970191764e+15
1.0309460996697e+15
1.02943223522299e+15
1.02797396371933e+15
1.02657560305209e+15
1.02522996918628e+15
1.02393609576151e+15
1.02269426532104e+15
1.02149108701889e+15
1.02033752687083e+15
1.01922796612804e+15
1.0181702907915e+15
1.01715418138383e+15
1.0161849380939e+15
1.01525672871339e+15
1.01436979444092e+15
1.01352286360935e+15
1.0127111184972e+15
1.01193451149783e+15
1.01118526662762e+15
1.01047228827737e+15
1.00979064179831e+15
1.00914818144559e+15
1.00853378011438e+15
1.00795508059051e+15
1.00740160542313e+15
1.00687346472452e+15
1.00637032858173e+15
1.0058934671412e+15
1.00544600734779e+15
1.00502253711217e+15
1.00462351878022e+15
1.00424434692556e+15
1.00388485614865e+15
1.00355138041514e+15
1.00324199394081e+15
1.00294687113641e+15
1.0026719123649e+15
1.0024166693421e+15
1.00217728326793e+15
1.00195579078463e+15
1.00175332039568e+15
1.00156335866079e+15
1.00138762008287e+15
1.00122772127904e+15
1.00107798984214e+15
1.00093932234157e+15
1.00080718029652e+15
1.00068001399394e+15
1.00054879049335e+15
1.0004036191676e+15
)
;

boundaryField
{
    electrode
    {
        type            zeroGradient;
    }
    ground
    {
        type            zeroGradient;
    }
    otherfaces
    {
        type            empty;
    }
}


// ************************************************************************* //
