/*--------------------------------*- C++ -*----------------------------------*\
| =========                 |                                                 |
| \\      /  F ield         | foam-extend: Open Source CFD                    |
|  \\    /   O peration     | Version:     4.0                                |
|   \\  /    A nd           | Web:         http://www.foam-extend.org         |
|    \\/     M anipulation  |                                                 |
\*---------------------------------------------------------------------------*/
FoamFile
{
    version     2.0;
    format      ascii;
    class       volScalarField;
    location    "6e-07";
    object      Arp1;
}
// * * * * * * * * * * * * * * * * * * * * * * * * * * * * * * * * * * * * * //

dimensions      [0 0 0 1 0 0 0];

internalField   nonuniform List<scalar> 
300
(
6.12536551075811e+16
6.12777880159061e+16
6.12586299523398e+16
6.12507209896479e+16
6.12378427129459e+16
6.12213216988968e+16
6.12018457521726e+16
6.11786019922933e+16
6.11519085583277e+16
6.11217551380882e+16
6.10880771796192e+16
6.10508848961996e+16
6.1010170591115e+16
6.09659246705844e+16
6.0918139969189e+16
6.08668109147466e+16
6.08119332955784e+16
6.07535047275726e+16
6.06915249310859e+16
6.06259958654082e+16
6.05569221495465e+16
6.04843111286634e+16
6.04081726432369e+16
6.03285204509782e+16
6.02453701184418e+16
6.01587415946098e+16
6.00686573046414e+16
5.9975143150706e+16
5.98782278942354e+16
5.9777944196813e+16
5.96743266889643e+16
5.95674137273582e+16
5.94572463873831e+16
5.93438680128657e+16
5.92273248717031e+16
5.91076654657431e+16
5.89849403343928e+16
5.88592021061408e+16
5.87305051318355e+16
5.85989053866404e+16
5.84644600158565e+16
5.83272276259258e+16
5.81872674811308e+16
5.80446397968547e+16
5.7899405271425e+16
5.77516250214432e+16
5.76013602894221e+16
5.74486726004974e+16
5.72936227266902e+16
5.71362723562012e+16
5.69766809484176e+16
5.68149096167625e+16
5.66510165392326e+16
5.64850610525841e+16
5.63171001406489e+16
5.61471906899642e+16
5.59753880716791e+16
5.5801746596268e+16
5.56263193632073e+16
5.54491580252186e+16
5.52703132756669e+16
5.50898334425324e+16
5.49077666914338e+16
5.4724158576383e+16
5.45390532316154e+16
5.4352493987566e+16
5.41645213592992e+16
5.39751748958069e+16
5.37844924368557e+16
5.35925094412396e+16
5.33992602168364e+16
5.32047771164145e+16
5.3009089916684e+16
5.28122275359616e+16
5.2614216329341e+16
5.24150800497792e+16
5.22148425195258e+16
5.20135216524741e+16
5.18111384541519e+16
5.16077059592028e+16
5.1403239565271e+16
5.11977500850896e+16
5.09912456181629e+16
5.07837335089418e+16
5.05752167330235e+16
5.03656966514808e+16
5.01551713945196e+16
4.99436365695554e+16
4.97310848206192e+16
4.95175043026924e+16
4.93028836065202e+16
4.90872027468013e+16
4.88704432381286e+16
4.86525799994882e+16
4.84335849353964e+16
4.82134266667242e+16
4.79920688146079e+16
4.77694713838471e+16
4.7545589655636e+16
4.73203747801205e+16
4.70937715754696e+16
4.68657228976948e+16
4.66361624415394e+16
4.64050216371596e+16
4.61722253452702e+16
4.59376908690112e+16
4.57013325139011e+16
4.54630551753283e+16
4.52227588478127e+16
4.49803364749886e+16
4.47356729930492e+16
4.44886468425692e+16
4.42391287855549e+16
4.39869805003412e+16
4.37320572101989e+16
4.34742045928516e+16
4.32132595196965e+16
4.29490512809541e+16
4.26813979054928e+16
4.24101112332578e+16
4.21349894690421e+16
4.18558256760362e+16
4.15723996176618e+16
4.12844832004582e+16
4.09918373351284e+16
4.06942144428951e+16
4.03913545025078e+16
4.00829902267392e+16
3.97688429438761e+16
3.94486248875582e+16
3.91220389098678e+16
3.87887796530371e+16
3.84485310901157e+16
3.81009726408161e+16
3.77457728002225e+16
3.73825953905055e+16
3.70110971534802e+16
3.66309308769251e+16
3.62417434185745e+16
3.5843179718561e+16
3.54348827237562e+16
3.50164944984566e+16
3.45876566357018e+16
3.41480163457343e+16
3.3697220531538e+16
3.3234924243446e+16
3.2760791461182e+16
3.22744907441478e+16
3.17757071399284e+16
3.12641397600224e+16
3.07394971136848e+16
3.02015167788364e+16
2.96499498914805e+16
2.9084575175825e+16
2.850520071177e+16
2.79116612408091e+16
2.73038322817866e+16
2.6681625003011e+16
2.60449997462318e+16
2.53939755729632e+16
2.4728558208443e+16
2.40489782243402e+16
2.33555076265942e+16
2.26482508671701e+16
2.19274383639644e+16
2.11938282383339e+16
2.0450021039694e+16
1.96957806713581e+16
1.89215636837869e+16
1.81419268807259e+16
1.73830460984871e+16
1.66252262292133e+16
1.58500805223974e+16
1.50668617178698e+16
1.43312519658054e+16
1.36323811287615e+16
1.2874284956117e+16
1.220836999274e+16
1.15307723497517e+16
1.08818883244057e+16
1.03061534798931e+16
9.67900494667376e+15
9.23123566480399e+15
8.70979936020873e+15
8.21691005395784e+15
7.90500275809513e+15
7.51690898429103e+15
7.18145882846235e+15
6.88936312293433e+15
6.61718481905353e+15
6.43491485243714e+15
6.26186066257535e+15
6.08539242271808e+15
5.9217773305184e+15
5.77437818416146e+15
5.67481268161113e+15
5.55755685133848e+15
5.47274647935789e+15
5.42020616166341e+15
5.36397796176562e+15
5.33989042975903e+15
5.30598903510187e+15
5.23800145566427e+15
5.19267388312201e+15
5.13810960636438e+15
5.1051985241314e+15
5.08706965963628e+15
5.05963434611259e+15
5.04725987530732e+15
5.02795711707135e+15
4.98065723363017e+15
4.94240608309139e+15
4.90490358996701e+15
4.86876809031303e+15
4.85220447287014e+15
4.82728958654956e+15
4.80568975012524e+15
4.78857258068985e+15
4.75865628916647e+15
4.73617645439076e+15
4.70771420081061e+15
4.6597221834188e+15
4.61061890005782e+15
4.56839955520646e+15
4.52642222065978e+15
4.48845435451063e+15
4.45116217721929e+15
4.41060437227577e+15
4.37237454509022e+15
4.3277072093408e+15
4.2847388816166e+15
4.23996000313317e+15
4.192464351512e+15
4.14869455577753e+15
4.09948485245374e+15
4.05487304292515e+15
4.00728284801582e+15
3.94941860854839e+15
3.89219479278216e+15
3.83609836539471e+15
3.78112438481176e+15
3.72671176902882e+15
3.67234232619404e+15
3.61730371478241e+15
3.56167830128419e+15
3.50496857171969e+15
3.44811727478219e+15
3.3903645307985e+15
3.33347701254993e+15
3.2759137777176e+15
3.22040001383442e+15
3.16433511132066e+15
3.11116211103827e+15
3.05723748742592e+15
3.00631388378491e+15
2.95409789798218e+15
2.90469389446619e+15
2.85341704451079e+15
2.8051071153267e+15
2.75429075421445e+15
2.70696532567813e+15
2.65638548677203e+15
2.60942034546952e+15
2.5597594508222e+15
2.51257996278568e+15
2.46011224543195e+15
2.41273334254702e+15
2.36101404878412e+15
2.31470115233428e+15
2.26384399600426e+15
2.21910663918266e+15
2.16930615930198e+15
2.1262590816149e+15
2.07753889582253e+15
2.03627939324098e+15
1.98871343331504e+15
1.94925322492276e+15
1.90276949802636e+15
1.86511847432002e+15
1.81969960456317e+15
1.78392618675458e+15
1.73965445800224e+15
1.70592385375527e+15
1.66288680544985e+15
1.63132844567379e+15
1.58957173881251e+15
1.56012061007752e+15
1.51962769582664e+15
1.49233690688592e+15
1.45296851496083e+15
1.42774172967325e+15
1.38932939086545e+15
1.3660868039777e+15
1.3285312071676e+15
1.30714935236234e+15
1.27035725332893e+15
1.25084433137432e+15
1.2147683620163e+15
1.19702525643709e+15
1.15379447783391e+15
)
;

boundaryField
{
    electrode
    {
        type            driftDiffusionPositiveIonDensity;
        seec            0;
        fieldName       Arp1;
        value           uniform 6.11725054381258e+16;
    }
    ground
    {
        type            driftDiffusionPositiveIonDensity;
        seec            0;
        fieldName       Arp1;
        value           uniform 1.15379447783391e+15;
    }
    otherfaces
    {
        type            empty;
    }
}


// ************************************************************************* //
