/*--------------------------------*- C++ -*----------------------------------*\
| =========                 |                                                 |
| \\      /  F ield         | foam-extend: Open Source CFD                    |
|  \\    /   O peration     | Version:     4.0                                |
|   \\  /    A nd           | Web:         http://www.foam-extend.org         |
|    \\/     M anipulation  |                                                 |
\*---------------------------------------------------------------------------*/
FoamFile
{
    version     2.0;
    format      ascii;
    class       volVectorField;
    location    "6e-07";
    object      E;
}
// * * * * * * * * * * * * * * * * * * * * * * * * * * * * * * * * * * * * * //

dimensions      [0 0 0 1 0 0 0];

internalField   nonuniform List<vector> 
300
(
(4.23865621768105 -0 -0)
(10.0309454076353 -0 -0)
(17.1188976619274 -0 -0)
(24.0344129390227 -0 -0)
(30.9276071044911 -0 -0)
(37.8318285115812 -0 -0)
(44.7490611774075 -0 -0)
(51.6951196141691 -0 -0)
(58.6635216862092 -0 -0)
(65.6566446460844 -0 -0)
(72.6773862341753 -0 -0)
(79.7259280344028 -0 -0)
(86.8023582095709 -0 -0)
(93.9064183580455 -0 -0)
(101.037224932433 -0 -0)
(108.193330636276 -0 -0)
(115.372768060005 -0 -0)
(122.573068536693 -0 -0)
(129.791290069682 -0 -0)
(137.024050539389 -0 -0)
(144.267572030345 -0 -0)
(151.517729034269 -0 -0)
(158.770086369772 -0 -0)
(166.019968489419 -0 -0)
(173.262497919771 -0 -0)
(180.492646353888 -0 -0)
(187.70530668122 -0 -0)
(194.895326806335 -0 -0)
(202.057557302511 -0 -0)
(209.186919053474 -0 -0)
(216.278433824735 -0 -0)
(223.327254676674 -0 -0)
(230.32872952663 -0 -0)
(237.278416635758 -0 -0)
(244.172110792868 -0 -0)
(251.005881275771 -0 -0)
(257.776084415543 -0 -0)
(264.479377877437 -0 -0)
(271.112737539076 -0 -0)
(277.673466332645 -0 -0)
(284.159193583653 -0 -0)
(290.567881239298 -0 -0)
(296.89782292261 -0 -0)
(303.147635710651 -0 -0)
(309.316257469968 -0 -0)
(315.40293715524 -0 -0)
(321.407224206029 -0 -0)
(327.328961123617 -0 -0)
(333.168260825723 -0 -0)
(338.925511759945 -0 -0)
(344.601344293185 -0 -0)
(350.196630806465 -0 -0)
(355.712471203291 -0 -0)
(361.150169657413 -0 -0)
(366.511238029979 -0 -0)
(371.797367060205 -0 -0)
(377.010429496208 -0 -0)
(382.152460584633 -0 -0)
(387.225651064728 -0 -0)
(392.232339312164 -0 -0)
(397.17501120477 -0 -0)
(402.056274331682 -0 -0)
(406.878871836481 -0 -0)
(411.645684955704 -0 -0)
(416.359695254358 -0 -0)
(421.024021625457 -0 -0)
(425.641909168655 -0 -0)
(430.21671208834 -0 -0)
(434.751925451656 -0 -0)
(439.25116746811 -0 -0)
(443.718187367793 -0 -0)
(448.156892679568 -0 -0)
(452.57132362535 -0 -0)
(456.965679279572 -0 -0)
(461.344344035488 -0 -0)
(465.711858098393 -0 -0)
(470.072978483917 -0 -0)
(474.432638275557 -0 -0)
(478.796016709129 -0 -0)
(483.168530006251 -0 -0)
(487.555811848393 -0 -0)
(491.963822579816 -0 -0)
(496.398774993314 -0 -0)
(500.867204590631 -0 -0)
(505.376000144213 -0 -0)
(509.93239122516 -0 -0)
(514.543996339768 -0 -0)
(519.218856213972 -0 -0)
(523.965459399317 -0 -0)
(528.79272529482 -0 -0)
(533.710128225505 -0 -0)
(538.727659782252 -0 -0)
(543.855851786787 -0 -0)
(549.105897185207 -0 -0)
(554.48959995197 -0 -0)
(560.019461050331 -0 -0)
(565.708719127485 -0 -0)
(571.571378314588 -0 -0)
(577.622274315682 -0 -0)
(583.877124590905 -0 -0)
(590.352541489253 -0 -0)
(597.066154921288 -0 -0)
(604.036624277161 -0 -0)
(611.283671793238 -0 -0)
(618.828240130158 -0 -0)
(626.692451882796 -0 -0)
(634.899735564461 -0 -0)
(643.474907437218 -0 -0)
(652.444188209486 -0 -0)
(661.835345194683 -0 -0)
(671.677730285154 -0 -0)
(682.002362879878 -0 -0)
(692.842054632183 -0 -0)
(704.231440050509 -0 -0)
(716.207092703386 -0 -0)
(728.807642898089 -0 -0)
(742.073809213784 -0 -0)
(756.048530922771 -0 -0)
(770.777031395953 -0 -0)
(786.306931736893 -0 -0)
(802.688268807061 -0 -0)
(819.973574643474 -0 -0)
(838.217958647255 -0 -0)
(857.479148944176 -0 -0)
(877.814597027671 -0 -0)
(899.288090432204 -0 -0)
(921.971199952043 -0 -0)
(945.933188366094 -0 -0)
(971.24879794168 -0 -0)
(998.001220627153 -0 -0)
(1026.27606689949 -0 -0)
(1056.16270387335 -0 -0)
(1087.75498148402 -0 -0)
(1121.15160414266 -0 -0)
(1156.45650670694 -0 -0)
(1193.77920623785 -0 -0)
(1233.23535442785 -0 -0)
(1274.9473148764 -0 -0)
(1319.0447359203 -0 -0)
(1365.6652255345 -0 -0)
(1414.95523204872 -0 -0)
(1467.07094101794 -0 -0)
(1522.17926108725 -0 -0)
(1580.45918932526 -0 -0)
(1642.10319064538 -0 -0)
(1707.31880121504 -0 -0)
(1776.33081533558 -0 -0)
(1849.38337655666 -0 -0)
(1926.74271962504 -0 -0)
(2008.7006627619 -0 -0)
(2095.57797780808 -0 -0)
(2187.7290677703 -0 -0)
(2285.54744424896 -0 -0)
(2389.47176077222 -0 -0)
(2499.993614224 -0 -0)
(2617.66643929627 -0 -0)
(2743.11645083343 -0 -0)
(2877.05592261711 -0 -0)
(3020.29929909911 -0 -0)
(3173.78215904142 -0 -0)
(3338.58079626453 -0 -0)
(3515.9510817829 -0 -0)
(3707.36987144359 -0 -0)
(3914.54320194579 -0 -0)
(4139.44138992807 -0 -0)
(4384.46245420757 -0 -0)
(4652.7173975357 -0 -0)
(4947.71718177942 -0 -0)
(5272.46410004843 -0 -0)
(5632.20328536231 -0 -0)
(6038.66951007549 -0 -0)
(6505.50620420681 -0 -0)
(7042.0264564219 -0 -0)
(7657.86086950959 -0 -0)
(8374.10627614827 -0 -0)
(9218.36299342754 -0 -0)
(10204.9907201692 -0 -0)
(11354.7082774818 -0 -0)
(12693.6655460004 -0 -0)
(14238.8537894776 -0 -0)
(16013.2647676618 -0 -0)
(18023.5004462745 -0 -0)
(20287.5231509749 -0 -0)
(22806.6279106788 -0 -0)
(25545.8742174203 -0 -0)
(28511.5178360913 -0 -0)
(31680.5309112671 -0 -0)
(34993.2274436938 -0 -0)
(38413.3877871632 -0 -0)
(41900.9522691008 -0 -0)
(45433.5321966358 -0 -0)
(48992.448919594 -0 -0)
(52542.0531430965 -0 -0)
(56055.1586571388 -0 -0)
(59516.7891211577 -0 -0)
(62931.440148134 -0 -0)
(66296.6330269204 -0 -0)
(69611.1544730844 -0 -0)
(72891.6894345381 -0 -0)
(76141.4465990275 -0 -0)
(79367.3564524655 -0 -0)
(82576.5248034364 -0 -0)
(85755.6783592818 -0 -0)
(88900.989867613 -0 -0)
(92016.2561377177 -0 -0)
(95105.1714028444 -0 -0)
(98178.7020958827 -0 -0)
(101238.504034493 -0 -0)
(104286.309297095 -0 -0)
(107324.582302472 -0 -0)
(110342.768213012 -0 -0)
(113335.141441507 -0 -0)
(116304.676582421 -0 -0)
(119252.000782953 -0 -0)
(122183.425558019 -0 -0)
(125102.34149047 -0 -0)
(128007.231710309 -0 -0)
(130900.447670648 -0 -0)
(133779.485319312 -0 -0)
(136642.726120125 -0 -0)
(139490.609484254 -0 -0)
(142315.443087222 -0 -0)
(145110.997926307 -0 -0)
(147879.012365349 -0 -0)
(150621.636603535 -0 -0)
(153340.153792093 -0 -0)
(156035.978958205 -0 -0)
(158708.333053587 -0 -0)
(161356.933862251 -0 -0)
(163980.543371008 -0 -0)
(166577.731551714 -0 -0)
(169148.464639727 -0 -0)
(171691.377161066 -0 -0)
(174206.772447002 -0 -0)
(176694.134176694 -0 -0)
(179153.207360628 -0 -0)
(181584.481092014 -0 -0)
(183983.959081415 -0 -0)
(186348.734139775 -0 -0)
(188679.338863931 -0 -0)
(190976.451813737 -0 -0)
(193240.581171802 -0 -0)
(195471.909854456 -0 -0)
(197670.249531985 -0 -0)
(199835.221608577 -0 -0)
(201966.321936493 -0 -0)
(204063.180423115 -0 -0)
(206125.481944896 -0 -0)
(208153.214969059 -0 -0)
(210146.435979778 -0 -0)
(212105.55866153 -0 -0)
(214031.034354034 -0 -0)
(215923.568535926 -0 -0)
(217783.80658875 -0 -0)
(219612.426858658 -0 -0)
(221409.944714465 -0 -0)
(223176.818551624 -0 -0)
(224913.331596423 -0 -0)
(226619.813814601 -0 -0)
(228296.40398799 -0 -0)
(229943.398961694 -0 -0)
(231560.87015908 -0 -0)
(233148.925873035 -0 -0)
(234707.843320617 -0 -0)
(236237.558006464 -0 -0)
(237737.222232062 -0 -0)
(239206.775650898 -0 -0)
(240646.444645237 -0 -0)
(242056.550529909 -0 -0)
(243437.353031868 -0 -0)
(244789.327146974 -0 -0)
(246112.791421297 -0 -0)
(247408.255511551 -0 -0)
(248676.045101365 -0 -0)
(249916.699177484 -0 -0)
(251130.565759141 -0 -0)
(252318.187427674 -0 -0)
(253479.8904946 -0 -0)
(254616.220513937 -0 -0)
(255727.498528272 -0 -0)
(256814.29068034 -0 -0)
(257876.942831196 -0 -0)
(258916.070946913 -0 -0)
(259932.047282708 -0 -0)
(260925.526892539 -0 -0)
(261896.895890478 -0 -0)
(262846.789703517 -0 -0)
(263775.589400185 -0 -0)
(264683.946522963 -0 -0)
(265572.200189848 -0 -0)
(266440.972867484 -0 -0)
(267290.552881502 -0 -0)
(268121.538607563 -0 -0)
(268934.188391199 -0 -0)
(269729.063334298 -0 -0)
(270506.393619102 -0 -0)
(271266.742381456 -0 -0)
(272010.325982341 -0 -0)
(272737.69264764 -0 -0)
(273446.656206595 -0 -0)
)
;

boundaryField
{
    electrode
    {
        type            calculated;
        value           uniform (2.05766454882906 -0 -0);
    }
    ground
    {
        type            calculated;
        value           uniform (273794.605030032 -0 -0);
    }
    otherfaces
    {
        type            empty;
    }
}


// ************************************************************************* //
