/*--------------------------------*- C++ -*----------------------------------*\
| =========                 |                                                 |
| \\      /  F ield         | foam-extend: Open Source CFD                    |
|  \\    /   O peration     | Version:     4.0                                |
|   \\  /    A nd           | Web:         http://www.foam-extend.org         |
|    \\/     M anipulation  |                                                 |
\*---------------------------------------------------------------------------*/
FoamFile
{
    version     2.0;
    format      ascii;
    class       volScalarField;
    location    "6e-07";
    object      electron;
}
// * * * * * * * * * * * * * * * * * * * * * * * * * * * * * * * * * * * * * //

dimensions      [0 0 0 1 0 0 0];

internalField   nonuniform List<scalar> 
300
(
6.12569196342738e+16
6.12542862780853e+16
6.12484323904534e+16
6.12391025044232e+16
6.12263096729655e+16
6.12100438424418e+16
6.11903022805589e+16
6.11670775126162e+16
6.1140360843154e+16
6.111014478534e+16
6.10764211605434e+16
6.10391817493313e+16
6.09984188464929e+16
6.09541254198008e+16
6.09062953821688e+16
6.08549238887775e+16
6.0800007614073e+16
6.07415450129621e+16
6.06795365668235e+16
6.06139850109143e+16
6.05448955394098e+16
6.04722759841415e+16
6.03961369681952e+16
6.03164920296253e+16
6.02333577148971e+16
6.01467536461993e+16
6.00567025555144e+16
5.99632302893925e+16
5.98663657899308e+16
5.97661410453413e+16
5.96625910141965e+16
5.95557535317905e+16
5.94456691922929e+16
5.93323812106157e+16
5.92159352724716e+16
5.9096379368492e+16
5.89737636162214e+16
5.88481400753978e+16
5.87195625562981e+16
5.85880864229949e+16
5.84537683956399e+16
5.83166663528619e+16
5.81768391348117e+16
5.80343463502728e+16
5.78892481884913e+16
5.77416052363254e+16
5.75914783027215e+16
5.74389282499769e+16
5.72840158346601e+16
5.71268015555502e+16
5.69673455108844e+16
5.68057072660884e+16
5.66419457277937e+16
5.64761190292037e+16
5.63082844227104e+16
5.61384981810526e+16
5.59668155068897e+16
5.57932904487128e+16
5.56179758250544e+16
5.54409231545544e+16
5.52621825903785e+16
5.50818028621726e+16
5.48998312230628e+16
5.47163133956495e+16
5.45312935271366e+16
5.43448141466989e+16
5.41569161197631e+16
5.39676386098471e+16
5.37770190391781e+16
5.35850930483649e+16
5.33918944598186e+16
5.31974552359676e+16
5.30018054387433e+16
5.28049731907e+16
5.26069846274855e+16
5.24078638529832e+16
5.22076328897521e+16
5.20063116273476e+16
5.18039177674712e+16
5.16004667588966e+16
5.13959717402594e+16
5.11904434679495e+16
5.09838902399319e+16
5.0776317822745e+16
5.05677293622596e+16
5.035812529436e+16
5.01475032515282e+16
4.99358579584549e+16
4.97231811202055e+16
4.95094613124668e+16
4.92946838570961e+16
4.90788306863937e+16
4.88618802150647e+16
4.86438071915717e+16
4.84245825432494e+16
4.82041732211396e+16
4.79825420291839e+16
4.77596474492641e+16
4.7535443457923e+16
4.73098793316189e+16
4.70828994506512e+16
4.68544430905236e+16
4.66244442013628e+16
4.63928311923543e+16
4.61595266971674e+16
4.5924447334646e+16
4.56875034713804e+16
4.54485989668237e+16
4.52076309218668e+16
4.49644894218306e+16
4.47190572727672e+16
4.44712097433594e+16
4.42208143002048e+16
4.39677303479143e+16
4.3711808978287e+16
4.34528927176675e+16
4.31908152898908e+16
4.29254013953442e+16
4.2656466506009e+16
4.23838166839809e+16
4.21072484343441e+16
4.18265486035176e+16
4.15414943171281e+16
4.12518529796964e+16
4.09573823152784e+16
4.06578300761492e+16
4.03529253760388e+16
4.00423872800888e+16
3.97259329294892e+16
3.9403269325063e+16
3.90740935160466e+16
3.87380928499054e+16
3.83949453811859e+16
3.80443203697566e+16
3.7685878842299e+16
3.73192742345473e+16
3.69441531043967e+16
3.65601559038504e+16
3.61669178265931e+16
3.57640697396199e+16
3.53512391840613e+16
3.49280514437217e+16
3.44941306988372e+16
3.40491012407889e+16
3.35925887381413e+16
3.31242215717986e+16
3.26436321932078e+16
3.21504585090771e+16
3.16443453014085e+16
3.11249456036443e+16
3.05919220655285e+16
3.00449482937234e+16
2.94837100790899e+16
2.89079065443758e+16
2.8317251172618e+16
2.77114726753395e+16
2.7090315694282e+16
2.64535412793255e+16
2.58009271321046e+16
2.51322676104285e+16
2.4447373849945e+16
2.37460732170169e+16
2.30282074357756e+16
2.22936330982446e+16
2.15422255987363e+16
2.07738772566475e+16
1.99884784375478e+16
1.91859141277339e+16
1.8366145846786e+16
1.7529181199491e+16
1.66746712263795e+16
1.5801687240631e+16
1.49092260642744e+16
1.3996773368251e+16
1.30641004203516e+16
1.21109813495011e+16
1.11382484307603e+16
1.01487141249373e+16
9.14722473781953e+15
8.14129447228093e+15
7.14134703343889e+15
6.16077320923542e+15
5.21532254422291e+15
4.32194959857108e+15
3.49797029400542e+15
2.75864856266361e+15
2.11510876901594e+15
1.57348785553152e+15
1.13397982581936e+15
790816133475874
533398962406096
348071541786972
220143816672654
135299267566018
81199173087545.9
47991005710173.4
28224521740889.3
16820296683675.6
10037281266622.9
5747579399193.24
3137132942746.88
1743540661488.36
1063106671412.33
732271685475.869
567382578226.068
482052631249.855
437093833133.757
413910771241.713
402962628098.683
398922941693.803
398511737024.707
400205395569.4
402971274992.12
406105665426.765
409136201939.563
411728322256.423
413655594674.565
414766350954.06
415048756836.006
414481898289.38
413050914538.949
410778441722.586
407706091204.979
403887231712.003
399381834366.023
394253786975.033
388568855827.146
382393291819.783
375792710514.513
368831096813.671
361570101369.072
354068289633.401
346380675952.724
338558396469.53
330648270324.34
322693027861.724
314727871481.52
306783578270.133
298891390811.986
291080035320.927
283374483920.7
275796056663.731
268362649554.461
261089047350.681
253987223275.314
247066616482.284
240334380984.831
233795612814.89
227453585224.765
221309915308.864
215365189815.517
209618509374.911
204066654995.069
198705961567.42
193533161765.509
188544173741.404
183734122609.892
179097781950.851
174629671874.106
170324166355.912
166175564621.015
162178153802.366
158326264675.344
154614300861.445
151036747312.349
147588112772.121
144262293298.945
141050367430.787
137944670528.113
134941005991.138
132035533562.363
129224796683.892
126505541706.55
123874726662.696
121329518390.417
118867301407.513
116485689204.799
114182523053.118
111955892076.751
109803849434.376
107724455839.585
105709648668.829
103749522506.233
101842701676.008
99992191397.2087
98201859485.2883
96475427546.8776
94813934294.2123
93205826793.7735
91646520317.3796
90149281831.7459
88725814531.8067
87371835790.0037
86096575812.6775
84925778698.0864
83886886328.5521
83033371097.9051
82497073555.6174
82382542741.1978
83084818097.3241
)
;

boundaryField
{
    electrode
    {
        type            driftDiffusionElectronDensity;
        seec            0.05;
        Edepend         1;
        field_emission  0;
        field_enhancement_factor 55;
        work_function   5;
        value           uniform 6.12569196342738e+16;
    }
    ground
    {
        type            driftDiffusionElectronDensity;
        seec            0.05;
        Edepend         1;
        field_emission  0;
        field_enhancement_factor 55;
        work_function   5;
        value           uniform 84029877124.9796;
    }
    otherfaces
    {
        type            empty;
    }
}


// ************************************************************************* //
