/*--------------------------------*- C++ -*----------------------------------*\
| =========                 |                                                 |
| \\      /  F ield         | foam-extend: Open Source CFD                    |
|  \\    /   O peration     | Version:     4.0                                |
|   \\  /    A nd           | Web:         http://www.foam-extend.org         |
|    \\/     M anipulation  |                                                 |
\*---------------------------------------------------------------------------*/
FoamFile
{
    version     2.0;
    format      ascii;
    class       volVectorField;
    location    "6e-07";
    object      J_Arp1;
}
// * * * * * * * * * * * * * * * * * * * * * * * * * * * * * * * * * * * * * //

dimensions      [1 -1 -1 0 0 0 0];

internalField   nonuniform List<vector> 
300
(
(1.89170873549879e+16 -0 -0)
(6.16435089988987e+16 -0 -0)
(1.06068310323202e+17 -0 -0)
(1.47939178277388e+17 -0 -0)
(1.9040264887511e+17 -0 -0)
(2.32810950774062e+17 -0 -0)
(2.75254554145848e+17 -0 -0)
(3.17833849247132e+17 -0 -0)
(3.60471890167374e+17 -0 -0)
(4.03190438416619e+17 -0 -0)
(4.45998290651041e+17 -0 -0)
(4.88886615962511e+17 -0 -0)
(5.31848799604891e+17 -0 -0)
(5.74875239536276e+17 -0 -0)
(6.17952357533249e+17 -0 -0)
(6.61063169979559e+17 -0 -0)
(7.04187528423945e+17 -0 -0)
(7.47302249696727e+17 -0 -0)
(7.90381334789724e+17 -0 -0)
(8.33396201632138e+17 -0 -0)
(8.76315998418662e+17 -0 -0)
(9.19107959089236e+17 -0 -0)
(9.61737614376122e+17 -0 -0)
(1.00416934154182e+18 -0 -0)
(1.0463665548849e+18 -0 -0)
(1.08829208209279e+18 -0 -0)
(1.12990865857563e+18 -0 -0)
(1.17117912784483e+18 -0 -0)
(1.21206674157316e+18 -0 -0)
(1.25253565850998e+18 -0 -0)
(1.29255108086892e+18 -0 -0)
(1.33207945241517e+18 -0 -0)
(1.37108891306148e+18 -0 -0)
(1.40954932449913e+18 -0 -0)
(1.44743245418025e+18 -0 -0)
(1.48471221709615e+18 -0 -0)
(1.52136471298489e+18 -0 -0)
(1.55736831157849e+18 -0 -0)
(1.59270373801465e+18 -0 -0)
(1.62735411202832e+18 -0 -0)
(1.66130490090679e+18 -0 -0)
(1.69454395865981e+18 -0 -0)
(1.72706147705341e+18 -0 -0)
(1.75884991066975e+18 -0 -0)
(1.78990393741236e+18 -0 -0)
(1.82022036819634e+18 -0 -0)
(1.84979804196777e+18 -0 -0)
(1.87863778934571e+18 -0 -0)
(1.90674218432894e+18 -0 -0)
(1.9341156804719e+18 -0 -0)
(1.96076420314999e+18 -0 -0)
(1.9866953075932e+18 -0 -0)
(2.01191790517164e+18 -0 -0)
(2.03644220482186e+18 -0 -0)
(2.06027965324324e+18 -0 -0)
(2.08344274670483e+18 -0 -0)
(2.10594504110844e+18 -0 -0)
(2.1278009859075e+18 -0 -0)
(2.14902588193719e+18 -0 -0)
(2.16963578050929e+18 -0 -0)
(2.1896475226069e+18 -0 -0)
(2.20907845435175e+18 -0 -0)
(2.22794660669742e+18 -0 -0)
(2.24627062816993e+18 -0 -0)
(2.26406948833318e+18 -0 -0)
(2.28136280472638e+18 -0 -0)
(2.2981706303106e+18 -0 -0)
(2.31451336839843e+18 -0 -0)
(2.33041198638806e+18 -0 -0)
(2.34588779433385e+18 -0 -0)
(2.3609625224116e+18 -0 -0)
(2.37565847765604e+18 -0 -0)
(2.38999826098185e+18 -0 -0)
(2.40400499782471e+18 -0 -0)
(2.41770244117239e+18 -0 -0)
(2.43111462102563e+18 -0 -0)
(2.4442664820357e+18 -0 -0)
(2.4571831255221e+18 -0 -0)
(2.46989075060139e+18 -0 -0)
(2.48241600398151e+18 -0 -0)
(2.49478617542305e+18 -0 -0)
(2.50702970817695e+18 -0 -0)
(2.51917552941829e+18 -0 -0)
(2.53125366817606e+18 -0 -0)
(2.54329515328244e+18 -0 -0)
(2.55533196041789e+18 -0 -0)
(2.56739719712049e+18 -0 -0)
(2.57952519966983e+18 -0 -0)
(2.59175166049635e+18 -0 -0)
(2.60411319600474e+18 -0 -0)
(2.61664842264133e+18 -0 -0)
(2.62939702825453e+18 -0 -0)
(2.6424002972191e+18 -0 -0)
(2.65570142372031e+18 -0 -0)
(2.66934506501662e+18 -0 -0)
(2.68337783933685e+18 -0 -0)
(2.69784824960719e+18 -0 -0)
(2.71280674743272e+18 -0 -0)
(2.7283058830855e+18 -0 -0)
(2.74440047442283e+18 -0 -0)
(2.76114724702076e+18 -0 -0)
(2.77860568130414e+18 -0 -0)
(2.79683737328406e+18 -0 -0)
(2.81590629014897e+18 -0 -0)
(2.83587932846666e+18 -0 -0)
(2.85682550206826e+18 -0 -0)
(2.87881675407059e+18 -0 -0)
(2.90192766467101e+18 -0 -0)
(2.92623535394774e+18 -0 -0)
(2.95181987658109e+18 -0 -0)
(2.97876384614011e+18 -0 -0)
(3.00715253881085e+18 -0 -0)
(3.03707407218578e+18 -0 -0)
(3.06861886235167e+18 -0 -0)
(3.1018798993848e+18 -0 -0)
(3.13695259997234e+18 -0 -0)
(3.17393427227268e+18 -0 -0)
(3.21292433671079e+18 -0 -0)
(3.25402352818976e+18 -0 -0)
(3.29733418941292e+18 -0 -0)
(3.34295889840708e+18 -0 -0)
(3.39100066492499e+18 -0 -0)
(3.44156187730624e+18 -0 -0)
(3.49474377076241e+18 -0 -0)
(3.55063388568836e+18 -0 -0)
(3.60933155169492e+18 -0 -0)
(3.67095132753544e+18 -0 -0)
(3.73558264151531e+18 -0 -0)
(3.80331871184306e+18 -0 -0)
(3.87426594483311e+18 -0 -0)
(3.9485189325411e+18 -0 -0)
(4.02616405549134e+18 -0 -0)
(4.10727981853688e+18 -0 -0)
(4.19193685215892e+18 -0 -0)
(4.28019627341073e+18 -0 -0)
(4.37210893273902e+18 -0 -0)
(4.46771449205311e+18 -0 -0)
(4.56704079629992e+18 -0 -0)
(4.67010232008307e+18 -0 -0)
(4.77689933676337e+18 -0 -0)
(4.88741712536988e+18 -0 -0)
(5.00162482648068e+18 -0 -0)
(5.11947387565013e+18 -0 -0)
(5.24089842449217e+18 -0 -0)
(5.36581312332806e+18 -0 -0)
(5.49411289944528e+18 -0 -0)
(5.62567342301446e+18 -0 -0)
(5.76034850652963e+18 -0 -0)
(5.89797152499555e+18 -0 -0)
(6.03835610938484e+18 -0 -0)
(6.18129290064094e+18 -0 -0)
(6.326554271617e+18 -0 -0)
(6.47389213631226e+18 -0 -0)
(6.62303964755089e+18 -0 -0)
(6.77371357837834e+18 -0 -0)
(6.92561362801709e+18 -0 -0)
(7.07842703362712e+18 -0 -0)
(7.23182900420075e+18 -0 -0)
(7.38548744871223e+18 -0 -0)
(7.53906952182756e+18 -0 -0)
(7.69220441719382e+18 -0 -0)
(7.84458203929841e+18 -0 -0)
(7.99592812335044e+18 -0 -0)
(8.14583811089203e+18 -0 -0)
(8.29381580248373e+18 -0 -0)
(8.43957343986651e+18 -0 -0)
(8.58409516194363e+18 -0 -0)
(8.72727617553693e+18 -0 -0)
(8.86178825323166e+18 -0 -0)
(8.99248356368886e+18 -0 -0)
(9.13841175343491e+18 -0 -0)
(9.27370010473375e+18 -0 -0)
(9.40248272766498e+18 -0 -0)
(9.51816403150797e+18 -0 -0)
(9.64999697610959e+18 -0 -0)
(9.79857138853346e+18 -0 -0)
(9.87283273421227e+18 -0 -0)
(1.0031674520541e+19 -0 -0)
(1.01216536818612e+19 -0 -0)
(1.02321739393872e+19 -0 -0)
(1.03643949923886e+19 -0 -0)
(1.03915534865377e+19 -0 -0)
(1.059322135053e+19 -0 -0)
(1.06173069618422e+19 -0 -0)
(1.0679085236819e+19 -0 -0)
(1.08415215954329e+19 -0 -0)
(1.0936422831033e+19 -0 -0)
(1.10001941560904e+19 -0 -0)
(1.10381214482552e+19 -0 -0)
(1.11321937275984e+19 -0 -0)
(1.12769136635782e+19 -0 -0)
(1.13493413898539e+19 -0 -0)
(1.14831530325086e+19 -0 -0)
(1.15663921205037e+19 -0 -0)
(1.161226982407e+19 -0 -0)
(1.16955224942393e+19 -0 -0)
(1.17846200142681e+19 -0 -0)
(1.19228098651197e+19 -0 -0)
(1.20962561438648e+19 -0 -0)
(1.22294784270632e+19 -0 -0)
(1.24072090223614e+19 -0 -0)
(1.25364850218823e+19 -0 -0)
(1.2647749761758e+19 -0 -0)
(1.27941152769932e+19 -0 -0)
(1.28963266723228e+19 -0 -0)
(1.30328786573143e+19 -0 -0)
(1.31906828919555e+19 -0 -0)
(1.33082884006179e+19 -0 -0)
(1.34500700241088e+19 -0 -0)
(1.35591199041349e+19 -0 -0)
(1.36465934651895e+19 -0 -0)
(1.37495023766878e+19 -0 -0)
(1.38415509548418e+19 -0 -0)
(1.39248010156611e+19 -0 -0)
(1.40531630293809e+19 -0 -0)
(1.41473993078367e+19 -0 -0)
(1.42411040370972e+19 -0 -0)
(1.433870298941e+19 -0 -0)
(1.43882513707808e+19 -0 -0)
(1.44505272905707e+19 -0 -0)
(1.44854044472068e+19 -0 -0)
(1.45016565490375e+19 -0 -0)
(1.45103123945135e+19 -0 -0)
(1.45313196312031e+19 -0 -0)
(1.45444842924831e+19 -0 -0)
(1.45623717131715e+19 -0 -0)
(1.45748269865898e+19 -0 -0)
(1.45690209974529e+19 -0 -0)
(1.45635781746336e+19 -0 -0)
(1.45294290408804e+19 -0 -0)
(1.44937461285035e+19 -0 -0)
(1.4445031959569e+19 -0 -0)
(1.43801772436827e+19 -0 -0)
(1.43215777681028e+19 -0 -0)
(1.42378528633207e+19 -0 -0)
(1.41639639151515e+19 -0 -0)
(1.40739695370474e+19 -0 -0)
(1.39761586850607e+19 -0 -0)
(1.3876097389566e+19 -0 -0)
(1.37737847926201e+19 -0 -0)
(1.3669546800344e+19 -0 -0)
(1.35616595141964e+19 -0 -0)
(1.34484759674109e+19 -0 -0)
(1.33275599774801e+19 -0 -0)
(1.31993506964072e+19 -0 -0)
(1.30621239893548e+19 -0 -0)
(1.29195240692309e+19 -0 -0)
(1.276885123061e+19 -0 -0)
(1.26169285121389e+19 -0 -0)
(1.24581165685923e+19 -0 -0)
(1.23029813887755e+19 -0 -0)
(1.21418216847359e+19 -0 -0)
(1.19880590669945e+19 -0 -0)
(1.18278983098489e+19 -0 -0)
(1.16760398697055e+19 -0 -0)
(1.1516022525242e+19 -0 -0)
(1.13639863650707e+19 -0 -0)
(1.12017775798947e+19 -0 -0)
(1.10485102498343e+19 -0 -0)
(1.08827774119681e+19 -0 -0)
(1.07283745932716e+19 -0 -0)
(1.05587122847629e+19 -0 -0)
(1.04011549985076e+19 -0 -0)
(1.0230712269312e+19 -0 -0)
(1.00681416666304e+19 -0 -0)
(9.89468203481652e+18 -0 -0)
(9.73919927970855e+18 -0 -0)
(9.56376650172238e+18 -0 -0)
(9.40790520645786e+18 -0 -0)
(9.231337495534e+18 -0 -0)
(9.07759641251334e+18 -0 -0)
(8.9011024708483e+18 -0 -0)
(8.75037981631874e+18 -0 -0)
(8.57445019535852e+18 -0 -0)
(8.42754863868528e+18 -0 -0)
(8.2528571705015e+18 -0 -0)
(8.11020250969386e+18 -0 -0)
(7.93679059943104e+18 -0 -0)
(7.79876879931533e+18 -0 -0)
(7.62687374397435e+18 -0 -0)
(7.49408912283568e+18 -0 -0)
(7.32434306399837e+18 -0 -0)
(7.1977898588627e+18 -0 -0)
(7.03083342745398e+18 -0 -0)
(6.91134249124547e+18 -0 -0)
(6.74762468287089e+18 -0 -0)
(6.63518426030231e+18 -0 -0)
(6.47486686777661e+18 -0 -0)
(6.36994299579934e+18 -0 -0)
(6.21264406479203e+18 -0 -0)
(6.11504198161744e+18 -0 -0)
(5.96022559972234e+18 -0 -0)
(5.86979467305888e+18 -0 -0)
(5.71719721933717e+18 -0 -0)
(5.63357714154385e+18 -0 -0)
(5.48293991356269e+18 -0 -0)
(5.40631796649592e+18 -0 -0)
(5.25756619588743e+18 -0 -0)
(5.18770012582295e+18 -0 -0)
(5.00667696821957e+18 -0 -0)
)
;

boundaryField
{
    electrode
    {
        type            calculated;
        value           uniform (-34111254160.3643 -0 -0);
    }
    ground
    {
        type            calculated;
        value           uniform (5.00955308944617e+18 -0 -0);
    }
    otherfaces
    {
        type            empty;
    }
}


// ************************************************************************* //
