/*--------------------------------*- C++ -*----------------------------------*\
| =========                 |                                                 |
| \\      /  F ield         | foam-extend: Open Source CFD                    |
|  \\    /   O peration     | Version:     4.0                                |
|   \\  /    A nd           | Web:         http://www.foam-extend.org         |
|    \\/     M anipulation  |                                                 |
\*---------------------------------------------------------------------------*/
FoamFile
{
    version     2.0;
    format      ascii;
    class       volVectorField;
    location    "6e-07";
    object      J_electron;
}
// * * * * * * * * * * * * * * * * * * * * * * * * * * * * * * * * * * * * * //

dimensions      [1 -1 -1 0 0 0 0];

internalField   nonuniform List<vector> 
300
(
(-1.01527201385786e+19 0 0)
(-1.0284376127991e+19 0 0)
(-1.19419910326749e+19 0 0)
(-1.17167311203245e+19 0 0)
(-1.17261577767679e+19 0 0)
(-1.167271066018e+19 0 0)
(-1.16138368771035e+19 0 0)
(-1.15801146649937e+19 0 0)
(-1.15347860380742e+19 0 0)
(-1.14901276528282e+19 0 0)
(-1.14482760891989e+19 0 0)
(-1.14065562718018e+19 0 0)
(-1.13654139060435e+19 0 0)
(-1.13250621552315e+19 0 0)
(-1.12854547526708e+19 0 0)
(-1.12465574895016e+19 0 0)
(-1.12083558243697e+19 0 0)
(-1.11708259825055e+19 0 0)
(-1.1133940512218e+19 0 0)
(-1.10976603121378e+19 0 0)
(-1.10619408871668e+19 0 0)
(-1.1026754203994e+19 0 0)
(-1.09920327854374e+19 0 0)
(-1.09577493063692e+19 0 0)
(-1.0923861852222e+19 0 0)
(-1.08903042695038e+19 0 0)
(-1.0857057390737e+19 0 0)
(-1.08240859483641e+19 0 0)
(-1.07913323943614e+19 0 0)
(-1.07587827421619e+19 0 0)
(-1.07264248523333e+19 0 0)
(-1.06942060698382e+19 0 0)
(-1.06621328202615e+19 0 0)
(-1.06301965123374e+19 0 0)
(-1.05983758892949e+19 0 0)
(-1.05666792334772e+19 0 0)
(-1.05351110167238e+19 0 0)
(-1.05036732242343e+19 0 0)
(-1.04723755292662e+19 0 0)
(-1.04412379889659e+19 0 0)
(-1.04102712198819e+19 0 0)
(-1.03794930657756e+19 0 0)
(-1.03489283840368e+19 0 0)
(-1.03185938201269e+19 0 0)
(-1.0288512818687e+19 0 0)
(-1.02587087678517e+19 0 0)
(-1.02291977261592e+19 0 0)
(-1.02000151383378e+19 0 0)
(-1.01711583293266e+19 0 0)
(-1.01426719050165e+19 0 0)
(-1.01145566014897e+19 0 0)
(-1.00868300563035e+19 0 0)
(-1.00595187152614e+19 0 0)
(-1.00326144543228e+19 0 0)
(-1.00061484796268e+19 0 0)
(-9.9801098457881e+18 0 0)
(-9.95451587483822e+18 0 0)
(-9.92936496156089e+18 0 0)
(-9.90465889372078e+18 0 0)
(-9.88038608111718e+18 0 0)
(-9.85656489649268e+18 0 0)
(-9.8331685287782e+18 0 0)
(-9.81017984534472e+18 0 0)
(-9.7876282999324e+18 0 0)
(-9.76545702789933e+18 0 0)
(-9.74366411457325e+18 0 0)
(-9.72225215377939e+18 0 0)
(-9.70116881544616e+18 0 0)
(-9.68041715646936e+18 0 0)
(-9.6599707540555e+18 0 0)
(-9.63978106972144e+18 0 0)
(-9.6198572967841e+18 0 0)
(-9.6001522813546e+18 0 0)
(-9.58061584426179e+18 0 0)
(-9.56126376334171e+18 0 0)
(-9.5420033142337e+18 0 0)
(-9.5228632673608e+18 0 0)
(-9.50374414136325e+18 0 0)
(-9.48463282709804e+18 0 0)
(-9.46553105606823e+18 0 0)
(-9.44629541856084e+18 0 0)
(-9.42698643601123e+18 0 0)
(-9.4075007266896e+18 0 0)
(-9.38778621148031e+18 0 0)
(-9.36782892275859e+18 0 0)
(-9.34755192400878e+18 0 0)
(-9.32689953179828e+18 0 0)
(-9.30581207196946e+18 0 0)
(-9.28428496625179e+18 0 0)
(-9.26216077710092e+18 0 0)
(-9.23945020162258e+18 0 0)
(-9.21610052578941e+18 0 0)
(-9.19195832807535e+18 0 0)
(-9.16704775559394e+18 0 0)
(-9.14124583185311e+18 0 0)
(-9.11448473823714e+18 0 0)
(-9.08670208462868e+18 0 0)
(-9.05780165346433e+18 0 0)
(-9.02769788865374e+18 0 0)
(-8.99634666819446e+18 0 0)
(-8.96359332921213e+18 0 0)
(-8.92939061312828e+18 0 0)
(-8.89367435004451e+18 0 0)
(-8.85625446806323e+18 0 0)
(-8.81714008548547e+18 0 0)
(-8.77617257332867e+18 0 0)
(-8.73324309508207e+18 0 0)
(-8.68830397393902e+18 0 0)
(-8.64118741963375e+18 0 0)
(-8.59183035522954e+18 0 0)
(-8.54012654605304e+18 0 0)
(-8.48593442673944e+18 0 0)
(-8.42920299242298e+18 0 0)
(-8.369805880227e+18 0 0)
(-8.30761994444708e+18 0 0)
(-8.24260734278225e+18 0 0)
(-8.17463820174492e+18 0 0)
(-8.10366276308147e+18 0 0)
(-8.0295833604944e+18 0 0)
(-7.95240090291719e+18 0 0)
(-7.87207126734497e+18 0 0)
(-7.78855255692857e+18 0 0)
(-7.70192273754345e+18 0 0)
(-7.61203030705098e+18 0 0)
(-7.51689738352748e+18 0 0)
(-7.37382821569652e+18 0 0)
(-7.32545823289586e+18 0 0)
(-7.21835982594192e+18 0 0)
(-7.10776790019054e+18 0 0)
(-6.99304604173546e+18 0 0)
(-6.87462695928752e+18 0 0)
(-6.75270596302366e+18 0 0)
(-6.62724259369609e+18 0 0)
(-6.49821682057609e+18 0 0)
(-6.36565200942557e+18 0 0)
(-6.22945662960193e+18 0 0)
(-6.08957596542016e+18 0 0)
(-5.94600810662121e+18 0 0)
(-5.79874104738526e+18 0 0)
(-5.64768025970056e+18 0 0)
(-5.49279204262281e+18 0 0)
(-5.33406561066287e+18 0 0)
(-5.17130797521358e+18 0 0)
(-5.00442220725377e+18 0 0)
(-4.83328105298946e+18 0 0)
(-4.6574791783193e+18 0 0)
(-4.47684584224902e+18 0 0)
(-4.2909563668094e+18 0 0)
(-4.09909437970828e+18 0 0)
(-3.90089968369795e+18 0 0)
(-3.69544691036717e+18 0 0)
(-3.48168281803614e+18 0 0)
(-3.25864931844109e+18 0 0)
(-3.02479765549351e+18 0 0)
(-2.77858819501457e+18 0 0)
(-2.5180183675462e+18 0 0)
(-2.24069540666304e+18 0 0)
(-1.94390493067792e+18 0 0)
(-1.62442269416017e+18 0 0)
(-1.28058197681793e+18 0 0)
(-9.03525804486427e+17 0 0)
(-4.86019664059564e+17 0 0)
(-3.83921603362161e+16 0 0)
(4.41988947634029e+17 0 0)
(1.00037832374695e+18 0 0)
(1.71021101840938e+18 0 0)
(2.44085786746867e+18 0 0)
(2.8597458286632e+18 0 0)
(3.94835239247649e+18 0 0)
(6.96464046762335e+18 0 0)
(9.8817792194558e+18 0 0)
(1.06606854055521e+19 0 0)
(1.0913609398765e+19 0 0)
(1.34977178970987e+19 0 0)
(1.64867628212421e+19 0 0)
(1.44616294748185e+19 0 0)
(1.31133525347061e+19 0 0)
(1.19542884356168e+19 0 0)
(8.22402428844376e+18 0 0)
(6.2461036290512e+18 0 0)
(2.61795811391072e+18 0 0)
(3.17164717345237e+18 0 0)
(4.91125824531359e+18 0 0)
(7.59178369448909e+18 0 0)
(1.83621434641178e+19 0 0)
(2.93690733554565e+19 0 0)
(4.03893603517334e+19 0 0)
(5.19995939975919e+19 0 0)
(6.00790425124476e+19 0 0)
(6.34584045598666e+19 0 0)
(6.12908227001886e+19 0 0)
(5.41091924594519e+19 0 0)
(4.54444666977795e+19 0 0)
(3.31539697049077e+19 0 0)
(2.31939678649e+19 0 0)
(1.4519223543768e+19 0 0)
(7.45396515120624e+18 0 0)
(5.09126479353586e+18 0 0)
(8.74781866387276e+17 0 0)
(-2.90292137105037e+17 0 0)
(-5.51452099360297e+17 0 0)
(-6.40556140445957e+17 0 0)
(-8.25601864630936e+17 0 0)
(-9.62083026209699e+17 0 0)
(-1.04420391018875e+18 0 0)
(-1.07864438483921e+18 0 0)
(-1.08743584235658e+18 0 0)
(-1.08782110741161e+18 0 0)
(-1.07920941221821e+18 0 0)
(-1.06593739299629e+18 0 0)
(-1.05004112977849e+18 0 0)
(-1.03461586330167e+18 0 0)
(-1.01869332523495e+18 0 0)
(-1.00233742903909e+18 0 0)
(-9.85330945604588e+17 0 0)
(-9.68415458794675e+17 0 0)
(-9.50812802828581e+17 0 0)
(-9.33127015802964e+17 0 0)
(-9.15735872566056e+17 0 0)
(-8.9817421360539e+17 0 0)
(-8.80490996795474e+17 0 0)
(-8.62836478633928e+17 0 0)
(-8.45246388287522e+17 0 0)
(-8.27775585095691e+17 0 0)
(-8.10460505250778e+17 0 0)
(-7.93332316761824e+17 0 0)
(-7.76422001881605e+17 0 0)
(-7.59751236488621e+17 0 0)
(-7.43343532443561e+17 0 0)
(-7.27216708268389e+17 0 0)
(-7.11384970762905e+17 0 0)
(-6.95864310104145e+17 0 0)
(-6.80662370093295e+17 0 0)
(-6.65787433876735e+17 0 0)
(-6.51251395865504e+17 0 0)
(-6.37009880961857e+17 0 0)
(-6.23183398231414e+17 0 0)
(-6.09678489985236e+17 0 0)
(-5.96497876510808e+17 0 0)
(-5.83653911383737e+17 0 0)
(-5.7114343305097e+17 0 0)
(-5.58962821635825e+17 0 0)
(-5.47106642561737e+17 0 0)
(-5.35568571574262e+17 0 0)
(-5.24341744459211e+17 0 0)
(-5.13418683155121e+17 0 0)
(-5.0279173617241e+17 0 0)
(-4.92453121690176e+17 0 0)
(-4.82393823080577e+17 0 0)
(-4.72611917687524e+17 0 0)
(-4.63080424385681e+17 0 0)
(-4.53804488952744e+17 0 0)
(-4.44794446654156e+17 0 0)
(-4.36012677346222e+17 0 0)
(-4.27455929371911e+17 0 0)
(-4.19125983902895e+17 0 0)
(-4.1101085352589e+17 0 0)
(-4.03103448482823e+17 0 0)
(-3.95396400544718e+17 0 0)
(-3.87882530574904e+17 0 0)
(-3.80555247153975e+17 0 0)
(-3.7340787340053e+17 0 0)
(-3.66434057731789e+17 0 0)
(-3.59627664897725e+17 0 0)
(-3.52982287485359e+17 0 0)
(-3.46486409234747e+17 0 0)
(-3.40122713150932e+17 0 0)
(-3.33968689081528e+17 0 0)
(-3.27918172494035e+17 0 0)
(-3.22006998378345e+17 0 0)
(-3.16226376527963e+17 0 0)
(-3.10574466833239e+17 0 0)
(-3.05047254537765e+17 0 0)
(-2.99640930649169e+17 0 0)
(-2.94351989813558e+17 0 0)
(-2.89176763569366e+17 0 0)
(-2.84111808136462e+17 0 0)
(-2.7915400609698e+17 0 0)
(-2.74296874484679e+17 0 0)
(-2.69543716927453e+17 0 0)
(-2.64826159985539e+17 0 0)
(-2.60319369410892e+17 0 0)
(-2.55901714896697e+17 0 0)
(-2.51551794085283e+17 0 0)
(-2.47294143344311e+17 0 0)
(-2.43123845775168e+17 0 0)
(-2.39029017955323e+17 0 0)
(-2.34959170917084e+17 0 0)
(-2.31204833146923e+17 0 0)
(-2.27414911085156e+17 0 0)
(-2.23701201665857e+17 0 0)
(-2.20002949807155e+17 0 0)
(-2.16679606309777e+17 0 0)
(-2.13218145721614e+17 0 0)
(-2.10011463408507e+17 0 0)
(-2.06906226391146e+17 0 0)
(-2.04210437084509e+17 0 0)
(-2.01574471063923e+17 0 0)
(-1.99285638243864e+17 0 0)
(-1.95710881390355e+17 0 0)
)
;

boundaryField
{
    electrode
    {
        type            calculated;
        value           uniform (-1.19201333010072e+19 0 0);
    }
    ground
    {
        type            calculated;
        value           uniform (-1.94937513934817e+17 0 0);
    }
    otherfaces
    {
        type            empty;
    }
}


// ************************************************************************* //
