/*--------------------------------*- C++ -*----------------------------------*\
| =========                 |                                                 |
| \\      /  F ield         | foam-extend: Open Source CFD                    |
|  \\    /   O peration     | Version:     4.0                                |
|   \\  /    A nd           | Web:         http://www.foam-extend.org         |
|    \\/     M anipulation  |                                                 |
\*---------------------------------------------------------------------------*/
FoamFile
{
    version     2.0;
    format      ascii;
    class       volScalarField;
    location    "6e-07";
    object      N_electronMean;
}
// * * * * * * * * * * * * * * * * * * * * * * * * * * * * * * * * * * * * * //

dimensions      [0 0 0 1 0 0 0];

internalField   nonuniform List<scalar> 
300
(
6.08880997445902e+16
6.08903949477623e+16
6.08912394315759e+16
6.08890404293024e+16
6.08837836625078e+16
6.08751721113836e+16
6.08630124771776e+16
6.084716488913e+16
6.08275036568601e+16
6.08039259014151e+16
6.0776347726925e+16
6.07447021558764e+16
6.07089373587966e+16
6.06690150395517e+16
6.06249092485427e+16
6.05766052028771e+16
6.0524098291488e+16
6.04673932214228e+16
6.04065031971485e+16
6.03414491551829e+16
6.02722590997669e+16
6.01989674898784e+16
6.01216146644765e+16
6.00402462712742e+16
5.99549128822928e+16
5.98656697259344e+16
5.97725761436909e+16
5.96756950708324e+16
5.95750926560216e+16
5.94708377181342e+16
5.93630014749294e+16
5.92516576276386e+16
5.91368819412881e+16
5.90187514495423e+16
5.88973439705741e+16
5.87727377909686e+16
5.86450113761824e+16
5.85142431463113e+16
5.83805112166394e+16
5.82438931429021e+16
5.81044657854982e+16
5.79623051710078e+16
5.78174862633261e+16
5.76700827903024e+16
5.75201671501916e+16
5.73678103361276e+16
5.72130818965531e+16
5.70560499476423e+16
5.68967812780335e+16
5.67353415440055e+16
5.6571795673042e+16
5.64062082756521e+16
5.62386437274103e+16
5.60691659714482e+16
5.58978380604457e+16
5.57247216713132e+16
5.55498767413126e+16
5.53733612614513e+16
5.51952312028675e+16
5.50155404538801e+16
5.48343408004656e+16
5.46516819323594e+16
5.44676114063506e+16
5.42821749199106e+16
5.40954169552545e+16
5.39073807428406e+16
5.37181075880288e+16
5.35276365972925e+16
5.33360047092251e+16
5.31432467125384e+16
5.29493952529861e+16
5.27544810017033e+16
5.25585331329289e+16
5.23615794590542e+16
5.21636461726967e+16
5.19647581480508e+16
5.17649394478678e+16
5.15642133192638e+16
5.13626017058554e+16
5.11601250414901e+16
5.09568024395028e+16
5.07526511597448e+16
5.05476860974589e+16
5.03419197573146e+16
5.01353623622763e+16
4.99280221913359e+16
4.97199054407387e+16
4.95110156918763e+16
4.93013537717795e+16
4.90909178963111e+16
4.88797035478221e+16
4.86677037914644e+16
4.84549097005513e+16
4.82413095892744e+16
4.80268882854658e+16
4.78116270179291e+16
4.75955032828415e+16
4.73784907003222e+16
4.71605588579918e+16
4.69416732645425e+16
4.67217952733272e+16
4.65008817435656e+16
4.62788850508976e+16
4.60557533054757e+16
4.58314298713395e+16
4.56058530118314e+16
4.53789557674523e+16
4.51506656670663e+16
4.49209046086913e+16
4.46895884066518e+16
4.44566262007228e+16
4.42219201060166e+16
4.39853649636966e+16
4.37468482599376e+16
4.350624981752e+16
4.32634414568478e+16
4.30182871764504e+16
4.2770642963974e+16
4.25203558484686e+16
4.2267263022196e+16
4.20111915843969e+16
4.1751958464806e+16
4.14893702179612e+16
4.12232228969797e+16
4.09533012070042e+16
4.06793771476362e+16
4.04012093542116e+16
4.01185427129995e+16
3.98311075346062e+16
3.95386188207899e+16
3.92407758225663e+16
3.89372615751629e+16
3.8627742305159e+16
3.83118668089798e+16
3.79892665586603e+16
3.76595560599898e+16
3.73223320300351e+16
3.69771723578925e+16
3.66236361245194e+16
3.62612636931445e+16
3.58895760731001e+16
3.55080744182881e+16
3.51162400691415e+16
3.47135349086775e+16
3.42994023355131e+16
3.38732680971542e+16
3.34345402772271e+16
3.29826092575978e+16
3.25168478138475e+16
3.2036612176224e+16
3.15412440364333e+16
3.10300715739733e+16
3.05024108274451e+16
2.99575677840069e+16
2.93948396402669e+16
2.88135166522701e+16
2.82128849200462e+16
2.75922290432999e+16
2.69508339349831e+16
2.62879864686034e+16
2.5602977398848e+16
2.48951002815201e+16
2.41636472729582e+16
2.34079008493794e+16
2.26271101135289e+16
2.18204381117873e+16
2.09869004367522e+16
2.01253461418999e+16
1.92344786376944e+16
1.83128940751914e+16
1.73592067289133e+16
1.63723396806939e+16
1.53518994864453e+16
1.42985232925892e+16
1.32142654238385e+16
1.21031564945911e+16
1.09717868453401e+16
9.82961212562432e+15
8.6890720087802e+15
7.56545506890604e+15
6.47629145638543e+15
5.44032300862727e+15
4.47604245521099e+15
3.60004773444122e+15
2.82536132196928e+15
2.16000562416701e+15
1.60626813041539e+15
1.16061962293455e+15
814379515967103
555062965500822
368036022257074
238209746308788
151458442162515
95593701252661.2
60795276947924.4
39731749570675.1
27228844585365.4
19882908969407.3
15419855009938.8
12601360116461.3
10827080009756.6
9738921777635.7
9041704160408.06
8539639698110.19
8136588624658.65
7788497920867.61
7474816033189.38
7185387478106.45
6914596316692.12
6659037440685.38
6416466717792.32
6185430005798.08
5964757302547.57
5753515998241.02
5550937525671.66
5356375278553.02
5169280870230.98
4989181574670.5
4815658738944.53
4648359055777.47
4486971250577.7
4331190605818.79
4180750647627.38
4035414346761.37
3894963086636.31
3759196268800.18
3627930571596.23
3500993493368.91
3378226321353.23
3259479539447.22
3144610026157.85
3033486819208.3
2925981881420.33
2821973183794.51
2721347108288.36
2623993780497.19
2529805860212.12
2438684803145.96
2350532377039.93
2265253833217.95
2182761051253.54
2102966424831.06
2025789255648.9
1951150321608.68
1878972427001.36
1809182822600.53
1741708807149.44
1676480598850.64
1613428416749.02
1552485074125.69
1493585693160.34
1436665277171.79
1381661202074.85
1328511099602.78
1277156032995.01
1227541253782.3
1179613349068.45
1133321396856.28
1088617356406.99
1045453348348.38
1003784132332.46
963563532783.281
924746781372.774
887287957274.209
851142479118.918
816269330249.426
782629263789.148
750185983386.679
718903808326.397
688749727952.613
659689850339.097
631690466163.862
604717727652.116
578740936168.341
553730335937.23
529657510092.659
506494532421.145
484212733760.91
462785035542.937
442186037342.94
422390627388.247
403370887070.364
385102492296.481
367565554857.713
350737824813.062
334597897754.207
319127125760.986
304304481027.76
290110801269.056
276531256891.045
263550102462.536
251149993533.086
239318453216.055
228049274215.541
217341564186.623
207202790655.98
197653960700.504
188725253515.844
180581878089.115
173299721509.703
)
;

boundaryField
{
    electrode
    {
        type            calculated;
        value           uniform 6.08880997465549e+16;
    }
    ground
    {
        type            calculated;
        value           uniform 170261241614.356;
    }
    otherfaces
    {
        type            empty;
    }
}


// ************************************************************************* //
