/*--------------------------------*- C++ -*----------------------------------*\
| =========                 |                                                 |
| \\      /  F ield         | foam-extend: Open Source CFD                    |
|  \\    /   O peration     | Version:     4.0                                |
|   \\  /    A nd           | Web:         http://www.foam-extend.org         |
|    \\/     M anipulation  |                                                 |
\*---------------------------------------------------------------------------*/
FoamFile
{
    version     2.0;
    format      ascii;
    class       volScalarField;
    location    "6e-07";
    object      Phi;
}
// * * * * * * * * * * * * * * * * * * * * * * * * * * * * * * * * * * * * * //

dimensions      [0 0 0 1 0 0 0];

internalField   nonuniform List<scalar> 
300
(
699.999965705591
699.999751717328
699.999296975897
699.998610457484
699.997694681701
699.996548617011
699.9951725598
699.993565346265
699.991726218493
699.98965444482
699.987349108849
699.984809285737
699.982034046981
699.979022461857
699.97577361909
699.972286646861
699.968560730381
699.96459512899
699.960389192478
699.955942376319
699.951254255776
699.946324538184
699.94115307384
699.935739865759
699.930085075941
699.924189032564
699.918052232851
699.911675345451
699.905059211064
699.898204841632
699.891113416461
699.883786279377
699.876224932816
699.868431030741
699.860406371706
699.852152890022
699.843672646288
699.834967817728
699.826040687763
699.816893635225
699.807529123341
699.797949688986
699.788157931259
699.778156500791
699.767948088878
699.757535416959
699.746921226401
699.736108268679
699.72509929566
699.71389705129
699.702504261542
699.690923628337
699.679157819489
699.66720946359
699.655081141512
699.642775381055
699.630294650375
699.617641352422
699.604817819669
699.591826309017
699.578668997048
699.565347974937
699.551865245426
699.538222716815
699.524422199762
699.510465403798
699.496353931654
699.48208927652
699.467672817515
699.453105814823
699.43838940635
699.423524602332
699.408512280171
699.393353180757
699.378047901553
699.362596891154
699.347000444346
699.331258692589
699.315371601794
699.299338958142
699.28316036646
699.266835237352
699.250362778288
699.233741985686
699.216971631316
699.200050252343
699.182976138567
699.165747319253
699.148361548153
699.130816288627
699.1131086998
699.095235613412
699.077193522481
699.058978556626
699.040586462669
699.022012583296
699.003251831932
698.984298668688
698.965147073378
698.945790517066
698.926221931738
698.906433680967
698.88641752141
698.866164572682
698.845665276624
698.824909356674
698.803885779832
698.782582707636
698.760987452669
698.739086428422
698.716865096323
698.69430791307
698.671398272131
698.648118442761
698.624449509461
698.600371303247
698.575862333268
698.550899715966
698.525459097873
698.49951458054
698.473038635757
698.446002029286
698.418373730781
698.390120832043
698.361208454185
698.331599858908
698.301255914822
698.270135112244
698.238193702265
698.205385192381
698.171660287557
698.136966787922
698.101249440631
698.064449789156
698.026506000355
697.987352688709
697.946920719939
697.905136998414
697.861924232281
697.817200682686
697.770879883912
697.722870333882
697.673075154511
697.621391716476
697.567711208556
697.511918170433
697.453889955142
697.393496116077
697.330597730038
697.265046601436
697.19668435252
697.125341402915
697.050835748003
696.972971573299
696.891537630618
696.80630533235
696.717026534665
696.623430902295
696.52522280649
696.422077615688
696.313637329221
696.199505562604
696.079240590435
695.952347571174
695.818271043639
695.676384811845
695.525973546692
695.36620365201
695.196125734573
695.01470604534
694.820645515549
694.612128078002
694.386945101935
694.142659647574
693.876421043968
693.584385895831
693.261863511072
692.904053181153
692.50488295924
692.057808811419
691.555626039942
690.990257826909
690.354059343523
689.63775628351
688.833617482812
687.934698002349
686.932849627073
685.822662608264
684.599967797492
683.26177008912
681.806570979553
680.232867942678
678.540407718246
676.730064399805
674.803397141103
672.762278458395
670.607967797895
668.342502923266
665.967224166356
663.483056960963
660.891127726421
658.191899864132
655.386026072858
652.47485464018
649.459293415018
646.340437564332
643.118948654828
639.79519075794
636.369715052529
632.842770138134
629.214742899029
625.486585590599
621.659066802929
617.732940485106
613.708933417399
609.587378781238
605.368777318035
601.053563333883
596.642080806658
592.134930979263
587.532565731983
582.835557013645
578.044869526169
573.161490485225
568.186268701812
563.12004804499
557.963591782339
552.717649447775
547.383036245434
541.960520523625
536.451000020699
530.855338420178
525.174435711384
519.409246609439
513.560650881585
507.629637664326
501.617103724209
495.524005591526
489.351506452115
483.100756648873
476.772883861186
470.368993194625
463.890178449732
457.337532537661
450.712161814266
444.015184430422
437.247740351835
430.410972402214
423.506041555508
416.534091404278
409.496279156857
402.393720826842
395.227543533254
387.998816257781
380.708623094003
373.357987800536
365.94796011304
358.479533230427
350.953738006612
343.371545642787
335.733977740745
328.04198571201
320.296586396807
312.49872398714
304.649396842099
296.749553453376
288.800248693294
280.802435076649
272.757152383612
264.665331707989
256.527995514821
248.346043231523
240.120476086733
231.852159530751
223.542073079975
215.191046252254
206.8000353627
198.369833757076
189.901375996395
181.395419056147
172.85287609451
164.274466344123
155.661079905763
147.013394947663
138.332276753582
129.618359821495
120.872483694217
112.095240507926
103.287444400872
94.4496440730612
85.5826310548801
76.686912548564
67.7632608627815
58.8121433080588
49.8343149700357
40.8302057524405
31.8005553954288
22.7457562603428
13.666533663271
4.56324341716575
)
;

boundaryField
{
    electrode
    {
        type            fixedValue;
        value           uniform 700;
    }
    ground
    {
        type            fixedValue;
        value           uniform 0;
    }
    otherfaces
    {
        type            empty;
    }
}


// ************************************************************************* //
