/*--------------------------------*- C++ -*----------------------------------*\
| =========                 |                                                 |
| \\      /  F ield         | foam-extend: Open Source CFD                    |
|  \\    /   O peration     | Version:     4.0                                |
|   \\  /    A nd           | Web:         http://www.foam-extend.org         |
|    \\/     M anipulation  |                                                 |
\*---------------------------------------------------------------------------*/
FoamFile
{
    version     2.0;
    format      ascii;
    class       volScalarField;
    location    "6e-07";
    object      PhiMean;
}
// * * * * * * * * * * * * * * * * * * * * * * * * * * * * * * * * * * * * * //

dimensions      [0 0 0 1 0 0 0];

internalField   nonuniform List<scalar> 
300
(
699.877790767999
699.867305848739
699.856478684034
699.845374232057
699.834006727983
699.822337890424
699.810357862478
699.798056029505
699.785422831267
699.772450901071
699.759134160624
699.745467914133
699.73144853731
699.717073395454
699.702340735548
699.68724958162
699.671799651064
699.655991297805
699.639825441835
699.623303503257
699.606427357395
699.589199287875
699.571621945171
699.553698304234
699.535431619537
699.516825485109
699.4978837368
699.478610421899
699.459009797117
699.439086260996
699.418844309018
699.398288657047
699.377424181986
699.35625579458
699.334788425255
699.313027004177
699.290976436566
699.26864160334
699.246027337916
699.223138397802
699.199979465371
699.176555151317
699.152869956412
699.128928264371
699.104734336133
699.080292304564
699.055606170159
699.030679807127
699.005516970548
698.980121335876
698.954496528873
698.928646253301
698.902574236772
698.87628427574
698.849780113746
698.823065414166
698.796143686454
698.769018276416
698.741692363748
698.71416895005
698.686450862048
698.658540749589
698.630441077082
698.602154113935
698.573682127693
698.545027371001
698.516191889723
698.487177528141
698.457985934917
698.428618560706
698.399076656406
698.369361261194
698.339473315253
698.309413698244
698.279183091495
698.24878206368
698.218211200949
698.187471046954
698.156562084406
698.12548455217
698.094238733066
698.06282467404
698.031242157233
697.999490727044
697.967569645862
697.935478045976
697.903214873383
697.870778759806
697.838168005963
697.805380657411
697.772414448495
697.739266774335
697.705935027991
697.672416219056
697.638706924394
697.604803292709
697.570701009289
697.536395293674
697.501880842561
697.467151846754
697.43220198669
697.397024354536
697.36161138009
697.325955060412
697.290046694512
697.253876868199
697.21743549713
697.180711650941
697.143693668953
697.106368998745
697.068724078278
697.030744298889
696.992413911806
696.953716041357
696.91463262507
696.875144235646
696.835230207252
696.794868618197
696.754035993544
696.712707139564
696.670855024179
696.628450867856
696.585463878505
696.541861389422
696.497608555461
696.452667989933
696.406999571357
696.360560428523
696.313304538686
696.265182533438
696.216141467379
696.166124601228
696.115071092542
696.062915630499
696.00958817523
695.955014018236
695.899113124219
695.841799528688
695.78298101805
695.722558828538
695.660426872233
695.596471080825
695.53056878415
695.4625880086
695.392386869881
695.319812963414
695.244702064466
695.16687702243
695.086146302525
695.002302496525
694.9151213246
694.82435952316
694.729752637924
694.631013222729
694.527827482845
694.419852255963
694.306711433272
694.18799170986
694.063237233929
693.931942885414
693.793547184195
693.647422386252
693.492861237653
693.329062205725
693.155107097859
692.969924745583
692.772235323013
692.560500679543
692.332874930333
692.087124981548
691.820544674734
691.529901565319
691.211405270598
690.860613134237
690.472325070703
690.040539794542
689.558535654049
689.018840259045
688.413225618639
687.732977002881
686.968947714105
686.111938429307
685.152908510995
684.083311201279
682.89560327846
681.583121115741
680.140654755843
678.564539578755
676.852335026418
675.003040029415
673.016736454859
670.894370168904
668.637688297596
666.248949199455
663.730566663073
661.085052453135
658.314982818549
655.422999251814
652.411522847679
649.282883999304
646.039231988568
642.682634845589
639.215223763033
635.639114796605
631.95635499209
628.168928834225
624.278739470578
620.287670927435
616.197573561968
612.010295673696
607.727696677637
603.351608206885
598.883805432742
594.32602424172
589.679953196907
584.947254203968
580.129570111646
575.228517513214
570.245705906277
565.182730401686
560.041175639113
554.82262793859
549.528652690083
544.160772483209
538.720473199472
533.209208564424
527.628400039445
521.979444263584
516.263709318846
510.482538848383
504.637252671249
498.729143237053
492.75949337129
486.729584861381
480.640695161045
474.494093850461
468.291040908312
462.032793910315
455.720592027603
449.355645620852
442.939137701115
436.472224946539
429.956039025326
423.391687146301
416.780252721088
410.122795414519
403.420351756515
396.673934607513
389.884534574434
383.05311873557
376.180633336056
369.268001307699
362.316126929975
355.325891294352
348.298159587908
341.233773602416
334.133561966169
326.99832923204
319.828869313867
312.625950926784
305.390334730614
298.122754452935
290.823938675836
283.494586684177
276.135395654969
268.747031366933
261.330162600509
253.88542612242
246.413464868182
238.914883831565
231.390297426867
223.840277594503
216.265410249664
208.666234211592
201.043307631209
193.397136570168
185.728252493899
178.037129367875
170.324273230765
162.590126574401
154.835171227753
147.059818786009
139.264528208247
131.449680885728
123.615714436024
115.762980730168
107.891897499127
100.002787852492
92.0960511852804
84.1719824800083
76.2309643286458
68.2732641682081
60.2992492045276
52.3091597527976
44.3033490748354
36.2820306725902
28.2455452038816
20.194079637552
12.1279634018676
4.04735843122378
)
;

boundaryField
{
    electrode
    {
        type            calculated;
        value           uniform 699.999999999962;
    }
    ground
    {
        type            calculated;
        value           uniform 0;
    }
    otherfaces
    {
        type            empty;
    }
}


// ************************************************************************* //
