/*--------------------------------*- C++ -*----------------------------------*\
| =========                 |                                                 |
| \\      /  F ield         | foam-extend: Open Source CFD                    |
|  \\    /   O peration     | Version:     4.0                                |
|   \\  /    A nd           | Web:         http://www.foam-extend.org         |
|    \\/     M anipulation  |                                                 |
\*---------------------------------------------------------------------------*/
FoamFile
{
    version     2.0;
    format      ascii;
    class       volScalarField;
    location    "6e-07";
    object      Sy_electron;
}
// * * * * * * * * * * * * * * * * * * * * * * * * * * * * * * * * * * * * * //

dimensions      [1 -3 -1 0 0 0 0];

internalField   nonuniform List<scalar> 
300
(
2.49149783186891e-14
2.49199992463302e-14
2.49197395818243e-14
2.4913266946211e-14
2.49030220047437e-14
2.48888736722186e-14
2.48709943953688e-14
2.48494176245803e-14
2.48241749869008e-14
2.47953248082557e-14
2.47628959947461e-14
2.47269160827911e-14
2.46874129651243e-14
2.46444122482086e-14
2.45979385376514e-14
2.45480162947006e-14
2.44946647036025e-14
2.44379115009222e-14
2.4377785676464e-14
2.4314314611995e-14
2.42475270732266e-14
2.41774532339232e-14
2.41041248303756e-14
2.40275752286235e-14
2.39478103714134e-14
2.38648900806762e-14
2.37788505198924e-14
2.36897267617891e-14
2.3597576829445e-14
2.35024448473693e-14
2.34043430721394e-14
2.33033309875158e-14
2.31994817135102e-14
2.30928469185314e-14
2.29834792730941e-14
2.28714323368275e-14
2.27567526567304e-14
2.26394993169958e-14
2.25197334246897e-14
2.23975107485166e-14
2.2272887886152e-14
2.21459253566241e-14
2.20166818663516e-14
2.18852163770002e-14
2.17515880138725e-14
2.16158559046754e-14
2.14780754633782e-14
2.13383033044736e-14
2.11965802226286e-14
2.10529583932228e-14
2.09074706199012e-14
2.0760193428347e-14
2.06111721090735e-14
2.04604917999028e-14
2.03082206865628e-14
2.01544408246915e-14
1.99992114844948e-14
1.9842591029808e-14
1.96846369322652e-14
1.95254026677074e-14
1.93649479524654e-14
1.92033283611645e-14
1.90405899812915e-14
1.88767539805572e-14
1.87118780401582e-14
1.85460553479595e-14
1.83793390311537e-14
1.82117813739962e-14
1.80434337153045e-14
1.78743464580921e-14
1.77045658741018e-14
1.75341273444738e-14
1.7363074956978e-14
1.71914669702711e-14
1.70193267091806e-14
1.68467008502404e-14
1.66736439353943e-14
1.65001927777147e-14
1.63264225612037e-14
1.61523261548286e-14
1.59780006135278e-14
1.58034897753426e-14
1.56288285032605e-14
1.5454059569369e-14
1.52791978983009e-14
1.51042934179182e-14
1.4929401315297e-14
1.4754558001607e-14
1.45797799470972e-14
1.44051136645931e-14
1.42305834501289e-14
1.4056152271813e-14
1.38819376992606e-14
1.37079727898348e-14
1.35342873395009e-14
1.33609102504443e-14
1.31878690864904e-14
1.30151901656051e-14
1.28428829836155e-14
1.26709725837708e-14
1.24994924788389e-14
1.23284677116262e-14
1.21578728747787e-14
1.1987772868813e-14
1.18181739494343e-14
1.16490813297976e-14
1.14805352740423e-14
1.13125238175049e-14
1.11450782325788e-14
1.09782212343779e-14
1.08119637552842e-14
1.06463151732083e-14
1.04812759945406e-14
1.03168537511294e-14
1.0153055042959e-14
9.989863553929e-15
9.82726049544369e-15
9.6652882134797e-15
9.50395385886744e-15
9.34325123802778e-15
9.183147803339e-15
9.02366561735892e-15
8.86476737545547e-15
8.70647013078976e-15
8.54879081875227e-15
8.3917554424418e-15
8.23530542860313e-15
8.07943738051894e-15
7.92416338496239e-15
7.76948713407361e-15
7.61538821358497e-15
7.46186221850755e-15
7.30890347461455e-15
7.15647902345328e-15
7.0045433599877e-15
6.85312506710643e-15
6.70223375964659e-15
6.5518426197397e-15
6.40193475711327e-15
6.25253123621598e-15
6.1036225509104e-15
5.95520080102354e-15
5.8072411959476e-15
5.65972234413415e-15
5.51263556528063e-15
5.36603089303482e-15
5.21991806080209e-15
5.0743087988747e-15
4.92920179013347e-15
4.78457813476397e-15
4.64049808142383e-15
4.49698143644042e-15
4.35400882922139e-15
4.21163935317643e-15
4.06991700005713e-15
3.92885508739794e-15
3.78848133757961e-15
3.64887879482921e-15
3.50456339276398e-15
3.34580754513782e-15
3.18985233858459e-15
3.0367825351454e-15
2.8866563394667e-15
2.73958426480017e-15
2.59566596695093e-15
2.45499505907677e-15
2.31771615895541e-15
2.18384828535124e-15
2.05360232688852e-15
1.92780515673682e-15
1.8069482398781e-15
1.69033623491183e-15
1.57734484879655e-15
1.46860731664957e-15
1.36490852896646e-15
1.2653932245824e-15
1.16950423640179e-15
1.07796555343329e-15
9.91026329535284e-16
9.09264148782217e-16
8.33522177773844e-16
7.64867555108721e-16
7.04413854003593e-16
6.5248440951206e-16
6.09422273267378e-16
5.74767715280915e-16
5.47172647997579e-16
5.25280739368751e-16
5.07799891003234e-16
4.93731718454254e-16
4.82940319345783e-16
4.78254800041979e-16
4.93467740601671e-16
6.6046421271998e-16
2.90445009962357e-15
5.0324994301357e-14
3.13410552623502e-12
1.94956995411838e-10
1.01270636892996e-09
1.59324782724596e-09
1.51603579250221e-09
1.17872579635346e-09
8.88094267475414e-10
6.92849667554803e-10
5.78428964041206e-10
5.13681668741098e-10
4.80083821512381e-10
4.62124246726328e-10
4.56182552174949e-10
4.55823336296878e-10
4.57868126498241e-10
4.62003075512188e-10
4.67119097174056e-10
4.72457579498715e-10
4.7750875168753e-10
4.81908410744263e-10
4.85096125504194e-10
4.86938128010951e-10
4.87764318837843e-10
4.87553979981738e-10
4.86293052660512e-10
4.84010779745371e-10
4.8075811799485e-10
4.76599521925364e-10
4.71606959640439e-10
4.65856840833832e-10
4.59427661873594e-10
4.52398403395604e-10
4.44847237765096e-10
4.36850371244816e-10
4.28481232414515e-10
4.19809589626888e-10
4.10901009344165e-10
4.01816478282442e-10
3.92611873294571e-10
3.83338300958789e-10
3.74037822237933e-10
3.64747242005412e-10
3.55504110627088e-10
3.4634297715922e-10
3.37293930041375e-10
3.2838273247812e-10
3.19631090737551e-10
3.11057023507736e-10
3.0267521448963e-10
2.94497338441482e-10
2.86532353576257e-10
2.78786768095535e-10
2.71264918487275e-10
2.63969156179517e-10
2.56900618538005e-10
2.50058516894926e-10
2.43439588655201e-10
2.37039919853386e-10
2.30855905084334e-10
2.24883048402542e-10
2.19115888735462e-10
2.13548536843449e-10
2.08174785859385e-10
2.0298823978782e-10
1.97982397917615e-10
1.93150729597052e-10
1.88486740913189e-10
1.83984009744974e-10
1.79636196102904e-10
1.75436983110419e-10
1.71379329810414e-10
1.67452776122224e-10
1.63648384345026e-10
1.59961380416323e-10
1.56387346078199e-10
1.5292230596545e-10
1.49562506478513e-10
1.46304428959865e-10
1.43144785152417e-10
1.40080526835928e-10
1.37108857649948e-10
1.34227229789782e-10
1.31433369541224e-10
1.28724933056869e-10
1.25915060835589e-10
1.23153005722512e-10
1.20451145731872e-10
1.17807864769081e-10
1.15226402067145e-10
1.1271078216668e-10
1.10264727429746e-10
1.07777488960424e-10
1.05055833956211e-10
1.02383680099647e-10
9.97745001992202e-11
9.72390417620294e-11
9.41446679570229e-11
9.10728855348631e-11
8.79743005016711e-11
8.40630504666204e-11
8.0009572819582e-11
7.49833245894991e-11
6.8463899189378e-11
5.93275513010602e-11
)
;

boundaryField
{
    electrode
    {
        type            zeroGradient;
    }
    ground
    {
        type            zeroGradient;
    }
    otherfaces
    {
        type            empty;
    }
}


// ************************************************************************* //
