/*--------------------------------*- C++ -*----------------------------------*\
| =========                 |                                                 |
| \\      /  F ield         | foam-extend: Open Source CFD                    |
|  \\    /   O peration     | Version:     4.0                                |
|   \\  /    A nd           | Web:         http://www.foam-extend.org         |
|    \\/     M anipulation  |                                                 |
\*---------------------------------------------------------------------------*/
FoamFile
{
    version     2.0;
    format      ascii;
    class       volScalarField;
    location    "6e-07";
    object      Te;
}
// * * * * * * * * * * * * * * * * * * * * * * * * * * * * * * * * * * * * * //

dimensions      [0 0 0 1 0 0 0];

internalField   nonuniform List<scalar> 
300
(
28418.3067195254
28418.3708543273
28418.3257506073
28418.1832760085
28417.9984207413
28417.7653996192
28417.4864444545
28417.1608413421
28416.7880772161
28416.368452987
28415.9017826926
28415.3878932046
28414.8266809207
28414.2180150034
28413.5617537549
28412.8577528435
28412.1058641856
28411.3059355461
28410.4578109308
28409.5613310733
28408.6163339901
28407.6226546005
28406.580125508
28405.4885769942
28404.3478361806
28403.1577283826
28401.9180763915
28400.6286994806
28399.2894147785
28397.9000366226
28396.4603750897
28394.9702374005
28393.4294273808
28391.8377440417
28390.1949826228
28388.5009341113
28386.7553844487
28384.9581148413
28383.1089016721
28381.2075159639
28379.2537234292
28377.2472846287
28375.1879545499
28373.0754827195
28370.9096133179
28368.6900850016
28366.4166312176
28364.0889798253
28361.7068538001
28359.2699709487
28356.7780438126
28354.2307806585
28351.6278845775
28348.9690544191
28346.2539846322
28343.482365365
28340.6538829675
28337.7682196422
28334.8250539939
28331.8240613772
28328.7649132659
28325.6472777724
28322.470820928
28319.2352045633
28315.9400877177
28312.5851277637
28309.1699781267
28305.6942900912
28302.1577127178
28298.5598917746
28294.900471593
28291.1790936232
28287.3953962522
28283.549016953
28279.6395897455
28275.6667466677
28271.6301171245
28267.5293279568
28263.3640048952
28259.1337683912
28254.838238471
28250.4770322157
28246.049761874
28241.5560390367
28236.9954707763
28232.3676602675
28227.6722080894
28222.908711132
28218.0767600771
28213.1759428602
28208.2058435725
28203.1660375821
28198.0560976416
28192.8755901057
28187.6240729155
28182.3010986527
28176.906211183
28171.4389459271
28165.8988298691
28160.2853782942
28154.5980965625
28148.8364790487
28143.0000039125
28137.0881377918
28131.1003311419
28125.0360151492
28118.8946050996
28112.675493592
28106.378051008
28100.0016239737
28093.5455301738
28087.0090592374
28080.3914674586
28073.6919740269
28066.9097610359
28060.0439659198
28053.0936778955
28046.0579343954
28038.9357151044
28031.7259347602
28024.4274353362
28017.0389823581
28009.5592528737
28001.9868334926
27994.3202826841
27986.5603060476
27978.7030774238
27970.7448263227
27962.6862362482
27954.5253631899
27946.2600180175
27937.8878177307
27929.4061912742
27920.8123762671
27912.1034004895
27903.2760690591
27894.3269506598
27885.2523532067
27876.0482999808
27866.7105110801
27857.2343789518
27847.6149354303
27837.8468295056
27827.924298304
27817.8411257505
27807.5906191126
27797.1655664302
27786.5581871596
27775.7601098235
27764.7623073684
27753.5550416138
27742.1278322354
27730.4693760827
27718.5674864825
27706.4090294907
27693.9798402431
27681.2646551035
27668.2470213963
27654.9092006148
27641.2319100833
27627.1945484539
27612.7754601072
27597.9501582479
27582.6904687859
27566.9689258577
27550.7654941117
27534.0521083152
27516.7503985027
27498.8365829051
27480.5291123505
27462.0033638264
27442.9768274573
27423.0482711392
27402.33501462
27381.1363153909
27358.7000602551
27334.0598027538
27306.9348905845
27276.3122409627
27241.1035755093
27200.1040194746
27152.2483158968
27097.2857370704
27033.9634358638
26964.2412960158
26893.4891890382
26827.0319202811
26777.0565354671
26764.994029554
26821.9384200123
26996.6240878904
27362.955388037
28047.6079230087
29254.0521187317
31302.785800411
34843.2795795215
40978.8053858088
52190.7011881368
71885.7224837957
100113.999791298
140856.186409355
196460.512738899
266051.249558376
342847.504012837
418888.61529804
488532.476558717
549615.476621957
601870.518044805
646118.041808034
683709.180919602
715870.694009055
743600.074224841
767681.235392782
788783.670456408
807456.857291595
824122.369510996
839125.46419548
852763.665006119
865249.148993745
876756.538602605
887444.047948864
897438.380991498
906840.289538626
915732.052377249
924180.468414445
932240.043401462
939954.984435412
947360.915312679
954486.237450462
961353.092863221
967978.368230866
974374.275987874
980548.985370234
986507.256323476
992250.488406076
997779.192048377
1003087.83461272
1008167.36618402
1013011.94279154
1017613.48695877
1021961.71908733
1026045.01880558
1029850.61770149
1033364.82233575
1036573.17622312
1039460.60892716
1042011.56779843
1044210.1194645
1046040.1159921
1047484.9019662
1048528.53226822
1049148.17418647
1049335.61060126
1049077.68451887
1048353.54219481
1047147.40129746
1045443.24048752
1043225.54172739
1040478.95989974
1037188.35746006
1033338.76294425
1028915.34135388
1023903.38518202
1018288.2712131
1012055.4615447
1005191.02033935
997683.085688944
989514.350977955
980668.608054679
971134.295538576
960895.522025698
949936.075333261
938238.821788462
925785.847357954
912558.307853239
898536.303434437
883698.742772581
868023.126308847
851485.738637033
834060.645316893
815727.184463325
796455.780218809
776209.046199119
754954.928789262
732651.674241241
709249.498518549
684694.820168963
658939.512421842
631915.748678714
603543.196795506
573737.128331427
542394.904836186
509385.680099846
474553.435865908
437709.202401981
398598.348382462
356863.259895296
312029.408028946
263412.412379649
210062.177525009
)
;

boundaryField
{
    electrode
    {
        type            electronTemperature;
        seec            0.05;
        Tse             1000;
        Edepend         1;
        TFN             1000;
        field_emission  0;
        field_enhancement_factor 55;
        work_function   5;
        value           uniform 28418.3067195254;
    }
    ground
    {
        type            electronTemperature;
        seec            0.05;
        Tse             1000;
        Edepend         1;
        TFN             1000;
        field_emission  0;
        field_enhancement_factor 55;
        work_function   5;
        value           uniform 179992.628165028;
    }
    otherfaces
    {
        type            empty;
    }
}


// ************************************************************************* //
