/*--------------------------------*- C++ -*----------------------------------*\
| =========                 |                                                 |
| \\      /  F ield         | foam-extend: Open Source CFD                    |
|  \\    /   O peration     | Version:     4.0                                |
|   \\  /    A nd           | Web:         http://www.foam-extend.org         |
|    \\/     M anipulation  |                                                 |
\*---------------------------------------------------------------------------*/
FoamFile
{
    version     2.0;
    format      ascii;
    class       volScalarField;
    location    "6e-07";
    object      TeMean;
}
// * * * * * * * * * * * * * * * * * * * * * * * * * * * * * * * * * * * * * //

dimensions      [0 0 0 1 0 0 0];

internalField   nonuniform List<scalar> 
300
(
39061.4122924988
39062.2567846934
39062.1709551871
39061.2643988521
39060.1028397226
39058.6143179805
39056.8202311263
39054.738084649
39052.3724106127
39049.7296366964
39046.8157980062
39043.6367255313
39040.1980159468
39036.504916302
39032.5624767303
39028.3755307341
39023.948684248
39019.2863653808
39014.3928190492
39009.2721047088
39003.9281254917
38998.3646054987
38992.585114842
38986.593061422
38980.3916864615
38973.9841810632
38967.3736080758
38960.5628736382
38953.5548181428
38946.3520919312
38938.9571413132
38931.3724692278
38923.6006086801
38915.6439134449
38907.5046169537
38899.1847889922
38890.68642074
38882.0115184983
38873.1620102869
38864.1396975036
38854.9462762154
38845.5834578011
38836.0528808997
38826.3560802317
38816.4945229718
38806.4696050716
38796.2826452669
38785.9348740434
38775.4273979507
38764.7611980691
38753.9371320793
38742.956089941
38731.8190814913
38720.5270392804
38709.0808684869
38697.48150936
38685.7297673977
38673.8263331359
38661.7719182015
38649.5671858601
38637.2127328648
38624.7091846693
38612.0569354413
38599.2562563683
38586.3076705364
38573.2117924135
38559.9691277968
38546.5800928829
38533.0450522907
38519.3643687571
38505.5383134811
38491.566970439
38477.4505109557
38463.1891509599
38448.782920572
38434.2316874415
38419.5354511259
38404.6944203884
38389.708600407
38374.577854689
38359.3022666472
38343.8819194024
38328.3166592316
38312.6061707878
38296.7500773916
38280.7481785045
38264.600397784
38248.3064831561
38231.8660261087
38215.2786639633
38198.5438398219
38181.6609209677
38164.6297063673
38147.4497694204
38130.1204951646
38112.6414388273
38095.0120099733
38077.2315777282
38059.2994055472
38041.2147369885
38022.9769472399
38004.5850514614
37986.0379746048
37967.3349477049
37948.4750844033
37929.4573595166
37910.2806299213
37890.9437080315
37871.4454750212
37851.7847140849
37831.9601391056
37811.9703623369
37791.8138233971
37771.4890979785
37750.9945591225
37730.3283341293
37709.4883985218
37688.4728494411
37667.2799006727
37645.9072176514
37624.3522606869
37602.6124807074
37580.6851122604
37558.5674091476
37536.2566994905
37513.7499364241
37491.0435963501
37468.1341314451
37445.0179130097
37421.6907934705
37398.148281592
37374.3857673704
37350.3984238389
37326.18058445
37301.7260229757
37277.0287862277
37252.0825009789
37226.8798711913
37201.4131921062
37175.6744636075
37149.6550242372
37123.3453161083
37096.7348411362
37069.8120949924
37042.5648648324
37014.980368069
36987.0448889524
36958.7437058832
36930.0601793813
36900.9760371775
36871.4722920247
36841.5279716744
36811.120110175
36780.2243956698
36748.8138292815
36716.8587408401
36684.3271142967
36651.1845072429
36617.3936810658
36582.9139030228
36547.7026576027
36511.7157705553
36474.9076695247
36437.239048022
36398.6870305306
36359.2348148468
36318.8415533234
36277.4411663502
36234.9546343579
36191.2444689267
36146.0461280731
36098.9872138206
36049.6406988941
35997.4538253323
35941.5853392163
35880.9139837355
35814.2213016109
35740.0892546812
35656.8948325245
35563.1150160508
35457.5119554719
35339.5941061056
35210.0634095251
35071.6231958883
34930.0915914042
34795.0981660605
34682.1284262853
34615.012777909
34629.1698498002
34777.9820772444
35143.0366293971
35854.6701179717
37127.9980597382
39360.7500597182
43173.167551759
49510.6798488382
60407.2139612346
78379.4218295224
106951.060320028
148295.193177872
204758.275042431
274341.329024697
353230.902768227
434141.515035515
510313.426318182
577600.043966663
634880.952176188
682799.86426668
722704.866121556
756062.378478084
784129.642762647
807906.57016719
828186.19548185
845625.297600401
860743.869419906
873956.46113213
885595.105725891
895929.239173417
905173.490646222
913485.755921009
920990.063956471
927803.325252247
934024.371452049
939728.846096021
944978.720798455
949824.555393358
954307.648951746
958461.657989659
962313.862318149
965886.017854083
969195.267504717
972254.906837524
975075.0047597
977662.09679468
980020.051646172
982151.031658375
984055.120494555
985731.004475925
987175.985326817
988385.945962603
989355.646689021
990078.879907405
990548.661713151
990757.265866996
990696.427218896
990357.388829955
989730.988574317
988807.727682163
987577.890603708
986031.564754521
984158.651100743
981949.090066966
979393.118990536
976479.961343524
973199.219696589
969540.528228252
965493.539854905
961047.878474603
956193.149690445
950918.954925991
945214.849540684
939070.292788592
932474.697896662
925417.281012904
917887.211325969
909873.367951264
901364.163084355
892347.67451015
882811.833579734
872743.899762585
862130.49682256
850957.555576274
839210.274470928
826872.943283785
813928.974001784
800360.589707271
786148.927685027
771273.754472809
755713.659370156
739445.58641898
722444.117944269
704680.743294495
686124.41823053
666740.90337432
646491.347699374
625333.47798801
603220.957265761
580100.055480544
555908.781544535
530576.466320136
504021.459385442
476145.924649692
446832.474375012
415940.857330101
383290.468476041
348651.045077524
311694.110709015
271989.532027396
228927.625949378
181653.664913286
)
;

boundaryField
{
    electrode
    {
        type            calculated;
        value           uniform 39061.4122925194;
    }
    ground
    {
        type            calculated;
        value           uniform 154982.739673212;
    }
    otherfaces
    {
        type            empty;
    }
}


// ************************************************************************* //
