/*--------------------------------*- C++ -*----------------------------------*\
| =========                 |                                                 |
| \\      /  F ield         | foam-extend: Open Source CFD                    |
|  \\    /   O peration     | Version:     4.0                                |
|   \\  /    A nd           | Web:         http://www.foam-extend.org         |
|    \\/     M anipulation  |                                                 |
\*---------------------------------------------------------------------------*/
FoamFile
{
    version     2.0;
    format      ascii;
    class       volVectorField;
    location    "2e-10";
    object      E;
}
// * * * * * * * * * * * * * * * * * * * * * * * * * * * * * * * * * * * * * //

dimensions      [0 0 0 1 0 0 0];

internalField   nonuniform List<vector> 
249
(
(-0 4531.42437906128 -0)
(-0 3021.04986854102 -0)
(-0 3021.04987525831 -0)
(-0 3021.04988199401 -0)
(-0 3021.0498853962 -0)
(-0 3021.0498887244 -0)
(-0 3021.0498922993 -0)
(-0 3021.04989584773 -0)
(-0 3021.04989946913 -0)
(-0 3021.04990302115 -0)
(-0 3021.04990667483 -0)
(-0 3021.04991028159 -0)
(-0 3021.04991387748 -0)
(-0 3021.04991770126 -0)
(-0 3021.04992142488 -0)
(-0 3021.04992522098 -0)
(-0 3021.04992923926 -0)
(-0 3021.04993318108 -0)
(-0 3021.0499370304 -0)
(-0 3021.04994085149 -0)
(-0 3021.04994465501 -0)
(-0 3021.04994845949 -0)
(-0 3021.04995218528 -0)
(-0 3021.04995641752 -0)
(-0 3021.04996054556 -0)
(-0 3021.04996438926 -0)
(-0 3021.0499685203 -0)
(-0 3021.04997247351 -0)
(-0 3021.04997643508 -0)
(-0 3021.04998070912 -0)
(-0 3021.04998512234 -0)
(-0 3021.04998926779 -0)
(-0 3021.04999335371 -0)
(-0 3021.04999772016 -0)
(-0 3021.05000205155 -0)
(-0 3021.05000628489 -0)
(-0 3021.05001045467 -0)
(-0 3021.05001482853 -0)
(-0 3021.05001945481 -0)
(-0 3021.05002394871 -0)
(-0 3021.05002843682 -0)
(-0 3021.05003286493 -0)
(-0 3021.05003732405 -0)
(-0 3021.05004212604 -0)
(-0 3021.05004686082 -0)
(-0 3021.05005152592 -0)
(-0 3021.05005622151 -0)
(-0 3021.05006093206 -0)
(-0 3021.05006565781 -0)
(-0 3021.05007047052 -0)
(-0 3021.05007547765 -0)
(-0 3021.05008037243 -0)
(-0 3021.05008535023 -0)
(-0 3021.05009033754 -0)
(-0 3021.05009522828 -0)
(-0 3021.05010025688 -0)
(-0 3021.05010507666 -0)
(-0 3021.05010999204 -0)
(-0 3021.05011509219 -0)
(-0 3021.05012005345 -0)
(-0 3021.05012519279 -0)
(-0 3021.05013039083 -0)
(-0 3021.05013578274 -0)
(-0 3021.05014117727 -0)
(-0 3021.05014644506 -0)
(-0 3021.05015171182 -0)
(-0 3021.05015704352 -0)
(-0 3021.05016263388 -0)
(-0 3021.05016819471 -0)
(-0 3021.05017358538 -0)
(-0 3021.05017900107 -0)
(-0 3021.0501846567 -0)
(-0 3021.05019043249 -0)
(-0 3021.05019627273 -0)
(-0 3021.05020212559 -0)
(-0 3021.05020789624 -0)
(-0 3021.05021363873 -0)
(-0 3021.05021926773 -0)
(-0 3021.0502250316 -0)
(-0 3021.050231034 -0)
(-0 3021.05023690095 -0)
(-0 3021.05024276883 -0)
(-0 3021.05024882148 -0)
(-0 3021.05025484532 -0)
(-0 3021.05026072727 -0)
(-0 3021.05026684313 -0)
(-0 3021.05027324461 -0)
(-0 3021.05027948338 -0)
(-0 3021.05028569085 -0)
(-0 3021.05029203171 -0)
(-0 3021.05029831804 -0)
(-0 3021.05030456998 -0)
(-0 3021.05031097139 -0)
(-0 3021.05031745159 -0)
(-0 3021.05032407552 -0)
(-0 3021.05033085767 -0)
(-0 3021.05033764407 -0)
(-0 3021.05034446087 -0)
(-0 3021.05035110706 -0)
(-0 3021.05035756971 -0)
(-0 3021.05036426543 -0)
(-0 3021.05037127934 -0)
(-0 3021.05037839729 -0)
(-0 3021.05038545883 -0)
(-0 3021.05039240001 -0)
(-0 3021.05039933152 -0)
(-0 3021.05040649772 -0)
(-0 3021.05041369223 -0)
(-0 3021.05042085351 -0)
(-0 3021.05042818492 -0)
(-0 3021.05043555364 -0)
(-0 3021.05044298025 -0)
(-0 3021.05045038072 -0)
(-0 3021.05045781222 -0)
(-0 3021.05046532355 -0)
(-0 3021.05047287299 -0)
(-0 3021.05048042635 -0)
(-0 3021.05048796269 -0)
(-0 3021.05049570177 -0)
(-0 3021.05050356861 -0)
(-0 3021.05051153155 -0)
(-0 3021.05051944268 -0)
(-0 3021.05052732956 -0)
(-0 3021.05053542264 -0)
(-0 3021.05054357815 -0)
(-0 3021.05055175088 -0)
(-0 3021.05055990755 -0)
(-0 3021.0505681341 -0)
(-0 3021.05057649528 -0)
(-0 3021.05058492527 -0)
(-0 3021.0505933392 -0)
(-0 3021.05060173728 -0)
(-0 3021.0506101788 -0)
(-0 3021.05061871125 -0)
(-0 3021.05062735752 -0)
(-0 3021.05063602888 -0)
(-0 3021.05064470315 -0)
(-0 3021.0506534258 -0)
(-0 3021.05066226555 -0)
(-0 3021.05067125704 -0)
(-0 3021.05068019019 -0)
(-0 3021.05068910605 -0)
(-0 3021.05069819592 -0)
(-0 3021.05070730874 -0)
(-0 3021.0507164529 -0)
(-0 3021.05072571387 -0)
(-0 3021.05073508886 -0)
(-0 3021.05074443726 -0)
(-0 3021.05075385028 -0)
(-0 3021.05076333165 -0)
(-0 3021.05077296212 -0)
(-0 3021.05078273175 -0)
(-0 3021.050792325 -0)
(-0 3021.05080196492 -0)
(-0 3021.05081178693 -0)
(-0 3021.05082165457 -0)
(-0 3021.05083158431 -0)
(-0 3021.05084165142 -0)
(-0 3021.05085179776 -0)
(-0 3021.05086198519 -0)
(-0 3021.05087223694 -0)
(-0 3021.05088250813 -0)
(-0 3021.05089288773 -0)
(-0 3021.05090330491 -0)
(-0 3021.05091374267 -0)
(-0 3021.05092435782 -0)
(-0 3021.05093503391 -0)
(-0 3021.0509457161 -0)
(-0 3021.05095648622 -0)
(-0 3021.05096724177 -0)
(-0 3021.05097810119 -0)
(-0 3021.05098917117 -0)
(-0 3021.05100026784 -0)
(-0 3021.05101136318 -0)
(-0 3021.05102248245 -0)
(-0 3021.0510337391 -0)
(-0 3021.05104501703 -0)
(-0 3021.05105639035 -0)
(-0 3021.05106789466 -0)
(-0 3021.05107945248 -0)
(-0 3021.05109109735 -0)
(-0 3021.05110277116 -0)
(-0 3021.05111446837 -0)
(-0 3021.05112626118 -0)
(-0 3021.05113813208 -0)
(-0 3021.0511500369 -0)
(-0 3021.05116203617 -0)
(-0 3021.05117410299 -0)
(-0 3021.05118622431 -0)
(-0 3021.05119839081 -0)
(-0 3021.05121065564 -0)
(-0 3021.05122298817 -0)
(-0 3021.05123540327 -0)
(-0 3021.05124788919 -0)
(-0 3021.0512604686 -0)
(-0 3021.05127310999 -0)
(-0 3021.05128578854 -0)
(-0 3021.05129864162 -0)
(-0 3021.05131154048 -0)
(-0 3021.05132451644 -0)
(-0 3021.05133757819 -0)
(-0 3021.05135062842 -0)
(-0 3021.05136377305 -0)
(-0 3021.05137703045 -0)
(-0 3021.05139034378 -0)
(-0 3021.05140372558 -0)
(-0 3021.05141719518 -0)
(-0 3021.05143070797 -0)
(-0 3021.05144432154 -0)
(-0 3021.05145804614 -0)
(-0 3021.05147181678 -0)
(-0 3021.05148572032 -0)
(-0 3021.05149966199 -0)
(-0 3021.05151359695 -0)
(-0 3021.05152763924 -0)
(-0 3021.05154178259 -0)
(-0 3021.05155599077 -0)
(-0 3021.05157025902 -0)
(-0 3021.05158465804 -0)
(-0 3021.0515991409 -0)
(-0 3021.05161363731 -0)
(-0 3021.05162822597 -0)
(-0 3021.05164288929 -0)
(-0 3021.05165760309 -0)
(-0 3021.05167241161 -0)
(-0 3021.05168732019 -0)
(-0 3021.05170230177 -0)
(-0 3021.05171732385 -0)
(-0 3021.05173243716 -0)
(-0 3021.0517476118 -0)
(-0 3021.05176285323 -0)
(-0 3021.05177817379 -0)
(-0 3021.05179355725 -0)
(-0 3021.05180900531 -0)
(-0 3021.05182453543 -0)
(-0 3021.05184016364 -0)
(-0 3021.05185583312 -0)
(-0 3021.05187159202 -0)
(-0 3021.05188743077 -0)
(-0 3021.05190330104 -0)
(-0 3021.05191924237 -0)
(-0 3021.05193526251 -0)
(-0 3021.05195136592 -0)
(-0 3021.05196755413 -0)
(-0 3021.05198380155 -0)
(-0 3021.0520001106 -0)
(-0 3021.0520164922 -0)
(-0 3021.0520329352 -0)
(-0 3021.07209581275 -0)
)
;

boundaryField
{
    dielectric_2
    {
        type            calculated;
        value           uniform (-0 3021.09215045382 -0);
    }
    dielectric_1
    {
        type            calculated;
        value           nonuniform 0();
    }
    otherfaces
    {
        type            empty;
    }
    procBoundary3to2
    {
        type            processor;
        value           uniform (-0 4531.27484593324 -0);
    }
}


// ************************************************************************* //
