/*--------------------------------*- C++ -*----------------------------------*\
| =========                 |                                                 |
| \\      /  F ield         | foam-extend: Open Source CFD                    |
|  \\    /   O peration     | Version:     4.0                                |
|   \\  /    A nd           | Web:         http://www.foam-extend.org         |
|    \\/     M anipulation  |                                                 |
\*---------------------------------------------------------------------------*/
FoamFile
{
    version     2.0;
    format      ascii;
    class       volScalarField;
    location    "7.4e-06";
    object      Ar;
}
// * * * * * * * * * * * * * * * * * * * * * * * * * * * * * * * * * * * * * //

dimensions      [0 0 0 1 0 0 0];

internalField   nonuniform List<scalar> 
300
(
3.21880225583081e+22
3.21880225155026e+22
3.21880225445573e+22
3.21880225561484e+22
3.21880225759373e+22
3.21880226033784e+22
3.21880226368042e+22
3.21880226768693e+22
3.21880227234511e+22
3.21880227765163e+22
3.21880228360704e+22
3.21880229021017e+22
3.21880229746054e+22
3.21880230535783e+22
3.21880231390187e+22
3.21880232309262e+22
3.21880233293046e+22
3.21880234341541e+22
3.2188023545476e+22
3.21880236632736e+22
3.21880237875508e+22
3.21880239183125e+22
3.21880240555639e+22
3.2188024199311e+22
3.21880243495765e+22
3.21880245063548e+22
3.2188024669655e+22
3.21880248394879e+22
3.21880250158536e+22
3.2188025198761e+22
3.21880253882381e+22
3.2188025584288e+22
3.21880257869079e+22
3.21880259961075e+22
3.21880262118977e+22
3.21880264342897e+22
3.21880266632998e+22
3.21880268989384e+22
3.21880271412157e+22
3.21880273901456e+22
3.21880276457425e+22
3.21880279080194e+22
3.2188028176991e+22
3.21880284526725e+22
3.21880287350796e+22
3.21880290242285e+22
3.21880293201382e+22
3.21880296228273e+22
3.21880299323241e+22
3.21880302486505e+22
3.21880305718402e+22
3.2188030901902e+22
3.21880312388625e+22
3.2188031582726e+22
3.21880319335062e+22
3.21880322912089e+22
3.21880326558533e+22
3.2188033027459e+22
3.21880334060463e+22
3.21880337916378e+22
3.21880341842521e+22
3.21880345839107e+22
3.21880349906402e+22
3.21880354044823e+22
3.21880358254566e+22
3.21880362535614e+22
3.21880366888186e+22
3.21880371312503e+22
3.2188037580879e+22
3.21880380377274e+22
3.21880385018207e+22
3.21880389731901e+22
3.21880394518613e+22
3.21880399378513e+22
3.21880404311977e+22
3.21880409319236e+22
3.21880414400469e+22
3.21880419555957e+22
3.21880424785741e+22
3.21880430090364e+22
3.21880435469721e+22
3.21880440924026e+22
3.21880446453547e+22
3.21880452058494e+22
3.21880457739248e+22
3.21880463495965e+22
3.21880469328755e+22
3.21880475237836e+22
3.21880481223548e+22
3.21880487286061e+22
3.21880493425721e+22
3.21880499643153e+22
3.21880505937675e+22
3.21880512309724e+22
3.21880518759751e+22
3.21880525287994e+22
3.2188053189473e+22
3.21880538580237e+22
3.21880545344898e+22
3.21880552188981e+22
3.21880559112686e+22
3.21880566116257e+22
3.21880573200265e+22
3.21880580364665e+22
3.2188058760979e+22
3.21880594935972e+22
3.21880602343293e+22
3.21880609832174e+22
3.21880617402736e+22
3.21880625055139e+22
3.21880632789614e+22
3.21880640606393e+22
3.21880648505755e+22
3.21880656487919e+22
3.21880664553102e+22
3.21880672701667e+22
3.21880680933988e+22
3.21880689249997e+22
3.2188069764986e+22
3.21880706133829e+22
3.21880714702335e+22
3.21880723355412e+22
3.21880732093509e+22
3.21880740916676e+22
3.21880749824953e+22
3.21880758818511e+22
3.21880767897776e+22
3.21880777062717e+22
3.21880786313581e+22
3.21880795650528e+22
3.21880805073848e+22
3.21880814583713e+22
3.21880824180303e+22
3.2188083386401e+22
3.21880843635322e+22
3.21880853494179e+22
3.21880863440664e+22
3.21880873475151e+22
3.21880883597948e+22
3.21880893809084e+22
3.21880904108835e+22
3.21880914497483e+22
3.21880924975462e+22
3.21880935543199e+22
3.21880946201046e+22
3.21880956948902e+22
3.21880967787006e+22
3.21880978715602e+22
3.21880989735059e+22
3.21881000845921e+22
3.21881012048085e+22
3.21881023341817e+22
3.21881034727647e+22
3.21881046205623e+22
3.21881057775663e+22
3.21881069438057e+22
3.21881081193059e+22
3.2188109304056e+22
3.21881104978828e+22
3.21881117008076e+22
3.21881129129685e+22
3.21881141337339e+22
3.21881153643052e+22
3.21881166017066e+22
3.21881178518547e+22
3.21881191014806e+22
3.21881203490622e+22
3.2188121613402e+22
3.21881228870623e+22
3.21881241691505e+22
3.21881254542567e+22
3.21881267389077e+22
3.21881280272151e+22
3.21881293089151e+22
3.21881305985373e+22
3.21881319154665e+22
3.21881331947338e+22
3.218813445356e+22
3.21881357530855e+22
3.21881370054484e+22
3.21881382028882e+22
3.21881394404278e+22
3.21881405976332e+22
3.21881416822725e+22
3.21881427929063e+22
3.2188143790713e+22
3.21881447023127e+22
3.21881456055548e+22
3.21881463930953e+22
3.21881470762353e+22
3.21881477283879e+22
3.21881482893511e+22
3.21881487582201e+22
3.21881491347185e+22
3.21881494729211e+22
3.21881496868802e+22
3.21881498417073e+22
3.21881499400555e+22
3.2188150029196e+22
3.21881500845235e+22
3.21881501135865e+22
3.21881500902955e+22
3.21881500795295e+22
3.21881500750724e+22
3.21881501293085e+22
3.2188150203875e+22
3.21881502925615e+22
3.21881503780618e+22
3.21881504541604e+22
3.21881505202964e+22
3.21881505775299e+22
3.21881506267622e+22
3.21881506686929e+22
3.21881507226416e+22
3.21881507774905e+22
3.21881508282368e+22
3.21881508736652e+22
3.21881509159676e+22
3.21881509540446e+22
3.21881509899338e+22
3.21881510223059e+22
3.21881510534513e+22
3.2188151081918e+22
3.21881511094182e+22
3.21881511343166e+22
3.21881511733662e+22
3.21881512105422e+22
3.21881512475066e+22
3.21881512815706e+22
3.21881513156504e+22
3.21881513469729e+22
3.21881513785057e+22
3.2188151407363e+22
3.21881514365718e+22
3.21881514631725e+22
3.21881514902221e+22
3.21881515146989e+22
3.21881515397107e+22
3.21881515621609e+22
3.21881515852278e+22
3.2188151605735e+22
3.21881516294567e+22
3.21881516586884e+22
3.21881516885073e+22
3.21881517158956e+22
3.21881517439288e+22
3.2188151769559e+22
3.21881517959134e+22
3.21881518198823e+22
3.21881518446489e+22
3.21881518670575e+22
3.21881518903223e+22
3.21881519112578e+22
3.21881519331001e+22
3.21881519526316e+22
3.21881519731245e+22
3.21881519913205e+22
3.21881520105353e+22
3.21881520274673e+22
3.2188152045466e+22
3.21881520611908e+22
3.21881520780373e+22
3.21881520926169e+22
3.21881521083693e+22
3.21881521218626e+22
3.2188152141177e+22
3.21881521603758e+22
3.21881521808999e+22
3.21881521990761e+22
3.21881522186242e+22
3.21881522358283e+22
3.21881522544447e+22
3.21881522707293e+22
3.2188152288471e+22
3.21881523038913e+22
3.21881523208199e+22
3.21881523354312e+22
3.21881523515877e+22
3.21881523654214e+22
3.21881523808394e+22
3.21881523939344e+22
3.21881524086899e+22
3.2188152421298e+22
3.21881524357325e+22
3.21881524478594e+22
3.21881524616978e+22
3.2188152473218e+22
3.2188152486464e+22
3.21881524973921e+22
3.21881525104644e+22
3.21881525214522e+22
3.21881525342256e+22
3.21881525446463e+22
3.218815255749e+22
3.21881525681964e+22
3.21881525809513e+22
3.21881525921275e+22
3.21881526057827e+22
3.21881526179832e+22
3.21881526427676e+22
)
;

boundaryField
{
    electrode
    {
        type            zeroGradient;
    }
    ground
    {
        type            zeroGradient;
    }
    otherfaces
    {
        type            empty;
    }
}


// ************************************************************************* //
