/*--------------------------------*- C++ -*----------------------------------*\
| =========                 |                                                 |
| \\      /  F ield         | foam-extend: Open Source CFD                    |
|  \\    /   O peration     | Version:     4.0                                |
|   \\  /    A nd           | Web:         http://www.foam-extend.org         |
|    \\/     M anipulation  |                                                 |
\*---------------------------------------------------------------------------*/
FoamFile
{
    version     2.0;
    format      ascii;
    class       volScalarField;
    location    "7.4e-06";
    object      Arm;
}
// * * * * * * * * * * * * * * * * * * * * * * * * * * * * * * * * * * * * * //

dimensions      [0 0 0 1 0 0 0];

internalField   nonuniform List<scalar> 
300
(
3.57411724324516e+15
3.57599185318077e+15
3.57793959091127e+15
3.57924577841577e+15
3.58006207039566e+15
3.58044065656845e+15
3.58042573703476e+15
3.58004875908172e+15
3.57933538373958e+15
3.57830759171282e+15
3.57698116266932e+15
3.57537018224356e+15
3.57348670427832e+15
3.57134133170942e+15
3.56894352184426e+15
3.56630181605165e+15
3.56342104649566e+15
3.5603097950953e+15
3.55697640133683e+15
3.55342734653784e+15
3.54966883215248e+15
3.54570677983977e+15
3.54154687959894e+15
3.53719455984305e+15
3.53263919817978e+15
3.52789848156675e+15
3.52297612804355e+15
3.51787416869585e+15
3.51260617196206e+15
3.50717700724441e+15
3.5015729676508e+15
3.49580540572535e+15
3.48989240492287e+15
3.48383936306531e+15
3.47765136641472e+15
3.47133321131516e+15
3.46488508466581e+15
3.45831349577733e+15
3.45162550876582e+15
3.44482466320074e+15
3.43791446484474e+15
3.43090018613157e+15
3.42378570938755e+15
3.41657472614981e+15
3.40927073654238e+15
3.40187700178467e+15
3.39439446983099e+15
3.38682457747227e+15
3.37915957968675e+15
3.37139804575187e+15
3.36352741519276e+15
3.35556014255904e+15
3.34749088270479e+15
3.33933731622402e+15
3.33110759736731e+15
3.32281807194902e+15
3.31447205580228e+15
3.30607246509324e+15
3.29762186974577e+15
3.289120694824e+15
3.28057324857376e+15
3.27198163829812e+15
3.26334250834559e+15
3.25463793835987e+15
3.24587190620094e+15
3.23706994522418e+15
3.22823417576363e+15
3.21936643757218e+15
3.21046831649828e+15
3.20154116977465e+15
3.19258414712666e+15
3.18359011112499e+15
3.17455752872886e+15
3.16549381144651e+15
3.15638545750588e+15
3.1472335150192e+15
3.13804430946729e+15
3.12881375015487e+15
3.11956173190763e+15
3.11025782582364e+15
3.10093650787804e+15
3.09159993518062e+15
3.08224503560589e+15
3.07287404430822e+15
3.06347218663354e+15
3.05404718338886e+15
3.04461072273367e+15
3.03516312404865e+15
3.02569251283816e+15
3.01620660562955e+15
3.0066993591618e+15
2.9971258757469e+15
2.98754125457991e+15
2.97794719258452e+15
2.96834372053882e+15
2.95873086431122e+15
2.94910840561203e+15
2.93947590027333e+15
2.9298224362229e+15
2.92014794728938e+15
2.91045868388465e+15
2.90075589439379e+15
2.8910079190151e+15
2.88124387342331e+15
2.87145458115826e+15
2.86163072451061e+15
2.85178726073778e+15
2.8419046489035e+15
2.83199327426254e+15
2.82205858583827e+15
2.81209872124481e+15
2.80211138836179e+15
2.79208885892814e+15
2.78202891452677e+15
2.77192931733063e+15
2.76177243107477e+15
2.75153941929075e+15
2.74125500635214e+15
2.73092008228045e+15
2.72052655696239e+15
2.71004810621218e+15
2.69949760173705e+15
2.68884614566132e+15
2.67810408949629e+15
2.66728284775948e+15
2.65638020604554e+15
2.64536813261201e+15
2.63426398021954e+15
2.62305696243214e+15
2.61174501327012e+15
2.60031251779566e+15
2.58875559165708e+15
2.57706921468297e+15
2.56522731191864e+15
2.55319349285795e+15
2.540986534166e+15
2.52861034346407e+15
2.51603991692497e+15
2.50325642063242e+15
2.4902689163522e+15
2.47706144449339e+15
2.46361733342452e+15
2.44990445548227e+15
2.43589072043275e+15
2.42155155675993e+15
2.40690667606112e+15
2.39194124809679e+15
2.37663889484712e+15
2.36096907442534e+15
2.34488298601623e+15
2.32839294897112e+15
2.31147421476401e+15
2.29406462609999e+15
2.27616290772474e+15
2.25775078712917e+15
2.23877857764104e+15
2.21920306938989e+15
2.19902364213021e+15
2.17822114220303e+15
2.1567506489085e+15
2.13457656848127e+15
2.11168376089627e+15
2.08803405640025e+15
2.06363991300862e+15
2.03848831810147e+15
2.01252483338293e+15
1.98577022225864e+15
1.95826900944879e+15
1.93005019467385e+15
1.90115576237081e+15
1.87165424513339e+15
1.8415790754038e+15
1.81102265843538e+15
1.78015644187712e+15
1.74917432118723e+15
1.71824618169557e+15
1.68755122069636e+15
1.65728846010464e+15
1.62769656452886e+15
1.59893119618385e+15
1.57114662633788e+15
1.54448983562141e+15
1.51904229516542e+15
1.49491863708842e+15
1.47211876672883e+15
1.45055271997821e+15
1.43026009849624e+15
1.41119046638226e+15
1.39325802049404e+15
1.37638219221184e+15
1.36046910523154e+15
1.34556978820322e+15
1.33217400560596e+15
1.32534943100405e+15
1.35127008002262e+15
1.417076434761e+15
1.49655707595315e+15
1.56124393634697e+15
1.61719382289137e+15
1.6712300422759e+15
1.72224884666929e+15
1.7659662049111e+15
1.77965818628571e+15
1.75862344438999e+15
1.71472511978489e+15
1.66403957582623e+15
1.61804162695622e+15
1.58253068879867e+15
1.55737875044868e+15
1.54067602683459e+15
1.52944046948382e+15
1.52215398200917e+15
1.51736324587691e+15
1.51446780303504e+15
1.5118546788741e+15
1.50956727277968e+15
1.50753818668766e+15
1.50545068111658e+15
1.50307578204873e+15
1.50027876927113e+15
1.49697044265638e+15
1.49276872359645e+15
1.48766073840831e+15
1.4818207209271e+15
1.47533233026992e+15
1.46835676744283e+15
1.46094187670278e+15
1.45311819806733e+15
1.44493403694706e+15
1.43644483881595e+15
1.42768396042382e+15
1.41870029240547e+15
1.40954675084938e+15
1.40025826110935e+15
1.39087158310561e+15
1.38143813410582e+15
1.37197437491672e+15
1.36252884552577e+15
1.35311720926281e+15
1.34377405220069e+15
1.3345205910395e+15
1.32536700211547e+15
1.31634420080881e+15
1.30745266859039e+15
1.29871122923406e+15
1.29014598336564e+15
1.28175193389032e+15
1.2735437062525e+15
1.26552918691473e+15
1.2577044583127e+15
1.25007950593582e+15
1.24265235645755e+15
1.23542146397101e+15
1.22839257315792e+15
1.22155897840656e+15
1.21491813912226e+15
1.20847059661037e+15
1.2022028466777e+15
1.19612296090939e+15
1.19022096360536e+15
1.18450094311918e+15
1.17895085544073e+15
1.1735724526035e+15
1.16835634778818e+15
1.16329903577862e+15
1.15839547540807e+15
1.15363674000866e+15
1.1490183701012e+15
1.14452845395296e+15
1.14017145815897e+15
1.13593804985584e+15
1.13183131381839e+15
1.12783633074755e+15
1.1239578343731e+15
1.12018300577127e+15
1.11650966766906e+15
1.11293540107634e+15
1.1094595347783e+15
1.10608337968388e+15
1.10279995115693e+15
1.09960743913619e+15
1.09646491237228e+15
1.09322901641432e+15
1.08990936824992e+15
1.08665732339782e+15
1.0834690120861e+15
1.08035341531901e+15
1.07731334417277e+15
1.07433934436037e+15
1.07104544062956e+15
1.06757955187689e+15
1.06419463296739e+15
1.06089791874225e+15
1.05706975604757e+15
1.0531187626744e+15
1.04905519813049e+15
1.04429792004218e+15
1.03906938085202e+15
1.03303499408802e+15
1.02567851278204e+15
)
;

boundaryField
{
    electrode
    {
        type            zeroGradient;
    }
    ground
    {
        type            zeroGradient;
    }
    otherfaces
    {
        type            empty;
    }
}


// ************************************************************************* //
