/*--------------------------------*- C++ -*----------------------------------*\
| =========                 |                                                 |
| \\      /  F ield         | foam-extend: Open Source CFD                    |
|  \\    /   O peration     | Version:     4.0                                |
|   \\  /    A nd           | Web:         http://www.foam-extend.org         |
|    \\/     M anipulation  |                                                 |
\*---------------------------------------------------------------------------*/
FoamFile
{
    version     2.0;
    format      ascii;
    class       volVectorField;
    location    "7.4e-06";
    object      J_Arp1;
}
// * * * * * * * * * * * * * * * * * * * * * * * * * * * * * * * * * * * * * //

dimensions      [1 -1 -1 0 0 0 0];

internalField   nonuniform List<vector> 
300
(
(1.98221578368686e+16 -0 -0)
(7.11806713400336e+16 -0 -0)
(1.27116492201292e+17 -0 -0)
(1.76769955968238e+17 -0 -0)
(2.27129555223004e+17 -0 -0)
(2.77796509229161e+17 -0 -0)
(3.28332418281757e+17 -0 -0)
(3.78927463934801e+17 -0 -0)
(4.29553174415818e+17 -0 -0)
(4.80209264239849e+17 -0 -0)
(5.30903285171416e+17 -0 -0)
(5.81637673608263e+17 -0 -0)
(6.32416047421275e+17 -0 -0)
(6.83242001101865e+17 -0 -0)
(7.34119019524286e+17 -0 -0)
(7.85050605696659e+17 -0 -0)
(8.36040240463726e+17 -0 -0)
(8.87091384953239e+17 -0 -0)
(9.38207481481015e+17 -0 -0)
(9.89391950903686e+17 -0 -0)
(1.04064819203109e+18 -0 -0)
(1.09197957991643e+18 -0 -0)
(1.14338946478389e+18 -0 -0)
(1.19488117029354e+18 -0 -0)
(1.24645799223234e+18 -0 -0)
(1.29812319691775e+18 -0 -0)
(1.34988001932856e+18 -0 -0)
(1.40173166198699e+18 -0 -0)
(1.45368129264248e+18 -0 -0)
(1.50573204265962e+18 -0 -0)
(1.55788700535225e+18 -0 -0)
(1.61014923374812e+18 -0 -0)
(1.66252173863445e+18 -0 -0)
(1.71500748689062e+18 -0 -0)
(1.76760939882295e+18 -0 -0)
(1.82033034611405e+18 -0 -0)
(1.87317315015036e+18 -0 -0)
(1.9261405787645e+18 -0 -0)
(1.97923534486402e+18 -0 -0)
(2.03246010325053e+18 -0 -0)
(2.08581744865303e+18 -0 -0)
(2.13930991285918e+18 -0 -0)
(2.19293996249893e+18 -0 -0)
(2.24670999618796e+18 -0 -0)
(2.3006223420228e+18 -0 -0)
(2.35467925489499e+18 -0 -0)
(2.40888291358035e+18 -0 -0)
(2.46323541818535e+18 -0 -0)
(2.5177387873046e+18 -0 -0)
(2.57239495520176e+18 -0 -0)
(2.62720576895124e+18 -0 -0)
(2.68217298567248e+18 -0 -0)
(2.73729826946233e+18 -0 -0)
(2.79258318881033e+18 -0 -0)
(2.84802921351367e+18 -0 -0)
(2.90363771196005e+18 -0 -0)
(2.95940994789376e+18 -0 -0)
(3.01534707803929e+18 -0 -0)
(3.07145014904187e+18 -0 -0)
(3.12772009451459e+18 -0 -0)
(3.18415773232884e+18 -0 -0)
(3.24076376211313e+18 -0 -0)
(3.29753876195594e+18 -0 -0)
(3.35448318625826e+18 -0 -0)
(3.41159736278534e+18 -0 -0)
(3.46888149006526e+18 -0 -0)
(3.52633563515079e+18 -0 -0)
(3.58395973073665e+18 -0 -0)
(3.64175357299325e+18 -0 -0)
(3.69971681925401e+18 -0 -0)
(3.75784898551515e+18 -0 -0)
(3.81614944446181e+18 -0 -0)
(3.87461742326436e+18 -0 -0)
(3.93325200160999e+18 -0 -0)
(3.99205210986077e+18 -0 -0)
(4.05101652703809e+18 -0 -0)
(4.11014387909031e+18 -0 -0)
(4.16943263760625e+18 -0 -0)
(4.2288811179053e+18 -0 -0)
(4.28848747691026e+18 -0 -0)
(4.34824971176376e+18 -0 -0)
(4.40816566099222e+18 -0 -0)
(4.46823300827811e+18 -0 -0)
(4.5284492796965e+18 -0 -0)
(4.58881180554415e+18 -0 -0)
(4.64931767461193e+18 -0 -0)
(4.70996389133931e+18 -0 -0)
(4.77074779363836e+18 -0 -0)
(4.83166681675689e+18 -0 -0)
(4.89271603750816e+18 -0 -0)
(4.95388592140158e+18 -0 -0)
(5.01517202169092e+18 -0 -0)
(5.07659887074449e+18 -0 -0)
(5.13819496074841e+18 -0 -0)
(5.19996629735939e+18 -0 -0)
(5.26190801227519e+18 -0 -0)
(5.3240141567463e+18 -0 -0)
(5.38627848553489e+18 -0 -0)
(5.44869457216267e+18 -0 -0)
(5.51125588155857e+18 -0 -0)
(5.57395578337364e+18 -0 -0)
(5.63678755355269e+18 -0 -0)
(5.69974437334919e+18 -0 -0)
(5.76281932751055e+18 -0 -0)
(5.82600540232124e+18 -0 -0)
(5.88929548376285e+18 -0 -0)
(5.95268235574301e+18 -0 -0)
(6.01615869833099e+18 -0 -0)
(6.07971708613844e+18 -0 -0)
(6.14334998644187e+18 -0 -0)
(6.20704975749855e+18 -0 -0)
(6.27080864709831e+18 -0 -0)
(6.33461879057222e+18 -0 -0)
(6.39847220913231e+18 -0 -0)
(6.46236080808617e+18 -0 -0)
(6.52627637484276e+18 -0 -0)
(6.59021057689166e+18 -0 -0)
(6.65415495988764e+18 -0 -0)
(6.71810094512254e+18 -0 -0)
(6.78203982716619e+18 -0 -0)
(6.84596277129295e+18 -0 -0)
(6.90986081043696e+18 -0 -0)
(6.97372484230345e+18 -0 -0)
(7.03754562585252e+18 -0 -0)
(7.10131377750483e+18 -0 -0)
(7.16501976732572e+18 -0 -0)
(7.22865391443784e+18 -0 -0)
(7.29220638224552e+18 -0 -0)
(7.35566717317002e+18 -0 -0)
(7.41902612303687e+18 -0 -0)
(7.4822728945402e+18 -0 -0)
(7.54539697089674e+18 -0 -0)
(7.60838764807045e+18 -0 -0)
(7.67123402694062e+18 -0 -0)
(7.7339250046516e+18 -0 -0)
(7.7964492651643e+18 -0 -0)
(7.8587952691473e+18 -0 -0)
(7.92095124305923e+18 -0 -0)
(7.98290516736558e+18 -0 -0)
(8.04464476399655e+18 -0 -0)
(8.10615748254486e+18 -0 -0)
(8.16743048628832e+18 -0 -0)
(8.22845063610784e+18 -0 -0)
(8.28920447548562e+18 -0 -0)
(8.34967820864438e+18 -0 -0)
(8.40985768935527e+18 -0 -0)
(8.46972841256824e+18 -0 -0)
(8.52927540322857e+18 -0 -0)
(8.58848343990368e+18 -0 -0)
(8.64733664197986e+18 -0 -0)
(8.70581898683857e+18 -0 -0)
(8.76391283544441e+18 -0 -0)
(8.82160393102723e+18 -0 -0)
(8.87886928611501e+18 -0 -0)
(8.93569449995876e+18 -0 -0)
(8.99206430525254e+18 -0 -0)
(9.04795328999763e+18 -0 -0)
(9.10331611382184e+18 -0 -0)
(9.15821448953642e+18 -0 -0)
(9.21266470731255e+18 -0 -0)
(9.26653820554149e+18 -0 -0)
(9.32011801408846e+18 -0 -0)
(9.3726407020053e+18 -0 -0)
(9.42572570272415e+18 -0 -0)
(9.47585206474919e+18 -0 -0)
(9.52923297057867e+18 -0 -0)
(9.57914841110855e+18 -0 -0)
(9.62899587266477e+18 -0 -0)
(9.67873730670981e+18 -0 -0)
(9.72694477157788e+18 -0 -0)
(9.77555180105276e+18 -0 -0)
(9.82314573602632e+18 -0 -0)
(9.86903910652983e+18 -0 -0)
(9.91764458325487e+18 -0 -0)
(9.96016000694553e+18 -0 -0)
(1.00026892550866e+19 -0 -0)
(1.00514512606569e+19 -0 -0)
(1.00907224117649e+19 -0 -0)
(1.01295284772159e+19 -0 -0)
(1.01734735934965e+19 -0 -0)
(1.02123267335545e+19 -0 -0)
(1.0241096458376e+19 -0 -0)
(1.0286232387576e+19 -0 -0)
(1.03155175015188e+19 -0 -0)
(1.03405278311451e+19 -0 -0)
(1.03799803866066e+19 -0 -0)
(1.03987878866374e+19 -0 -0)
(1.04236929084582e+19 -0 -0)
(1.04530229915887e+19 -0 -0)
(1.04756023175803e+19 -0 -0)
(1.04965168158352e+19 -0 -0)
(1.05241584637731e+19 -0 -0)
(1.0546589277743e+19 -0 -0)
(1.05794529671508e+19 -0 -0)
(1.05986916398731e+19 -0 -0)
(1.06502685085672e+19 -0 -0)
(1.06802482697008e+19 -0 -0)
(1.07585102493869e+19 -0 -0)
(1.08227786451615e+19 -0 -0)
(1.09698810301312e+19 -0 -0)
(1.11291108135653e+19 -0 -0)
(1.13778872146103e+19 -0 -0)
(1.1634483952269e+19 -0 -0)
(1.19298821374845e+19 -0 -0)
(1.21171890139384e+19 -0 -0)
(1.23321273395503e+19 -0 -0)
(1.24788234037598e+19 -0 -0)
(1.25849704955518e+19 -0 -0)
(1.26676471532287e+19 -0 -0)
(1.2734705415008e+19 -0 -0)
(1.27926473441515e+19 -0 -0)
(1.28445500961827e+19 -0 -0)
(1.28939321594294e+19 -0 -0)
(1.29392711212748e+19 -0 -0)
(1.29861924308782e+19 -0 -0)
(1.30303873354111e+19 -0 -0)
(1.30766830647125e+19 -0 -0)
(1.31208279039388e+19 -0 -0)
(1.31675482950496e+19 -0 -0)
(1.32121469810584e+19 -0 -0)
(1.32594958479533e+19 -0 -0)
(1.33045812838402e+19 -0 -0)
(1.33523342022203e+19 -0 -0)
(1.33975544667073e+19 -0 -0)
(1.34455179938744e+19 -0 -0)
(1.34898405602562e+19 -0 -0)
(1.3538201116761e+19 -0 -0)
(1.35819294117149e+19 -0 -0)
(1.36297873080974e+19 -0 -0)
(1.36726633331122e+19 -0 -0)
(1.37197142174231e+19 -0 -0)
(1.37614386969057e+19 -0 -0)
(1.38073962028606e+19 -0 -0)
(1.38477153460532e+19 -0 -0)
(1.38923582757469e+19 -0 -0)
(1.39310996468024e+19 -0 -0)
(1.39742864719483e+19 -0 -0)
(1.40113491267202e+19 -0 -0)
(1.4053002377504e+19 -0 -0)
(1.40883142966321e+19 -0 -0)
(1.41283826662993e+19 -0 -0)
(1.41618437556478e+19 -0 -0)
(1.4200093180104e+19 -0 -0)
(1.42320441381637e+19 -0 -0)
(1.42685848602068e+19 -0 -0)
(1.42987330972808e+19 -0 -0)
(1.43336498662446e+19 -0 -0)
(1.43620313211359e+19 -0 -0)
(1.43953540085161e+19 -0 -0)
(1.44220099849447e+19 -0 -0)
(1.44537714037676e+19 -0 -0)
(1.44787484489475e+19 -0 -0)
(1.4508998501049e+19 -0 -0)
(1.45323695132927e+19 -0 -0)
(1.45611865486654e+19 -0 -0)
(1.45830481226396e+19 -0 -0)
(1.46105301555814e+19 -0 -0)
(1.46309686814601e+19 -0 -0)
(1.46571960534264e+19 -0 -0)
(1.46762730776092e+19 -0 -0)
(1.4701313183901e+19 -0 -0)
(1.47190788115252e+19 -0 -0)
(1.47429918776118e+19 -0 -0)
(1.47595106538587e+19 -0 -0)
(1.47823850954695e+19 -0 -0)
(1.47975726377383e+19 -0 -0)
(1.48196677046065e+19 -0 -0)
(1.48337829846383e+19 -0 -0)
(1.48549360088515e+19 -0 -0)
(1.48680064910129e+19 -0 -0)
(1.4888312500253e+19 -0 -0)
(1.49004304458702e+19 -0 -0)
(1.49199657155294e+19 -0 -0)
(1.4931197629488e+19 -0 -0)
(1.49500099446099e+19 -0 -0)
(1.49603894422884e+19 -0 -0)
(1.49785143328713e+19 -0 -0)
(1.4988079636817e+19 -0 -0)
(1.50055658982457e+19 -0 -0)
(1.50143616766968e+19 -0 -0)
(1.5031262823533e+19 -0 -0)
(1.50393376562125e+19 -0 -0)
(1.50556946238375e+19 -0 -0)
(1.50630899789586e+19 -0 -0)
(1.50788952738032e+19 -0 -0)
(1.50855974136804e+19 -0 -0)
(1.51008587287855e+19 -0 -0)
(1.51068991193768e+19 -0 -0)
(1.51216444388054e+19 -0 -0)
(1.51270628187544e+19 -0 -0)
(1.5141319232256e+19 -0 -0)
(1.51460528050162e+19 -0 -0)
(1.51597664015583e+19 -0 -0)
(1.51638352087144e+19 -0 -0)
(1.51769650507202e+19 -0 -0)
(1.51802369837767e+19 -0 -0)
(1.51927186967236e+19 -0 -0)
(1.51950009443027e+19 -0 -0)
(1.52065760482381e+19 -0 -0)
(1.51838437636792e+19 -0 -0)
)
;

boundaryField
{
    electrode
    {
        type            calculated;
        value           uniform (-13955949895.978 -0 -0);
    }
    ground
    {
        type            calculated;
        value           uniform (1.52124812811853e+19 -0 -0);
    }
    otherfaces
    {
        type            empty;
    }
}


// ************************************************************************* //
