/*--------------------------------*- C++ -*----------------------------------*\
| =========                 |                                                 |
| \\      /  F ield         | foam-extend: Open Source CFD                    |
|  \\    /   O peration     | Version:     4.0                                |
|   \\  /    A nd           | Web:         http://www.foam-extend.org         |
|    \\/     M anipulation  |                                                 |
\*---------------------------------------------------------------------------*/
FoamFile
{
    version     2.0;
    format      ascii;
    class       volVectorField;
    location    "7.4e-06";
    object      J_electron;
}
// * * * * * * * * * * * * * * * * * * * * * * * * * * * * * * * * * * * * * //

dimensions      [1 -1 -1 0 0 0 0];

internalField   nonuniform List<vector> 
300
(
(-1.32930231250004e+19 0 0)
(-1.36432320852894e+19 0 0)
(-1.61224471905523e+19 0 0)
(-1.56289027758921e+19 0 0)
(-1.5627037539626e+19 0 0)
(-1.56127868612493e+19 0 0)
(-1.55479814274852e+19 0 0)
(-1.54992756738074e+19 0 0)
(-1.5448149340098e+19 0 0)
(-1.5396366706819e+19 0 0)
(-1.53449305662958e+19 0 0)
(-1.52933565680827e+19 0 0)
(-1.52417369027852e+19 0 0)
(-1.51900744034497e+19 0 0)
(-1.51383555039754e+19 0 0)
(-1.50865797087676e+19 0 0)
(-1.50347431173023e+19 0 0)
(-1.49828419924184e+19 0 0)
(-1.49308729266827e+19 0 0)
(-1.48788323018627e+19 0 0)
(-1.48267166660685e+19 0 0)
(-1.47745224959323e+19 0 0)
(-1.47222463785741e+19 0 0)
(-1.46698848630156e+19 0 0)
(-1.46174345626873e+19 0 0)
(-1.45648921447686e+19 0 0)
(-1.45122542014026e+19 0 0)
(-1.44595175089942e+19 0 0)
(-1.44066787707539e+19 0 0)
(-1.43537347385646e+19 0 0)
(-1.43006822619349e+19 0 0)
(-1.4247518183191e+19 0 0)
(-1.41942393416139e+19 0 0)
(-1.41408427443568e+19 0 0)
(-1.4087325348967e+19 0 0)
(-1.40336840993791e+19 0 0)
(-1.39799162066347e+19 0 0)
(-1.39260186504504e+19 0 0)
(-1.38719887107312e+19 0 0)
(-1.3817823549391e+19 0 0)
(-1.37635204845024e+19 0 0)
(-1.37090767987883e+19 0 0)
(-1.36544899291944e+19 0 0)
(-1.35997573000436e+19 0 0)
(-1.35448764181413e+19 0 0)
(-1.34898448812925e+19 0 0)
(-1.3434660298951e+19 0 0)
(-1.33793203830504e+19 0 0)
(-1.33238228997049e+19 0 0)
(-1.32681656839357e+19 0 0)
(-1.3212346622336e+19 0 0)
(-1.31563637273246e+19 0 0)
(-1.31002150118034e+19 0 0)
(-1.30438986168043e+19 0 0)
(-1.29874127177109e+19 0 0)
(-1.29307556411091e+19 0 0)
(-1.28739256580204e+19 0 0)
(-1.28169212300265e+19 0 0)
(-1.27597408791641e+19 0 0)
(-1.27023831687863e+19 0 0)
(-1.26448467289527e+19 0 0)
(-1.258713038767e+19 0 0)
(-1.25292328864076e+19 0 0)
(-1.24711531705525e+19 0 0)
(-1.24128902336503e+19 0 0)
(-1.23544430979955e+19 0 0)
(-1.22958109645582e+19 0 0)
(-1.2236993030509e+19 0 0)
(-1.2177988603138e+19 0 0)
(-1.21187971007628e+19 0 0)
(-1.20594179491955e+19 0 0)
(-1.19998507062274e+19 0 0)
(-1.19400949903825e+19 0 0)
(-1.18801504726944e+19 0 0)
(-1.18200169416871e+19 0 0)
(-1.17596942368485e+19 0 0)
(-1.16991822089025e+19 0 0)
(-1.1638480870366e+19 0 0)
(-1.15775903114556e+19 0 0)
(-1.15165105860426e+19 0 0)
(-1.14552415749978e+19 0 0)
(-1.13937831056229e+19 0 0)
(-1.13321359552812e+19 0 0)
(-1.12703037894898e+19 0 0)
(-1.12082890532103e+19 0 0)
(-1.11460753797053e+19 0 0)
(-1.10836308458194e+19 0 0)
(-1.10209977761409e+19 0 0)
(-1.09583953821533e+19 0 0)
(-1.08959044038573e+19 0 0)
(-1.08324598173406e+19 0 0)
(-1.07659344184696e+19 0 0)
(-1.06981450346361e+19 0 0)
(-1.06324649051606e+19 0 0)
(-1.05681692859223e+19 0 0)
(-1.05039304519597e+19 0 0)
(-1.04395202434617e+19 0 0)
(-1.03748745274511e+19 0 0)
(-1.03099755576736e+19 0 0)
(-1.02448196173761e+19 0 0)
(-1.01794063463618e+19 0 0)
(-1.01137360282085e+19 0 0)
(-1.00478089339071e+19 0 0)
(-9.98162505042336e+18 0 0)
(-9.91518401642784e+18 0 0)
(-9.84848508714693e+18 0 0)
(-9.78152708402106e+18 0 0)
(-9.71430836268696e+18 0 0)
(-9.64682683436447e+18 0 0)
(-9.57907981592848e+18 0 0)
(-9.51106399733862e+18 0 0)
(-9.44277552180809e+18 0 0)
(-9.3742097568073e+18 0 0)
(-9.30536131067747e+18 0 0)
(-9.23622399010564e+18 0 0)
(-9.16679066434299e+18 0 0)
(-9.09705316937708e+18 0 0)
(-9.02700232743059e+18 0 0)
(-8.95662770138435e+18 0 0)
(-8.88591755708832e+18 0 0)
(-8.81485875584591e+18 0 0)
(-8.74343651582411e+18 0 0)
(-8.67163438589988e+18 0 0)
(-8.59943400311462e+18 0 0)
(-8.5268148455426e+18 0 0)
(-8.45375414833198e+18 0 0)
(-8.38022657495322e+18 0 0)
(-8.30620396755144e+18 0 0)
(-8.23165503822837e+18 0 0)
(-8.15654511959396e+18 0 0)
(-8.08083560998843e+18 0 0)
(-8.00448379895257e+18 0 0)
(-7.92744219029379e+18 0 0)
(-7.84965806954853e+18 0 0)
(-7.7710729096347e+18 0 0)
(-7.69162167583087e+18 0 0)
(-7.61123206621928e+18 0 0)
(-7.52982366978939e+18 0 0)
(-7.44730699570767e+18 0 0)
(-7.36358236827576e+18 0 0)
(-7.27853866272372e+18 0 0)
(-7.19205193400241e+18 0 0)
(-7.10398375224987e+18 0 0)
(-7.01417955848094e+18 0 0)
(-6.92246612525397e+18 0 0)
(-6.82864905887207e+18 0 0)
(-6.73251493922367e+18 0 0)
(-6.63381207982539e+18 0 0)
(-6.53227575831377e+18 0 0)
(-6.42759243614336e+18 0 0)
(-6.31945001243771e+18 0 0)
(-6.20731026137468e+18 0 0)
(-6.09106386182839e+18 0 0)
(-5.96992102754471e+18 0 0)
(-5.8430320813057e+18 0 0)
(-5.71064644689671e+18 0 0)
(-5.57219666303595e+18 0 0)
(-5.42151422732193e+18 0 0)
(-5.25950606833195e+18 0 0)
(-5.09557521062769e+18 0 0)
(-4.91177630373406e+18 0 0)
(-4.73366035832924e+18 0 0)
(-4.48539346297002e+18 0 0)
(-4.25349900842985e+18 0 0)
(-3.67834520131889e+18 0 0)
(-2.67313315354614e+18 0 0)
(-2.29483472762071e+18 0 0)
(-2.33944057591418e+18 0 0)
(-2.13039111472887e+18 0 0)
(-1.66038864559237e+18 0 0)
(-9.47274417190207e+17 0 0)
(-3.48020779907023e+17 0 0)
(1.69420923167834e+17 0 0)
(2.3060785455222e+17 0 0)
(-7.04041766099091e+17 0 0)
(-6.96746608837001e+17 0 0)
(-5.51669355092378e+16 0 0)
(-1.49429605766896e+18 0 0)
(-2.58514619129974e+18 0 0)
(-2.12243199732115e+18 0 0)
(-3.40629283607675e+18 0 0)
(-4.62916108062976e+18 0 0)
(-3.8610138321398e+18 0 0)
(-4.45789370916222e+18 0 0)
(-3.88975511895592e+18 0 0)
(-1.64082855074228e+18 0 0)
(-3.0392565621588e+16 0 0)
(2.43924017499551e+18 0 0)
(5.74260620416202e+18 0 0)
(8.33135327152439e+18 0 0)
(1.05665697293643e+19 0 0)
(1.2416354937935e+19 0 0)
(1.31236173986975e+19 0 0)
(1.37417171638773e+19 0 0)
(1.21840836683689e+19 0 0)
(1.00956997072844e+19 0 0)
(8.83998901022163e+18 0 0)
(6.27859571324807e+18 0 0)
(8.31447816990858e+18 0 0)
(-8.86796396696437e+17 0 0)
(-4.80097776405578e+17 0 0)
(9.95922389568373e+17 0 0)
(-2.00221387866662e+18 0 0)
(-2.14232202711318e+18 0 0)
(-2.06752090955676e+18 0 0)
(-2.1083624844295e+18 0 0)
(-2.34197548185153e+18 0 0)
(-2.62861726510412e+18 0 0)
(-2.83432395575264e+18 0 0)
(-2.94495632222499e+18 0 0)
(-2.98897261481961e+18 0 0)
(-2.9882530098317e+18 0 0)
(-2.97381188276725e+18 0 0)
(-2.94230425993507e+18 0 0)
(-2.90715386380344e+18 0 0)
(-2.869986146125e+18 0 0)
(-2.82767556907555e+18 0 0)
(-2.78215219379566e+18 0 0)
(-2.73585310496676e+18 0 0)
(-2.68905075758199e+18 0 0)
(-2.6425540577903e+18 0 0)
(-2.59522149091728e+18 0 0)
(-2.54820940974242e+18 0 0)
(-2.50048216639543e+18 0 0)
(-2.45273749969341e+18 0 0)
(-2.40500283440655e+18 0 0)
(-2.35740134615895e+18 0 0)
(-2.31003822030736e+18 0 0)
(-2.26300486118614e+18 0 0)
(-2.21638362982445e+18 0 0)
(-2.17024968172806e+18 0 0)
(-2.12467094864294e+18 0 0)
(-2.07970854311894e+18 0 0)
(-2.03541660863253e+18 0 0)
(-1.99184255619306e+18 0 0)
(-1.94902764533262e+18 0 0)
(-1.90700374036119e+18 0 0)
(-1.86580511830594e+18 0 0)
(-1.82539879198011e+18 0 0)
(-1.78587601582616e+18 0 0)
(-1.74737909568998e+18 0 0)
(-1.70965776486591e+18 0 0)
(-1.67283657518155e+18 0 0)
(-1.63689723946767e+18 0 0)
(-1.6018511596411e+18 0 0)
(-1.56769196284141e+18 0 0)
(-1.53441232775952e+18 0 0)
(-1.50200151957285e+18 0 0)
(-1.47044681537196e+18 0 0)
(-1.43973353129066e+18 0 0)
(-1.40984558898089e+18 0 0)
(-1.38076531790375e+18 0 0)
(-1.35247569787399e+18 0 0)
(-1.32495394052561e+18 0 0)
(-1.29820684679252e+18 0 0)
(-1.27211264577167e+18 0 0)
(-1.24679590000689e+18 0 0)
(-1.22220315604374e+18 0 0)
(-1.19820260778946e+18 0 0)
(-1.17488003486549e+18 0 0)
(-1.15218005327057e+18 0 0)
(-1.13008931211401e+18 0 0)
(-1.10858653283765e+18 0 0)
(-1.08765283187341e+18 0 0)
(-1.06727099912408e+18 0 0)
(-1.04742161840323e+18 0 0)
(-1.02808442384725e+18 0 0)
(-1.00924363378613e+18 0 0)
(-9.90879819968378e+17 0 0)
(-9.72982280706898e+17 0 0)
(-9.55468080969996e+17 0 0)
(-9.38448698711714e+17 0 0)
(-9.21932545653831e+17 0 0)
(-9.05746157177737e+17 0 0)
(-8.89955514408484e+17 0 0)
(-8.74541904788274e+17 0 0)
(-8.59498227340253e+17 0 0)
(-8.44812644359027e+17 0 0)
(-8.30474382923919e+17 0 0)
(-8.16471921681239e+17 0 0)
(-8.02796044739412e+17 0 0)
(-7.8942412107119e+17 0 0)
(-7.76369512341819e+17 0 0)
(-7.63385890503705e+17 0 0)
(-7.51121320800111e+17 0 0)
(-7.39073703512452e+17 0 0)
(-7.27239523618459e+17 0 0)
(-7.15662781678891e+17 0 0)
(-7.04354383292239e+17 0 0)
(-6.92957010343121e+17 0 0)
(-6.82747604789534e+17 0 0)
(-6.72353348029646e+17 0 0)
(-6.61922389822673e+17 0 0)
(-6.52358393545011e+17 0 0)
(-6.43011667870582e+17 0 0)
(-6.33902590906353e+17 0 0)
(-6.2570832383146e+17 0 0)
(-6.18543274707299e+17 0 0)
(-6.12178034439031e+17 0 0)
(-6.01339604219802e+17 0 0)
)
;

boundaryField
{
    electrode
    {
        type            calculated;
        value           uniform (-1.58869233650393e+19 0 0);
    }
    ground
    {
        type            calculated;
        value           uniform (-5.98697032775265e+17 0 0);
    }
    otherfaces
    {
        type            empty;
    }
}


// ************************************************************************* //
