/*--------------------------------*- C++ -*----------------------------------*\
| =========                 |                                                 |
| \\      /  F ield         | foam-extend: Open Source CFD                    |
|  \\    /   O peration     | Version:     4.0                                |
|   \\  /    A nd           | Web:         http://www.foam-extend.org         |
|    \\/     M anipulation  |                                                 |
\*---------------------------------------------------------------------------*/
FoamFile
{
    version     2.0;
    format      ascii;
    class       volScalarField;
    location    "7.4e-06";
    object      N_electronMean;
}
// * * * * * * * * * * * * * * * * * * * * * * * * * * * * * * * * * * * * * //

dimensions      [0 0 0 1 0 0 0];

internalField   nonuniform List<scalar> 
300
(
6.10821319305183e+16
6.10806223235941e+16
6.10764966868754e+16
6.10692970169182e+16
6.10590638192465e+16
6.10457627965177e+16
6.10293760168187e+16
6.10098938952354e+16
6.09873069596197e+16
6.09616081592483e+16
6.09327922520089e+16
6.09008556053366e+16
6.08657960940662e+16
6.08276129614436e+16
6.07863067279784e+16
6.07418791005808e+16
6.06943328948486e+16
6.06436719683934e+16
6.05899011559701e+16
6.05330262080491e+16
6.04730537364673e+16
6.04099911629419e+16
6.03438466693772e+16
6.02746291469834e+16
6.02023481590066e+16
6.01270139113991e+16
6.0048637199492e+16
5.99672293549386e+16
5.98828022023596e+16
5.97953680010486e+16
5.97049394070812e+16
5.96115294627334e+16
5.95151515433666e+16
5.94158192722932e+16
5.93135464594481e+16
5.92083470521942e+16
5.91002350868999e+16
5.89892246445294e+16
5.88753298021469e+16
5.87585645836926e+16
5.86389429195087e+16
5.85164786051551e+16
5.83911852525592e+16
5.82630762453636e+16
5.81321647003388e+16
5.79984634298088e+16
5.78619849066659e+16
5.77227412332206e+16
5.75807441171986e+16
5.743600485465e+16
5.72885343295718e+16
5.71383430143322e+16
5.69854409435964e+16
5.68298376659344e+16
5.66715421746069e+16
5.65105628363898e+16
5.63469073305936e+16
5.61805826012965e+16
5.60115948208334e+16
5.58399493544688e+16
5.56656507287242e+16
5.54887026020111e+16
5.53091077320808e+16
5.51268679689484e+16
5.49419842785328e+16
5.47544567119427e+16
5.45642843238126e+16
5.43714651238162e+16
5.41759960535844e+16
5.39778729634451e+16
5.37770905890687e+16
5.35736425416018e+16
5.33675213232879e+16
5.31587183158225e+16
5.29472237372859e+16
5.27330266450688e+16
5.25161149559773e+16
5.22964754254238e+16
5.20740935879515e+16
5.18489537209843e+16
5.16210388414664e+16
5.13903306444179e+16
5.11568094439197e+16
5.09204541542953e+16
5.0681242282859e+16
5.04391499420225e+16
5.0194151823613e+16
4.9946221142518e+16
4.96953296134453e+16
4.94414474514757e+16
4.91845433509842e+16
4.89245845006748e+16
4.86615366125088e+16
4.83953638632738e+16
4.81260288442374e+16
4.78534925558927e+16
4.75777143960193e+16
4.72986521466334e+16
4.70162619609371e+16
4.67304983605137e+16
4.64413142318206e+16
4.61486608030442e+16
4.58524876509414e+16
4.55527427266124e+16
4.5249372326361e+16
4.49423210748343e+16
4.46315319292734e+16
4.4316946172264e+16
4.39985034206741e+16
4.36761416099099e+16
4.33497969693784e+16
4.30194040201692e+16
4.26848955834555e+16
4.23462028052978e+16
4.20032551659211e+16
4.16559804892301e+16
4.13043049974942e+16
4.09481533390786e+16
4.05874485576462e+16
4.02221120700441e+16
3.98520636976929e+16
3.94772217157352e+16
3.90975028945601e+16
3.87128225507818e+16
3.83230945428434e+16
3.79282312277552e+16
3.75281434775865e+16
3.71227407206639e+16
3.67119309483301e+16
3.62956207313373e+16
3.58737152618265e+16
3.54461183944421e+16
3.50127326779938e+16
3.45734593846948e+16
3.4128198598537e+16
3.36768493201307e+16
3.32193094771462e+16
3.2755475893138e+16
3.22852443042476e+16
3.18085094093475e+16
3.13251648913914e+16
3.08351034326153e+16
3.03382167494e+16
2.98343956392072e+16
2.93235300814691e+16
2.88055093244154e+16
2.82802218868183e+16
2.77475555442444e+16
2.72073973119422e+16
2.66596334885393e+16
2.61041497637876e+16
2.55408312452423e+16
2.49695624996219e+16
2.43902276604849e+16
2.38027104485197e+16
2.32068942992409e+16
2.26026625195825e+16
2.19898985797295e+16
2.13684860443632e+16
2.07383082878215e+16
2.00992458969008e+16
1.94511627682476e+16
1.87938848777441e+16
1.81271921605587e+16
1.74508178822843e+16
1.67644399565957e+16
1.60676918057917e+16
1.53602045038499e+16
1.46416350626018e+16
1.39116754666032e+16
1.31700891463967e+16
1.24168129510036e+16
1.16521064750105e+16
1.0876721284563e+16
1.00921444405734e+16
9.30081607562685e+15
8.50622674998159e+15
7.71309316158604e+15
6.92750754777462e+15
6.15679494197605e+15
5.40924408638456e+15
4.69377237551137e+15
4.01930722079839e+15
3.39406577993563e+15
2.82491046528207e+15
2.31670345972507e+15
1.87188286991881e+15
1.49037700585802e+15
1.16974355782367e+15
905565186189913
692030460089398
522549142103897
390320907240216
288805749461577
211686601765776
153692062126897
110577760854448
78812871481711.1
55518174484046.5
38419867484194.8
26164630471812.4
17584713208730.5
11619495102413.7
7625147338228.89
5115063630935.15
3633397393165
2792801438619
2318062276671.4
2043352016746.51
1877947377990.04
1773825483203.55
1705248865499.94
1657857055472.45
1623324953981.94
1596609889338.53
1574530937894.47
1554991891972.23
1536592453578.82
1518468290791.26
1500067717215.6
1480987366399.23
1460965195312.75
1439871264892.37
1417656002754.12
1394333263671.24
1369958528473.26
1344616346145.84
1318409316137.69
1291450969296.66
1263860451568.12
1235758544979.43
1207265298755.32
1178497126111.46
1149565445272.76
1120575701797.21
1091626173351.92
1062807335601.17
1034202059237.69
1005884762901.34
977921665646.959
950369728083.072
923277336413.636
896687671191.946
870638719124.595
845162944125.271
820287091184.008
796031540078.47
772411295286.14
749436532139.666
727113286095.865
705444855833.429
684431635245.209
664070891896.436
644357045101.768
625282303895.884
606838045078.342
589012613679.395
571790340066.067
555156634799.178
539098055465.523
523599723731.225
508645550665.619
494219068284.378
480303431692.359
466881744088.076
453937359836.742
441452949649.77
429410933259.591
417794196479.009
406585643243.449
395767781296.607
385322859969.068
375235164946.908
365492282708.825
356083079112.134
346997220035.399
338225006378.523
329757280383.084
321585651455.451
313702532343.158
306101032433.28
298774274760.635
291714675950.343
284904491494.491
278317208301.886
271942106273.018
265786099803.685
259859212713.973
254172150248.568
248713967445.69
243459650347.606
238420592459.003
233639771635.937
229118893044.315
224885768472.358
221022362400.304
217653158137.286
215035249285.224
213588956014.292
214066134625.937
)
;

boundaryField
{
    electrode
    {
        type            calculated;
        value           uniform 6.10821319306785e+16;
    }
    ground
    {
        type            calculated;
        value           uniform 215803800444.588;
    }
    otherfaces
    {
        type            empty;
    }
}


// ************************************************************************* //
