/*--------------------------------*- C++ -*----------------------------------*\
| =========                 |                                                 |
| \\      /  F ield         | foam-extend: Open Source CFD                    |
|  \\    /   O peration     | Version:     4.0                                |
|   \\  /    A nd           | Web:         http://www.foam-extend.org         |
|    \\/     M anipulation  |                                                 |
\*---------------------------------------------------------------------------*/
FoamFile
{
    version     2.0;
    format      ascii;
    class       volScalarField;
    location    "7.4e-06";
    object      PhiMean;
}
// * * * * * * * * * * * * * * * * * * * * * * * * * * * * * * * * * * * * * //

dimensions      [0 0 0 1 0 0 0];

internalField   nonuniform List<scalar> 
300
(
699.990032305143
699.988989699918
699.987673599718
699.986108929964
699.984304869854
699.982254930341
699.979958822807
699.97741556008
699.974624140622
699.971583801567
699.968293845307
699.964753671874
699.960962753169
699.956920624486
699.952626876614
699.948081147283
699.943283114365
699.938232491145
699.932929020558
699.927372469581
699.921562625349
699.915499290873
699.909182281286
699.902611419795
699.895786533393
699.888707456743
699.881374023615
699.873786063093
699.865943398369
699.857845840033
699.849493180792
699.840885204126
699.832021677679
699.822902341122
699.813526903076
699.803895037384
699.794006378888
699.783860521118
699.773457011952
699.762795348631
699.751874975112
699.740695279559
699.729255588257
699.717555162201
699.705593193446
699.693368801624
699.680881030206
699.66812884373
699.655111124782
699.64182667366
699.62827420694
699.614452364027
699.600359698846
699.585994679495
699.571355674172
699.556440944871
699.541248637006
699.525776774227
699.510023253666
699.493985840409
699.477662162923
699.461049707911
699.444145814569
699.426947668589
699.409452312357
699.391656638478
699.373557368564
699.355151047933
699.336434040097
699.31740252064
699.298052470686
699.278379669666
699.258379697796
699.238047932159
699.217379528636
699.19636942138
699.175012325819
699.153302725887
699.131234864456
699.108802719926
699.086000020901
699.062820214341
699.039256453777
699.015301591705
698.990948165826
698.966188400793
698.941014192549
698.915417086698
698.889388265078
698.862918539908
698.835998336029
698.808617674852
698.780766187696
698.752433071299
698.723607071158
698.694276466475
698.66442905062
698.634052113562
698.603132418681
698.571656185146
698.539609067097
698.506976126281
698.473741803367
698.439889913351
698.405403598982
698.370265303352
698.334456745811
698.29795887828
698.260751863742
698.222815030432
698.184126827188
698.144664783725
698.104405463682
698.063324423757
698.021396164423
697.978594067801
697.934890357239
697.890256041374
697.844660831997
697.798073068122
697.750459639204
697.70178592068
697.652015674636
697.601110977329
697.54903210436
697.495737403243
697.441183171964
697.38532354303
697.328110325786
697.269492855198
697.209417824736
697.147829107341
697.084667553259
697.019870766954
696.953372872831
696.885104286953
696.814991403652
696.742956268701
696.668916211576
696.592783471231
696.514464750466
696.433860729772
696.350865530913
696.265366111962
696.177241612371
696.086362624532
695.992590319906
695.895775492317
695.795757459034
695.692362822406
695.585404118642
695.474678194796
695.359964374045
695.241022386924
695.117589921564
694.989379773257
694.856076703465
694.717333431636
694.572766553598
694.421950448732
694.264412431819
694.099620526209
693.926961135809
693.74572252636
693.555084904816
693.354090363691
693.141616067936
692.91636620801
692.676844384375
692.421292281827
692.147635520278
691.853446441601
691.535938997266
691.191877303418
690.817582263888
690.409019682585
689.961628876399
689.47030956996
688.929735040776
688.3342231588
687.677745687458
686.954331451372
686.158108695088
685.283218847171
684.324462115582
683.27712553208
682.137000600025
680.900788831741
679.56604057554
678.130838794108
676.594013601847
674.955116828513
673.214201011125
671.371688026933
669.428213585939
667.384486439376
665.241100355978
662.998452571662
660.65691286043
658.216788686183
655.678400579935
653.041848244846
650.30711900163
647.474419893584
644.544198923866
641.517158220647
638.394149243062
635.176099829752
631.863941012463
628.45854933602
624.960752304661
621.371294929591
617.690934605062
613.920508845964
610.060939951497
606.113072737075
602.077702600718
597.955543560772
593.747271310551
589.453488566224
585.074769481308
580.611622339215
576.064535504334
571.433937995937
566.720247302
561.923905521881
557.04552312994
552.085652743546
547.044845356076
541.923595676084
536.722402342328
531.441710198461
526.081973590246
520.643596891624
515.126998517014
509.532547019956
503.860628405825
498.111579424039
492.28575757147
486.383471512545
480.405053833837
474.350788896215
468.220999275425
462.016080797795
455.73649036114
449.382631066918
442.954935899745
436.453783620314
429.879585414951
423.232697572612
416.513511300688
409.722361967425
402.859622371937
395.925608253027
388.92067535042
381.845120896907
374.699284705407
367.483446507424
360.197931152552
352.843001778121
345.418969087395
337.926080444798
330.364633168409
322.734859454286
315.037043935429
307.271407045155
299.438241557786
291.537807120257
283.570455062985
275.536485237073
267.436265049328
259.270080538157
251.038287624415
242.741158245635
234.37903753292
225.952183876612
217.460932261654
208.90552807701
200.28629674826
191.603471182605
182.857367789937
174.048207437826
165.176298050133
156.24184887331
147.245159948804
138.186429417141
129.065950001071
119.883909091053
110.640592544606
101.336177327197
91.9709428236403
82.5450560809736
73.0587907322546
63.512304314452
53.9058650351775
44.2396215754071
34.5138376125697
24.7286535122168
14.884329586265
4.98099888576333
)
;

boundaryField
{
    electrode
    {
        type            calculated;
        value           uniform 699.999999999608;
    }
    ground
    {
        type            calculated;
        value           uniform 0;
    }
    otherfaces
    {
        type            empty;
    }
}


// ************************************************************************* //
