/*--------------------------------*- C++ -*----------------------------------*\
| =========                 |                                                 |
| \\      /  F ield         | foam-extend: Open Source CFD                    |
|  \\    /   O peration     | Version:     4.0                                |
|   \\  /    A nd           | Web:         http://www.foam-extend.org         |
|    \\/     M anipulation  |                                                 |
\*---------------------------------------------------------------------------*/
FoamFile
{
    version     2.0;
    format      ascii;
    class       volScalarField;
    location    "7.4e-06";
    object      Sy_electron;
}
// * * * * * * * * * * * * * * * * * * * * * * * * * * * * * * * * * * * * * //

dimensions      [1 -3 -1 0 0 0 0];

internalField   nonuniform List<scalar> 
300
(
3.2479703252172e-09
3.24869624389918e-09
3.24896636086557e-09
3.24888551383353e-09
3.24882268154414e-09
3.24870577502267e-09
3.24854363572877e-09
3.24834114337354e-09
3.24809593930076e-09
3.24780815522723e-09
3.24747749799236e-09
3.24710357883375e-09
3.24668605101758e-09
3.24622453670082e-09
3.24571864251849e-09
3.2451679600169e-09
3.24457206406442e-09
3.24393051321973e-09
3.24324284953347e-09
3.24250859838573e-09
3.24172726836247e-09
3.24089835110375e-09
3.24002132115766e-09
3.23909563582877e-09
3.23812073499751e-09
3.23709604103396e-09
3.23602095857277e-09
3.23489487436593e-09
3.23371715712955e-09
3.23248715735491e-09
3.23120420711494e-09
3.22986761995176e-09
3.22847669068431e-09
3.22703069518233e-09
3.22552889020006e-09
3.22397051320298e-09
3.22235478215933e-09
3.22068089536867e-09
3.21894803125751e-09
3.21715534817157e-09
3.21530198418135e-09
3.21338705687655e-09
3.2114096631593e-09
3.20936887903121e-09
3.20726375937851e-09
3.20509333775162e-09
3.20285662613981e-09
3.200552614762e-09
3.19818027180884e-09
3.19573854323761e-09
3.19322635250986e-09
3.19064260040034e-09
3.18798616469304e-09
3.18525589998927e-09
3.18245063739071e-09
3.17956918427272e-09
3.17661032398134e-09
3.17357281557553e-09
3.17045539354547e-09
3.16725676751977e-09
3.16397562197667e-09
3.16061061592939e-09
3.15716038260832e-09
3.15362352911317e-09
3.14999863613989e-09
3.14628425764087e-09
3.14247892038011e-09
3.13858112360509e-09
3.13458933867002e-09
3.13050200862472e-09
3.12631754779657e-09
3.12203434135763e-09
3.11765074489324e-09
3.11316508393699e-09
3.10857565343224e-09
3.10388071727617e-09
3.09907850777605e-09
3.09416722505563e-09
3.08914503651776e-09
3.08401007611827e-09
3.07876044395249e-09
3.0733942055005e-09
3.06790939079868e-09
3.06230399308186e-09
3.05657596772443e-09
3.05072323498629e-09
3.04474368493749e-09
3.03863516591993e-09
3.03239544000242e-09
3.0260221775143e-09
3.01951318330113e-09
3.0128667745654e-09
3.00645105719221e-09
3.001424718039e-09
2.99627547978197e-09
2.99100027655125e-09
2.98559629942599e-09
2.98006074404659e-09
2.97439076724921e-09
2.96858347285132e-09
2.96263590572571e-09
2.95654504836846e-09
2.9503078180108e-09
2.9439210639263e-09
2.93738156437698e-09
2.93068602362393e-09
2.92383106872669e-09
2.91681324607655e-09
2.90962901790485e-09
2.90227475844092e-09
2.89474674990895e-09
2.8870411783058e-09
2.87915412890881e-09
2.8710815815388e-09
2.86281940551995e-09
2.85436335431557e-09
2.84570905988215e-09
2.83685202669978e-09
2.8277876252766e-09
2.81851108536487e-09
2.80901748869528e-09
2.79930176132694e-09
2.78935866531956e-09
2.7791827900545e-09
2.76876854280945e-09
2.75811013873634e-09
2.74720159014188e-09
2.73603669513822e-09
2.72460902529847e-09
2.71291191256734e-09
2.70093843517252e-09
2.68868140255505e-09
2.67613333913545e-09
2.66328646687571e-09
2.65013268655948e-09
2.63666355770266e-09
2.62287027675644e-09
2.60874365367854e-09
2.59427408672319e-09
2.57945153521101e-09
2.56426549001489e-09
2.5487049417541e-09
2.53275834633426e-09
2.51641358764906e-09
2.49965793725076e-09
2.48247801085385e-09
2.46485971959984e-09
2.4467882208631e-09
2.42824786087647e-09
2.40922211340033e-09
2.38969350624062e-09
2.36964359534196e-09
2.34905279278483e-09
2.32790032775697e-09
2.30616436728654e-09
2.28382152380341e-09
2.26084658612526e-09
2.23721458711502e-09
2.21433358724802e-09
2.19120064847328e-09
2.16734310046101e-09
2.14272368211423e-09
2.11732162492172e-09
2.09110892560051e-09
2.06416647087195e-09
2.03676539265721e-09
2.00874713205527e-09
1.97952718750912e-09
1.94888637401179e-09
1.91693123333914e-09
1.88377669013903e-09
1.84935459683155e-09
1.81341052327322e-09
1.77548448887363e-09
1.7345785879849e-09
1.69043578425215e-09
1.64180623746864e-09
1.58795538917174e-09
1.52961946287171e-09
1.46804290612536e-09
1.4034253504014e-09
1.33493085285701e-09
1.26459208044039e-09
1.19395105794047e-09
1.11885794906761e-09
1.04498071506916e-09
9.79275655396687e-10
9.25267549788561e-10
8.7522214303265e-10
8.43758117603196e-10
8.26806674051634e-10
8.35005398262537e-10
8.68684685342841e-10
9.34844949340887e-10
1.05015802221401e-09
1.23977137770197e-09
1.54849655246547e-09
2.05783902072678e-09
2.96974769780966e-09
4.25508688786918e-09
5.50792279957883e-09
6.78250170080933e-09
7.49307839543611e-09
7.04961155029879e-09
5.92709454364918e-09
4.60276308604496e-09
3.45715205546929e-09
2.64554536480531e-09
2.11133561597967e-09
1.7715492354323e-09
1.56251718722458e-09
1.44092251726828e-09
1.36333930098774e-09
1.32262422402122e-09
1.30227405440207e-09
1.29185521181319e-09
1.29031010439162e-09
1.29364447596156e-09
1.29927243266645e-09
1.30569829183644e-09
1.31171435697389e-09
1.31518516173833e-09
1.31649042909171e-09
1.31589958480113e-09
1.31321760484063e-09
1.30835660763154e-09
1.30131138083217e-09
1.29213400357815e-09
1.28091711466348e-09
1.26778208180991e-09
1.25287006585032e-09
1.23633506570858e-09
1.21833843647072e-09
1.19904454814022e-09
1.17861735101668e-09
1.157217658638e-09
1.13500105145697e-09
1.11211598232875e-09
1.08870265577766e-09
1.06488669878117e-09
1.04077513266879e-09
1.0164744574707e-09
9.92093657563628e-10
9.67732825475815e-10
9.43482840565437e-10
9.19424380876487e-10
8.9562834763559e-10
8.72156312306685e-10
8.49061087171084e-10
8.2638732482475e-10
8.04172136716125e-10
7.82445723023645e-10
7.61231981746832e-10
7.40549235408455e-10
7.20396300278037e-10
7.00763828238186e-10
6.81717130628473e-10
6.63251121469725e-10
6.45363629477516e-10
6.28050307973975e-10
6.11229107949442e-10
5.94943267723209e-10
5.79182397206982e-10
5.63934889650021e-10
5.49188175671095e-10
5.34929135924098e-10
5.21144515316946e-10
5.07820923783011e-10
4.94944715000599e-10
4.82501710238261e-10
4.70477299183165e-10
4.58849852901092e-10
4.47590546733955e-10
4.36679062149333e-10
4.26104146066907e-10
4.15855671774878e-10
4.05924536063577e-10
3.96302244404987e-10
3.86980973445624e-10
3.77953633466632e-10
3.69213904137519e-10
3.60756385264852e-10
3.52575435612506e-10
3.44154697995994e-10
3.35825165380899e-10
3.27690639143385e-10
3.19750905280084e-10
3.12020915554287e-10
3.04517189540569e-10
2.97046446610738e-10
2.88698428287113e-10
2.8051799542792e-10
2.72562211036153e-10
2.6395183440717e-10
2.54300252143042e-10
2.44959853365389e-10
2.32638508195222e-10
2.19130099360464e-10
2.01976092986967e-10
1.77335745563823e-10
)
;

boundaryField
{
    electrode
    {
        type            zeroGradient;
    }
    ground
    {
        type            zeroGradient;
    }
    otherfaces
    {
        type            empty;
    }
}


// ************************************************************************* //
