/*--------------------------------*- C++ -*----------------------------------*\
| =========                 |                                                 |
| \\      /  F ield         | foam-extend: Open Source CFD                    |
|  \\    /   O peration     | Version:     4.0                                |
|   \\  /    A nd           | Web:         http://www.foam-extend.org         |
|    \\/     M anipulation  |                                                 |
\*---------------------------------------------------------------------------*/
FoamFile
{
    version     2.0;
    format      ascii;
    class       volScalarField;
    location    "7.4e-06";
    object      Te;
}
// * * * * * * * * * * * * * * * * * * * * * * * * * * * * * * * * * * * * * //

dimensions      [0 0 0 1 0 0 0];

internalField   nonuniform List<scalar> 
300
(
40152.8472578948
40153.1376288362
40153.3132116994
40153.4185275474
40153.5846609179
40153.7862478185
40154.0265875604
40154.3074808879
40154.6281880965
40154.9888608887
40155.3895097884
40155.830123018
40156.3107147374
40156.8312992543
40157.3918966385
40157.9925329176
40158.6332395853
40159.3140537974
40160.035018375
40160.7961818282
40161.5975983941
40162.4393280701
40163.3214366538
40164.2439957851
40165.2070829943
40166.2107817485
40167.2551815103
40168.3403777922
40169.466472216
40170.6335725826
40171.8417929377
40173.0912536441
40174.3820814634
40175.7144096336
40177.0883779533
40178.5041328796
40179.9618276154
40181.4616222119
40183.0036836742
40184.5881860678
40186.2153106355
40187.8852459171
40189.5981878748
40191.3543400224
40193.1539135648
40194.9971275378
40196.8842089584
40198.8153929814
40200.7909230596
40202.8110511131
40204.8760377068
40206.986152231
40209.1416730948
40211.342887925
40213.5900937725
40215.8835973272
40218.2237151454
40220.6107738847
40223.0451105438
40225.5270727191
40228.0570188711
40230.635318596
40233.2623529145
40235.9385145726
40238.664208349
40241.4398513844
40244.2658735159
40247.1427176298
40250.0708400321
40253.0507108271
40256.0828143195
40259.1676494315
40262.3057301356
40265.4975859101
40268.7437622106
40272.0448209631
40275.4013410843
40278.8139190173
40282.2831692895
40285.8097251047
40289.394238979
40293.0373834074
40296.7398514857
40300.5023573766
40304.3256369389
40308.2104497904
40312.1575823772
40316.1678450784
40320.2420565923
40324.3810418592
40328.5857177942
40332.8572437644
40337.1968352582
40341.6053965766
40346.0836955401
40350.6326687301
40355.2533926428
40359.947000389
40364.7146690883
40369.5576173853
40374.4771059531
40379.4744389973
40384.5509660935
40389.7080841938
40394.9472397714
40400.2699310957
40405.6777106434
40411.1721876573
40416.7550308589
40422.4279713311
40428.1928055889
40434.0513988378
40440.0056884461
40446.0576876503
40452.209489503
40458.463271089
40464.8212980379
40471.2859293433
40477.8596225274
40484.5449391825
40491.3445509122
40498.2612457193
40505.2979348779
40512.4576603284
40519.7436026616
40527.1590897341
40534.70760598
40542.3928024975
40550.2185079843
40558.1887406034
40566.3077208962
40574.5798858382
40583.0099041705
40591.6026931605
40600.3634369406
40609.2976066174
40618.4109823688
40627.7096777639
40637.2001665859
40646.8893124804
40656.7844017956
40666.8931800392
40677.2238924451
40687.7853292088
40698.5868761023
40709.6385712915
40720.951168632
40732.53621043
40744.40610812
40756.5742341122
40769.0550232972
40781.8641113818
40795.018433017
40808.5363962093
40822.4381535701
40836.7456482237
40851.4827796536
40866.6766400237
40882.3576946083
40898.5576804402
40915.3129132051
40932.662192783
40950.6574026917
40969.3545627027
40988.8682762734
41009.4177999207
41031.0526100569
41053.6413821535
41077.2301635453
41102.0347547779
41128.3037669581
41156.2332648495
41185.9650792423
41217.5710813309
41250.8570430191
41286.0168486819
41323.8650539794
41364.308993854
41407.0385263166
41453.2255099684
41503.4401163876
41557.4934162116
41617.2437684586
41684.409355132
41760.4883062145
41850.2228252968
41958.8721708138
42092.8078528557
42263.5416074987
42485.8828515737
42778.8396385286
43170.9362583625
43701.5130944999
44428.6490018333
45430.8193962546
46807.9518467008
48734.3495525027
51465.4993306411
55459.3188226632
60893.2164399803
67796.497948983
78120.4045520927
93288.9963919959
113855.916663538
142518.281657586
181654.878014867
232359.802308998
292867.813459106
358792.761956689
425118.948441529
487930.090162789
545066.504776088
595692.188099132
639903.199774103
678344.826176622
711681.950104405
740675.751188907
766082.476018654
788515.231419723
808461.781755226
826305.656544764
842372.813830103
856944.010800154
870250.352130642
882489.279435398
893817.810424576
904366.344965541
914242.484562191
923535.265344744
932318.456732394
940653.131300031
948589.706720567
956169.588450388
963426.49968977
970387.568398299
977074.213192123
983502.920245856
989685.781071985
995631.823211238
1001346.08887689
1006826.81699708
1012072.08982164
1017080.6427404
1021847.20316064
1026364.5765827
1030623.49763078
1034613.04484871
1038320.78793362
1041732.95380024
1044834.56364051
1047609.55842661
1050040.91748826
1052110.73365048
1053800.38029236
1055090.0108972
1055960.00221746
1056379.53983144
1056349.66621097
1055836.78556673
1054820.48281884
1053278.02784764
1051187.05781704
1048524.73501925
1045267.93325922
1041393.13045384
1036876.43011072
1031693.68112453
1025820.38686696
1019231.67031394
1011902.07942957
1003807.79473137
994923.509217645
985219.048277085
974667.360710756
963242.181806103
950913.051951961
937648.124100064
923413.700752154
908174.185126912
891891.821914039
874526.335819259
856035.065061316
836371.51896033
815495.048470203
793352.312962891
769879.468659366
745016.659358831
718687.975136002
690804.274952515
661283.012913136
630014.202013126
596862.801982134
561693.365056413
524316.268560303
484497.932134136
441950.687407509
396277.235749279
346911.52036825
293033.977728531
233570.458497574
)
;

boundaryField
{
    electrode
    {
        type            electronTemperature;
        seec            0.05;
        Tse             1000;
        Edepend         1;
        TFN             1000;
        field_emission  0;
        field_enhancement_factor 55;
        work_function   5;
        value           uniform 40152.8472578948;
    }
    ground
    {
        type            electronTemperature;
        seec            0.05;
        Tse             1000;
        Edepend         1;
        TFN             1000;
        field_emission  0;
        field_enhancement_factor 55;
        work_function   5;
        value           uniform 199848.734882609;
    }
    otherfaces
    {
        type            empty;
    }
}


// ************************************************************************* //
