/*--------------------------------*- C++ -*----------------------------------*\
| =========                 |                                                 |
| \\      /  F ield         | foam-extend: Open Source CFD                    |
|  \\    /   O peration     | Version:     4.0                                |
|   \\  /    A nd           | Web:         http://www.foam-extend.org         |
|    \\/     M anipulation  |                                                 |
\*---------------------------------------------------------------------------*/
FoamFile
{
    version     2.0;
    format      ascii;
    class       volVectorField;
    location    "8e-10";
    object      E;
}
// * * * * * * * * * * * * * * * * * * * * * * * * * * * * * * * * * * * * * //

dimensions      [0 0 0 1 0 0 0];

internalField   nonuniform List<vector> 
252
(
(-0 12083.4698123782 -0)
(-0 12083.5020486672 -0)
(-0 12083.4949554511 -0)
(-0 12083.4897281643 -0)
(-0 12083.4700954163 -0)
(-0 12083.4385463275 -0)
(-0 12083.4008220542 -0)
(-0 12083.3979064345 -0)
(-0 12083.3645324016 -0)
(-0 12083.3534198207 -0)
(-0 12083.3750922208 -0)
(-0 12083.4155608196 -0)
(-0 12083.4556315512 -0)
(-0 12083.4022061689 -0)
(-0 12083.3649225182 -0)
(-0 12083.3359513924 -0)
(-0 12083.2594654803 -0)
(-0 12083.2555044465 -0)
(-0 12083.2499769428 -0)
(-0 12083.2084005275 -0)
(-0 12083.2008866884 -0)
(-0 12083.1761328205 -0)
(-0 12083.1140012135 -0)
(-0 12083.1245113141 -0)
(-0 12083.1709770732 -0)
(-0 12083.2125075189 -0)
(-0 12083.2591049156 -0)
(-0 12083.2747807707 -0)
(-0 12083.2704672372 -0)
(-0 12083.2458988117 -0)
(-0 12083.2785515083 -0)
(-0 12083.2834045885 -0)
(-0 12083.2761755461 -0)
(-0 12083.3073397808 -0)
(-0 12083.2949958969 -0)
(-0 12083.2960469142 -0)
(-0 12083.3521705331 -0)
(-0 12083.3797557079 -0)
(-0 12083.3388742202 -0)
(-0 12083.2908095094 -0)
(-0 12083.2497207236 -0)
(-0 12083.2499079228 -0)
(-0 12083.2439693168 -0)
(-0 12083.2482456356 -0)
(-0 12083.3019582447 -0)
(-0 12083.373573906 -0)
(-0 12083.3971388522 -0)
(-0 12083.380935509 -0)
(-0 12083.3828180298 -0)
(-0 12083.3935070544 -0)
(-0 12083.4036389815 -0)
(-0 12083.420871961 -0)
(-0 12083.4494751817 -0)
(-0 12083.4423241557 -0)
(-0 12083.4426621897 -0)
(-0 12083.4177534504 -0)
(-0 12083.3920238602 -0)
(-0 12083.4131420259 -0)
(-0 12083.423413093 -0)
(-0 12083.4416314333 -0)
(-0 12083.4353900743 -0)
(-0 12083.408251099 -0)
(-0 12083.4571353225 -0)
(-0 12083.5061681557 -0)
(-0 12083.5173645614 -0)
(-0 12083.5464989842 -0)
(-0 12083.5463475225 -0)
(-0 12083.5266961397 -0)
(-0 12083.5173685269 -0)
(-0 12083.5541064767 -0)
(-0 12083.5528412046 -0)
(-0 12083.5303019061 -0)
(-0 12083.5184398896 -0)
(-0 12083.5049748136 -0)
(-0 12083.5202951762 -0)
(-0 12083.506261288 -0)
(-0 12083.5091598412 -0)
(-0 12083.5087404541 -0)
(-0 12083.477881133 -0)
(-0 12083.4763703655 -0)
(-0 12083.5250847603 -0)
(-0 12083.5660497125 -0)
(-0 12083.5849206699 -0)
(-0 12083.5894964481 -0)
(-0 12083.5752180564 -0)
(-0 12083.566527601 -0)
(-0 12083.5844785719 -0)
(-0 12083.5893701241 -0)
(-0 12083.5835643935 -0)
(-0 12083.5698884639 -0)
(-0 12083.5286094416 -0)
(-0 12083.5214698852 -0)
(-0 12083.5643973428 -0)
(-0 12083.597247309 -0)
(-0 12083.5796176101 -0)
(-0 12083.5488128137 -0)
(-0 12083.5621000555 -0)
(-0 12083.5875690709 -0)
(-0 12083.5753837803 -0)
(-0 12083.5516159151 -0)
(-0 12083.5358923088 -0)
(-0 12083.5247897216 -0)
(-0 12083.5124163902 -0)
(-0 12083.4902682653 -0)
(-0 12083.4881025327 -0)
(-0 12083.49734239 -0)
(-0 12083.4725725312 -0)
(-0 12083.451544124 -0)
(-0 12083.4671481849 -0)
(-0 12083.4707241696 -0)
(-0 12083.4760501306 -0)
(-0 12083.490539263 -0)
(-0 12083.4774912183 -0)
(-0 12083.4681917826 -0)
(-0 12083.4832232127 -0)
(-0 12083.4937579863 -0)
(-0 12083.4723268304 -0)
(-0 12083.471085027 -0)
(-0 12083.4954157392 -0)
(-0 12083.4948922512 -0)
(-0 12083.4837023306 -0)
(-0 12083.4712081198 -0)
(-0 12083.4466692294 -0)
(-0 12083.4251082741 -0)
(-0 12083.4067575267 -0)
(-0 12083.3957795646 -0)
(-0 12083.4018862071 -0)
(-0 12083.4177675987 -0)
(-0 12083.4205754083 -0)
(-0 12083.3971606717 -0)
(-0 12083.3811868262 -0)
(-0 12083.3749626661 -0)
(-0 12083.3487924501 -0)
(-0 12083.320616415 -0)
(-0 12083.3236874176 -0)
(-0 12083.3558248283 -0)
(-0 12083.3662682089 -0)
(-0 12083.3551794818 -0)
(-0 12083.3531983464 -0)
(-0 12083.358993488 -0)
(-0 12083.3777422591 -0)
(-0 12083.3942438889 -0)
(-0 12083.3938808872 -0)
(-0 12083.3842189065 -0)
(-0 12083.3663857445 -0)
(-0 12083.3511630503 -0)
(-0 12083.3489757697 -0)
(-0 12083.3531669251 -0)
(-0 12083.3742564293 -0)
(-0 12083.3766131527 -0)
(-0 12083.3828198565 -0)
(-0 12083.3928545479 -0)
(-0 12083.3592666642 -0)
(-0 12083.3431394991 -0)
(-0 12083.349425119 -0)
(-0 12083.3446168506 -0)
(-0 12083.3332024002 -0)
(-0 12083.3294068036 -0)
(-0 12083.3214784648 -0)
(-0 12083.3226308184 -0)
(-0 12083.3442214234 -0)
(-0 12083.3523339622 -0)
(-0 12083.3378106614 -0)
(-0 12083.3140613512 -0)
(-0 12083.3028129238 -0)
(-0 12083.3191198005 -0)
(-0 12083.3369430664 -0)
(-0 12083.3439246196 -0)
(-0 12083.3549661503 -0)
(-0 12083.3672924072 -0)
(-0 12083.3663570729 -0)
(-0 12083.3561668575 -0)
(-0 12083.3462362353 -0)
(-0 12083.3498511354 -0)
(-0 12083.3586551313 -0)
(-0 12083.3712433739 -0)
(-0 12083.3801043283 -0)
(-0 12083.3735947032 -0)
(-0 12083.3772524208 -0)
(-0 12083.3722379895 -0)
(-0 12083.3576380828 -0)
(-0 12083.3586740506 -0)
(-0 12083.3665840144 -0)
(-0 12083.3627674963 -0)
(-0 12083.3607205484 -0)
(-0 12083.3661063009 -0)
(-0 12083.3624505387 -0)
(-0 12083.355084856 -0)
(-0 12083.3591321002 -0)
(-0 12083.3655342263 -0)
(-0 12083.370007856 -0)
(-0 12083.3755621687 -0)
(-0 12083.3804683783 -0)
(-0 12083.3770273123 -0)
(-0 12083.3612081961 -0)
(-0 12083.3514598231 -0)
(-0 12083.3514947213 -0)
(-0 12083.3513000347 -0)
(-0 12083.3543570065 -0)
(-0 12083.3621130784 -0)
(-0 12083.3631731339 -0)
(-0 12083.354990541 -0)
(-0 12083.3505785084 -0)
(-0 12083.3488061114 -0)
(-0 12083.3453902777 -0)
(-0 12083.3457129789 -0)
(-0 12083.3448321227 -0)
(-0 12083.3368800779 -0)
(-0 12083.333653344 -0)
(-0 12083.3336871459 -0)
(-0 12083.3345061901 -0)
(-0 12083.3402083222 -0)
(-0 12083.3384003914 -0)
(-0 12083.3310768388 -0)
(-0 12083.3312859661 -0)
(-0 12083.3314978007 -0)
(-0 12083.3251978659 -0)
(-0 12083.3251871585 -0)
(-0 12083.3268858222 -0)
(-0 12083.3261187545 -0)
(-0 12083.3326659188 -0)
(-0 12083.3352425728 -0)
(-0 12083.3289713151 -0)
(-0 12083.324006322 -0)
(-0 12083.3232444323 -0)
(-0 12083.3224167093 -0)
(-0 12083.3214694583 -0)
(-0 12083.3195203116 -0)
(-0 12083.315895189 -0)
(-0 12083.3112119739 -0)
(-0 12083.3115183663 -0)
(-0 12083.3139716069 -0)
(-0 12083.3141675944 -0)
(-0 12083.3127935051 -0)
(-0 12083.3109866517 -0)
(-0 12083.3142630935 -0)
(-0 12083.3145813038 -0)
(-0 12083.3142798064 -0)
(-0 12083.3159297899 -0)
(-0 12083.3199762651 -0)
(-0 12083.3216012019 -0)
(-0 12083.3195985561 -0)
(-0 12083.3185351159 -0)
(-0 12083.3166140193 -0)
(-0 12083.3164416843 -0)
(-0 12083.3206107948 -0)
(-0 12083.3254606317 -0)
(-0 12083.328336725 -0)
(-0 12083.3308129977 -0)
(-0 12083.332806076 -0)
(-0 12083.3331556164 -0)
(-0 18125.2668448747 -0)
)
;

boundaryField
{
    dielectric_2
    {
        type            calculated;
        value           nonuniform 0();
    }
    dielectric_1
    {
        type            calculated;
        value           uniform (-0 12083.4105711243 -0);
    }
    otherfaces
    {
        type            empty;
    }
    procBoundary1to0
    {
        type            processor;
        value           uniform (-0 18125.5531725886 -0);
    }
}


// ************************************************************************* //
