/*--------------------------------*- C++ -*----------------------------------*\
| =========                 |                                                 |
| \\      /  F ield         | foam-extend: Open Source CFD                    |
|  \\    /   O peration     | Version:     4.0                                |
|   \\  /    A nd           | Web:         http://www.foam-extend.org         |
|    \\/     M anipulation  |                                                 |
\*---------------------------------------------------------------------------*/
FoamFile
{
    version     2.0;
    format      ascii;
    class       volScalarField;
    location    "1.2e-06";
    object      Ar;
}
// * * * * * * * * * * * * * * * * * * * * * * * * * * * * * * * * * * * * * //

dimensions      [0 0 0 1 0 0 0];

internalField   nonuniform List<scalar> 
300
(
3.21880319901472e+22
3.21880319667425e+22
3.21880319859825e+22
3.21880320045406e+22
3.21880320284944e+22
3.21880320600383e+22
3.21880320989229e+22
3.21880321450049e+22
3.21880321982661e+22
3.21880322586754e+22
3.21880323262026e+22
3.21880324008171e+22
3.21880324824897e+22
3.21880325711906e+22
3.2188032666889e+22
3.2188032769553e+22
3.21880328791525e+22
3.21880329956515e+22
3.21880331190118e+22
3.21880332491951e+22
3.2188033386161e+22
3.2188033529867e+22
3.21880336802685e+22
3.21880338373186e+22
3.21880340009842e+22
3.21880341712013e+22
3.21880343479175e+22
3.21880345310795e+22
3.218803472062e+22
3.2188034916478e+22
3.21880351186088e+22
3.218803532694e+22
3.21880355413903e+22
3.21880357618889e+22
3.21880359883628e+22
3.21880362207376e+22
3.21880364589411e+22
3.21880367028933e+22
3.21880369525114e+22
3.21880372077147e+22
3.21880374684209e+22
3.21880377345445e+22
3.21880380060001e+22
3.21880382827014e+22
3.21880385645613e+22
3.21880388514922e+22
3.21880391434079e+22
3.21880394402215e+22
3.2188039741855e+22
3.21880400482237e+22
3.21880403592542e+22
3.21880406748483e+22
3.21880409949262e+22
3.21880413193853e+22
3.21880416481336e+22
3.21880419810716e+22
3.21880423181142e+22
3.21880426591779e+22
3.21880430041811e+22
3.21880433530461e+22
3.21880437056931e+22
3.21880440620464e+22
3.21880444220383e+22
3.21880447856179e+22
3.2188045152715e+22
3.21880455232406e+22
3.2188045897132e+22
3.21880462743301e+22
3.21880466547791e+22
3.2188047038427e+22
3.21880474252277e+22
3.21880478151452e+22
3.21880482081419e+22
3.21880486041753e+22
3.21880490032283e+22
3.21880494052739e+22
3.21880498102843e+22
3.21880502182474e+22
3.21880506291315e+22
3.21880510429616e+22
3.21880514597024e+22
3.21880518793569e+22
3.21880523019393e+22
3.21880527274646e+22
3.2188053155971e+22
3.21880535874808e+22
3.21880540220191e+22
3.21880544596292e+22
3.21880549003739e+22
3.21880553443037e+22
3.21880557914905e+22
3.21880562420534e+22
3.21880566960185e+22
3.21880571534746e+22
3.21880576145201e+22
3.21880580792627e+22
3.21880585478189e+22
3.21880590203147e+22
3.21880594968963e+22
3.21880599777085e+22
3.21880604628996e+22
3.2188060952633e+22
3.21880614471156e+22
3.21880619465034e+22
3.21880624510017e+22
3.21880629608268e+22
3.21880634761814e+22
3.21880639973139e+22
3.21880645244541e+22
3.21880650578477e+22
3.21880655977593e+22
3.21880661444653e+22
3.21880666982589e+22
3.21880672594393e+22
3.21880678283169e+22
3.21880684052292e+22
3.21880689905261e+22
3.21880695845247e+22
3.21880701875773e+22
3.21880708000558e+22
3.21880714223612e+22
3.21880720548651e+22
3.21880726979918e+22
3.21880733521351e+22
3.21880740176978e+22
3.21880746951049e+22
3.21880753848163e+22
3.21880760872541e+22
3.21880768028766e+22
3.21880775321402e+22
3.21880782755221e+22
3.21880790334931e+22
3.21880798065313e+22
3.21880805951405e+22
3.21880813998396e+22
3.21880822210959e+22
3.21880830593947e+22
3.21880839152534e+22
3.21880847891853e+22
3.2188085681677e+22
3.21880865932417e+22
3.21880875243939e+22
3.21880884756634e+22
3.21880894475801e+22
3.21880904406653e+22
3.21880914553948e+22
3.21880924922775e+22
3.21880935518215e+22
3.21880946345468e+22
3.21880957409884e+22
3.2188096871616e+22
3.21880980269318e+22
3.21880992074697e+22
3.21881004136947e+22
3.21881016460794e+22
3.21881029051155e+22
3.21881041912727e+22
3.21881055049557e+22
3.21881068465609e+22
3.21881082164746e+22
3.21881096150229e+22
3.21881110424465e+22
3.21881124989323e+22
3.2188113984514e+22
3.21881154989234e+22
3.21881170424178e+22
3.21881186134872e+22
3.2188120212604e+22
3.21881218366377e+22
3.21881234867983e+22
3.21881251480112e+22
3.21881268111859e+22
3.21881284956394e+22
3.2188130186023e+22
3.21881318646799e+22
3.21881335304456e+22
3.21881352089159e+22
3.21881368319931e+22
3.21881384381235e+22
3.21881399705942e+22
3.2188141445165e+22
3.21881428291157e+22
3.2188144091473e+22
3.21881452733162e+22
3.21881462792085e+22
3.218814719126e+22
3.21881479257724e+22
3.2188148520817e+22
3.21881490565596e+22
3.21881494630024e+22
3.21881497765924e+22
3.21881500360042e+22
3.21881502670817e+22
3.21881504397352e+22
3.21881505843957e+22
3.21881506523066e+22
3.21881506993007e+22
3.21881507405598e+22
3.21881507836379e+22
3.21881508308154e+22
3.2188150879561e+22
3.21881509307602e+22
3.21881509899142e+22
3.21881510651533e+22
3.21881511322814e+22
3.21881511938575e+22
3.2188151245308e+22
3.21881512908575e+22
3.21881513295957e+22
3.21881513634749e+22
3.21881513918295e+22
3.21881514245127e+22
3.21881514665109e+22
3.21881515044081e+22
3.21881515411113e+22
3.21881515755468e+22
3.21881516093597e+22
3.21881516412354e+22
3.21881516700821e+22
3.2188151694734e+22
3.21881517159799e+22
3.21881517335325e+22
3.21881517494697e+22
3.21881517624379e+22
3.21881517819807e+22
3.21881518081995e+22
3.2188151833455e+22
3.21881518593441e+22
3.21881518834911e+22
3.21881519072949e+22
3.21881519289378e+22
3.21881519486699e+22
3.21881519653679e+22
3.21881519812935e+22
3.2188151993145e+22
3.21881520066151e+22
3.21881520155397e+22
3.21881520275149e+22
3.21881520348151e+22
3.21881520453044e+22
3.21881520520274e+22
3.21881520625906e+22
3.21881520776707e+22
3.21881520962544e+22
3.21881521103392e+22
3.21881521265201e+22
3.21881521381795e+22
3.2188152151174e+22
3.21881521595713e+22
3.21881521698735e+22
3.21881521768781e+22
3.21881521865622e+22
3.21881521936604e+22
3.21881522036465e+22
3.21881522113967e+22
3.21881522217586e+22
3.21881522294772e+22
3.21881522388292e+22
3.21881522449171e+22
3.21881522520514e+22
3.21881522561434e+22
3.21881522615441e+22
3.2188152264629e+22
3.21881522693753e+22
3.21881522723727e+22
3.21881522779873e+22
3.21881522857511e+22
3.21881523016358e+22
3.21881523114834e+22
3.21881523309269e+22
3.21881523421516e+22
3.21881523624778e+22
3.21881523731313e+22
3.21881523925825e+22
3.21881524025343e+22
3.21881524213902e+22
3.2188152431076e+22
3.21881524497484e+22
3.21881524594939e+22
3.21881524785492e+22
3.21881524887632e+22
3.21881525090206e+22
3.21881525200354e+22
3.21881525420308e+22
3.21881525539806e+22
3.21881525779341e+22
3.21881525908712e+22
3.21881526168407e+22
3.21881526306929e+22
3.21881526584521e+22
3.21881526729881e+22
3.21881527019166e+22
3.21881527167737e+22
3.21881527462442e+22
3.21881527612688e+22
3.21881527909996e+22
3.21881528062431e+22
3.21881528364699e+22
3.21881528522352e+22
3.21881528919371e+22
)
;

boundaryField
{
    electrode
    {
        type            zeroGradient;
    }
    ground
    {
        type            zeroGradient;
    }
    otherfaces
    {
        type            empty;
    }
}


// ************************************************************************* //
