/*--------------------------------*- C++ -*----------------------------------*\
| =========                 |                                                 |
| \\      /  F ield         | foam-extend: Open Source CFD                    |
|  \\    /   O peration     | Version:     4.0                                |
|   \\  /    A nd           | Web:         http://www.foam-extend.org         |
|    \\/     M anipulation  |                                                 |
\*---------------------------------------------------------------------------*/
FoamFile
{
    version     2.0;
    format      ascii;
    class       volScalarField;
    location    "1.2e-06";
    object      Arp1;
}
// * * * * * * * * * * * * * * * * * * * * * * * * * * * * * * * * * * * * * //

dimensions      [0 0 0 1 0 0 0];

internalField   nonuniform List<scalar> 
300
(
6.07046405111064e+16
6.07286755475112e+16
6.07131339257965e+16
6.07023780246841e+16
6.069016475478e+16
6.06742339785158e+16
6.06547874689702e+16
6.06319331588371e+16
6.06056580602866e+16
6.0575965077924e+16
6.05428619081759e+16
6.05063569964536e+16
6.04664587503195e+16
6.04231767250463e+16
6.03765215717257e+16
6.03265048700614e+16
6.02731392334457e+16
6.02164383525873e+16
6.01564170129322e+16
6.00930911222964e+16
6.00264777409884e+16
5.99565951062151e+16
5.98834626451716e+16
5.9807101009867e+16
5.97275320658871e+16
5.96447789281877e+16
5.95588659456633e+16
5.94698187149225e+16
5.93776640649443e+16
5.92824300622766e+16
5.91841459771706e+16
5.90828422808149e+16
5.89785506122467e+16
5.88713037448742e+16
5.87611355586559e+16
5.86480809931316e+16
5.85321760026604e+16
5.8413457507899e+16
5.82919633372413e+16
5.81677321701597e+16
5.80408034694318e+16
5.7911217418375e+16
5.77790148435794e+16
5.76442371452528e+16
5.75069262162129e+16
5.73671243628999e+16
5.72248742210827e+16
5.70802186763292e+16
5.69332007629342e+16
5.67838636034723e+16
5.66322502779729e+16
5.64784037844614e+16
5.63223668955417e+16
5.61641821132532e+16
5.60038915419738e+16
5.58415368195181e+16
5.56771590133278e+16
5.55107985330587e+16
5.53424950401895e+16
5.51722873509801e+16
5.50002133594973e+16
5.4826309925414e+16
5.46506128104978e+16
5.44731565695655e+16
5.42939744654773e+16
5.41130983943397e+16
5.393055877562e+16
5.37463844802958e+16
5.35606027411296e+16
5.33732390544009e+16
5.31843171034159e+16
5.29938586692688e+16
5.2801883528217e+16
5.26084093829914e+16
5.24134517615415e+16
5.22170239100453e+16
5.20191367563259e+16
5.18197987204039e+16
5.16190157452796e+16
5.14167910731042e+16
5.121312524781e+16
5.10080159673064e+16
5.0801457980521e+16
5.05934430203652e+16
5.03839596588517e+16
5.01729932332197e+16
4.99605257206442e+16
4.97465356357028e+16
4.95309979353288e+16
4.93138838577542e+16
4.9095160900913e+16
4.88747925945912e+16
4.86527384919797e+16
4.84289539889743e+16
4.82033902299148e+16
4.79759940057225e+16
4.77467076194786e+16
4.75154687908449e+16
4.72822105333159e+16
4.70468610694267e+16
4.68093436775038e+16
4.65695766659051e+16
4.63274731924477e+16
4.60829412310072e+16
4.58358834773544e+16
4.55861972249084e+16
4.53337743643574e+16
4.50785012544084e+16
4.4820258699984e+16
4.45589219081861e+16
4.42943604348523e+16
4.4026438175066e+16
4.37550133619692e+16
4.3479938540831e+16
4.32010606199707e+16
4.29182208868866e+16
4.26312550452581e+16
4.23399933219388e+16
4.20442604801088e+16
4.17438760107346e+16
4.14386541480086e+16
4.11284041001996e+16
4.08129301345843e+16
4.04920317964267e+16
4.01655040638129e+16
3.98331376036801e+16
3.94947189467424e+16
3.91500307799478e+16
3.87988521823899e+16
3.84409589164272e+16
3.80761237029166e+16
3.7704116574289e+16
3.73247051228685e+16
3.69376549137365e+16
3.65427297636826e+16
3.61396921366083e+16
3.57283034741677e+16
3.5308324593707e+16
3.48795160445029e+16
3.4441638505141e+16
3.39944531617192e+16
3.35377221624025e+16
3.30712089588304e+16
3.25946788244616e+16
3.21078993127605e+16
3.16106406991137e+16
3.11026766441201e+16
3.05837848060437e+16
3.00537474628049e+16
2.95123526083647e+16
2.8959394782742e+16
2.83946764502136e+16
2.78180096434483e+16
2.72292177996545e+16
2.66281384254398e+16
2.60146263844233e+16
2.53885572814573e+16
2.47498343003776e+16
2.40983932640544e+16
2.34342112232748e+16
2.27573208257968e+16
2.20678226448775e+16
2.13658959916548e+16
2.06518192194454e+16
1.99261915604746e+16
1.91891121067611e+16
1.84423456182002e+16
1.76856139836933e+16
1.69222132776216e+16
1.61510509152892e+16
1.53873447967374e+16
1.4640549779916e+16
1.3891641283492e+16
1.31556856826228e+16
1.24492336181756e+16
1.17712209338159e+16
1.10918751011747e+16
1.04725499397874e+16
9.86523208267721e+15
9.31424005019084e+15
8.78881414470141e+15
8.30490293579604e+15
7.87648525831355e+15
7.44695527175091e+15
7.09980098273654e+15
6.74621059250792e+15
6.46905903031012e+15
6.2354799881101e+15
5.97547136284205e+15
5.77248551997187e+15
5.60466305854908e+15
5.44726314377088e+15
5.28669403765298e+15
5.16277232707102e+15
5.05225573749166e+15
5.00579645540089e+15
4.96999429363786e+15
4.93596124942783e+15
4.89942004883533e+15
4.8602094751671e+15
4.82245679520092e+15
4.78371636537934e+15
4.73641105318515e+15
4.67165944464392e+15
4.61374017840138e+15
4.56036767982301e+15
4.51642563741439e+15
4.47778467279533e+15
4.44546703123709e+15
4.41769693694597e+15
4.39531887495796e+15
4.36836536689682e+15
4.33189658872246e+15
4.29938281262046e+15
4.26790459431553e+15
4.23856764813377e+15
4.20975910437137e+15
4.18277034164632e+15
4.15871703872748e+15
4.1387725060572e+15
4.12214124521661e+15
4.10912556533657e+15
4.09764800142361e+15
4.08906428802593e+15
4.07382068211483e+15
4.05181189748939e+15
4.03066558710793e+15
4.00879566715516e+15
3.98857388185935e+15
3.96859150367964e+15
3.95067917616928e+15
3.93458331699705e+15
3.92141862254127e+15
3.90893115602374e+15
3.90042633577938e+15
3.89019791508406e+15
3.88442915527917e+15
3.8755079325854e+15
3.87117443905863e+15
3.86355688593011e+15
3.85961346873359e+15
3.85174824598426e+15
3.8392727094318e+15
3.82321695258932e+15
3.81158021090119e+15
3.79775474246118e+15
3.78837442103871e+15
3.77757726272786e+15
3.77129508231542e+15
3.76303559642073e+15
3.75799638948966e+15
3.75020633503842e+15
3.74493518760085e+15
3.73670482197214e+15
3.7306467214598e+15
3.7219145330623e+15
3.71576314886756e+15
3.70792966290454e+15
3.70330091591421e+15
3.6975724803911e+15
3.69482542792188e+15
3.69071950144483e+15
3.68887408193461e+15
3.68531817485276e+15
3.68346221942192e+15
3.67894169103322e+15
3.67222968128811e+15
3.65735483781845e+15
3.648483246512e+15
3.62997325431903e+15
3.61964486945486e+15
3.60017060234034e+15
3.59033573592936e+15
3.57166253299747e+15
3.56245872320156e+15
3.54432077588366e+15
3.53532348489687e+15
3.51730891862053e+15
3.50818764391973e+15
3.48972832985719e+15
3.4800824558923e+15
3.46037191509417e+15
3.44988941656642e+15
3.4284082726508e+15
3.41694563133198e+15
3.39346190016295e+15
3.38097116965697e+15
3.35542497338624e+15
3.34198108014395e+15
3.31463011543218e+15
3.30049315475861e+15
3.27194690546994e+15
3.25745772546278e+15
3.22837000369731e+15
3.21372305801106e+15
3.18437337725192e+15
3.16953839598269e+15
3.13974873776134e+15
3.12447143673624e+15
3.08534677951512e+15
)
;

boundaryField
{
    electrode
    {
        type            driftDiffusionPositiveIonDensity;
        seec            0;
        fieldName       Arp1;
        value           uniform 6.06238548535641e+16;
    }
    ground
    {
        type            driftDiffusionPositiveIonDensity;
        seec            0;
        fieldName       Arp1;
        value           uniform 3.08534677951512e+15;
    }
    otherfaces
    {
        type            empty;
    }
}


// ************************************************************************* //
