/*--------------------------------*- C++ -*----------------------------------*\
| =========                 |                                                 |
| \\      /  F ield         | foam-extend: Open Source CFD                    |
|  \\    /   O peration     | Version:     4.0                                |
|   \\  /    A nd           | Web:         http://www.foam-extend.org         |
|    \\/     M anipulation  |                                                 |
\*---------------------------------------------------------------------------*/
FoamFile
{
    version     2.0;
    format      ascii;
    class       volVectorField;
    location    "1.2e-06";
    object      E;
}
// * * * * * * * * * * * * * * * * * * * * * * * * * * * * * * * * * * * * * //

dimensions      [0 0 0 1 0 0 0];

internalField   nonuniform List<vector> 
300
(
(3.79095626140691 -0 -0)
(8.4790331922324 -0 -0)
(14.45824978491 -0 -0)
(20.3815660057562 -0 -0)
(26.1931717940306 -0 -0)
(32.0032596298762 -0 -0)
(37.8156007840861 -0 -0)
(43.6256316529984 -0 -0)
(49.4331336572956 -0 -0)
(55.2378669513304 -0 -0)
(61.0392867667053 -0 -0)
(66.8368163064821 -0 -0)
(72.6298498177077 -0 -0)
(78.4177151214023 -0 -0)
(84.1996763353844 -0 -0)
(89.9749373131652 -0 -0)
(95.7426388045726 -0 -0)
(101.501858314203 -0 -0)
(107.251611487781 -0 -0)
(112.990853790016 -0 -0)
(118.718482923498 -0 -0)
(124.4333421635 -0 -0)
(130.134224117504 -0 -0)
(135.819875429767 -0 -0)
(141.48900194383 -0 -0)
(147.140274377175 -0 -0)
(152.77233472444 -0 -0)
(158.383802885411 -0 -0)
(163.973283767712 -0 -0)
(169.539374847429 -0 -0)
(175.080673829616 -0 -0)
(180.595786516932 -0 -0)
(186.083335061722 -0 -0)
(191.541966079753 -0 -0)
(196.970358819175 -0 -0)
(202.367233495558 -0 -0)
(207.731359351558 -0 -0)
(213.061562667717 -0 -0)
(218.356734652004 -0 -0)
(223.615839149727 -0 -0)
(228.837920017387 -0 -0)
(234.022108321099 -0 -0)
(239.16762923878 -0 -0)
(244.273808667991 -0 -0)
(249.340079491757 -0 -0)
(254.36598763559 -0 -0)
(259.351197617833 -0 -0)
(264.295497995363 -0 -0)
(269.198806346376 -0 -0)
(274.061174142194 -0 -0)
(278.882791081321 -0 -0)
(283.663989510157 -0 -0)
(288.405248453858 -0 -0)
(293.107197313377 -0 -0)
(297.770619799049 -0 -0)
(302.396457357797 -0 -0)
(306.985812753598 -0 -0)
(311.539953576387 -0 -0)
(316.060315652615 -0 -0)
(320.548506613259 -0 -0)
(325.00630961083 -0 -0)
(329.435686921498 -0 -0)
(333.838783908617 -0 -0)
(338.217933393314 -0 -0)
(342.575659743813 -0 -0)
(346.914683838107 -0 -0)
(351.237928163147 -0 -0)
(355.548522003241 -0 -0)
(359.849807589385 -0 -0)
(364.145346343248 -0 -0)
(368.438925526998 -0 -0)
(372.734565853891 -0 -0)
(377.036529151978 -0 -0)
(381.349326783387 -0 -0)
(385.677728936868 -0 -0)
(390.026773848565 -0 -0)
(394.401778581948 -0 -0)
(398.808349444428 -0 -0)
(403.252393881043 -0 -0)
(407.740132828043 -0 -0)
(412.27811301563 -0 -0)
(416.873221446887 -0 -0)
(421.532698979737 -0 -0)
(426.264155514763 -0 -0)
(431.075585823102 -0 -0)
(435.975385626363 -0 -0)
(440.972368707986 -0 -0)
(446.075784531251 -0 -0)
(451.295336883948 -0 -0)
(456.641202230312 -0 -0)
(462.12405004358 -0 -0)
(467.755062936913 -0 -0)
(473.545957126222 -0 -0)
(479.509004877634 -0 -0)
(485.657056078963 -0 -0)
(492.003561421198 -0 -0)
(498.562596124074 -0 -0)
(505.348883959762 -0 -0)
(512.377822407867 -0 -0)
(519.665508674822 -0 -0)
(527.228765816075 -0 -0)
(535.085170630448 -0 -0)
(543.253082335765 -0 -0)
(551.75167135979 -0 -0)
(560.600951198031 -0 -0)
(569.821809862145 -0 -0)
(579.436043650245 -0 -0)
(589.466393255466 -0 -0)
(599.936580526819 -0 -0)
(610.871348988172 -0 -0)
(622.296506275268 -0 -0)
(634.238969572729 -0 -0)
(646.72681539244 -0 -0)
(659.789332668812 -0 -0)
(673.457080864539 -0 -0)
(687.761954000363 -0 -0)
(702.737250045456 -0 -0)
(718.417748524277 -0 -0)
(734.839795375604 -0 -0)
(752.041398184654 -0 -0)
(770.062331663464 -0 -0)
(788.944255267051 -0 -0)
(808.730845812461 -0 -0)
(829.46794525428 -0 -0)
(851.203726953515 -0 -0)
(873.988883273821 -0 -0)
(897.87683654343 -0 -0)
(922.923976696787 -0 -0)
(949.189930550639 -0 -0)
(976.737865463036 -0 -0)
(1005.63483256524 -0 -0)
(1035.95215658761 -0 -0)
(1067.76587632958 -0 -0)
(1101.15724440396 -0 -0)
(1136.21329536225 -0 -0)
(1173.02749014234 -0 -0)
(1211.70044927291 -0 -0)
(1252.34078784273 -0 -0)
(1295.06606754024 -0 -0)
(1340.00388265055 -0 -0)
(1387.29310148756 -0 -0)
(1437.0852895561 -0 -0)
(1489.54633964718 -0 -0)
(1544.85834580626 -0 -0)
(1603.22176459158 -0 -0)
(1664.85790546561 -0 -0)
(1730.01181530842 -0 -0)
(1798.95562934118 -0 -0)
(1871.99246323398 -0 -0)
(1949.46096379479 -0 -0)
(2031.74063955919 -0 -0)
(2119.25812014191 -0 -0)
(2212.4945495696 -0 -0)
(2311.9943371996 -0 -0)
(2418.37556585004 -0 -0)
(2532.34242674508 -0 -0)
(2654.70009971369 -0 -0)
(2786.37273843032 -0 -0)
(2928.42518535315 -0 -0)
(3082.08924579174 -0 -0)
(3248.79600066209 -0 -0)
(3430.21528476269 -0 -0)
(3628.30309197408 -0 -0)
(3845.36299808449 -0 -0)
(4084.12568838796 -0 -0)
(4347.81294443057 -0 -0)
(4640.3102836411 -0 -0)
(4966.28205230779 -0 -0)
(5331.47771240776 -0 -0)
(5743.2134455182 -0 -0)
(6212.33507534144 -0 -0)
(6754.09004712105 -0 -0)
(7384.09771103139 -0 -0)
(8118.86325050386 -0 -0)
(8980.11182982411 -0 -0)
(9991.84169597278 -0 -0)
(11173.504220256 -0 -0)
(12546.724055154 -0 -0)
(14132.0146935993 -0 -0)
(15944.8565980657 -0 -0)
(17994.7991052926 -0 -0)
(20280.9610016207 -0 -0)
(22797.1712974065 -0 -0)
(25519.1337120762 -0 -0)
(28419.6231982004 -0 -0)
(31463.4494537659 -0 -0)
(34613.1106915966 -0 -0)
(37843.7509112487 -0 -0)
(41108.9867961571 -0 -0)
(44371.071135017 -0 -0)
(47617.4771095333 -0 -0)
(50833.355380627 -0 -0)
(53997.7898719331 -0 -0)
(57103.8895859498 -0 -0)
(60159.8758720963 -0 -0)
(63181.8115403194 -0 -0)
(66182.9169550948 -0 -0)
(69164.2284249145 -0 -0)
(72126.2520871702 -0 -0)
(75067.1700993662 -0 -0)
(77985.6841848263 -0 -0)
(80881.4797094422 -0 -0)
(83751.4896267833 -0 -0)
(86587.7962256079 -0 -0)
(89387.1622545345 -0 -0)
(92152.9967676271 -0 -0)
(94889.5006015853 -0 -0)
(97601.1096911838 -0 -0)
(100291.326723623 -0 -0)
(102963.423756896 -0 -0)
(105620.395766077 -0 -0)
(108262.488804428 -0 -0)
(110885.453112181 -0 -0)
(113487.61507539 -0 -0)
(116070.481113944 -0 -0)
(118635.011258736 -0 -0)
(121182.012096274 -0 -0)
(123712.192679027 -0 -0)
(126226.987177639 -0 -0)
(128728.520438218 -0 -0)
(131219.032187558 -0 -0)
(133700.613870859 -0 -0)
(136174.821229691 -0 -0)
(138642.992162071 -0 -0)
(141103.992885832 -0 -0)
(143553.77634488 -0 -0)
(145990.563059138 -0 -0)
(148414.395246345 -0 -0)
(150825.551558848 -0 -0)
(153224.601040956 -0 -0)
(155612.239709168 -0 -0)
(157989.638935668 -0 -0)
(160358.230480616 -0 -0)
(162719.102474809 -0 -0)
(165073.660379185 -0 -0)
(167422.585846545 -0 -0)
(169766.703965721 -0 -0)
(172106.409043194 -0 -0)
(174442.133551792 -0 -0)
(176774.27057798 -0 -0)
(179102.937837181 -0 -0)
(181428.060286425 -0 -0)
(183747.063862771 -0 -0)
(186057.477302589 -0 -0)
(188359.552750197 -0 -0)
(190653.962291858 -0 -0)
(192941.385709136 -0 -0)
(195222.735444594 -0 -0)
(197498.945543852 -0 -0)
(199770.781510367 -0 -0)
(202038.618444216 -0 -0)
(204302.597982777 -0 -0)
(206562.65007912 -0 -0)
(208818.641727603 -0 -0)
(211070.335246772 -0 -0)
(213317.57862307 -0 -0)
(215560.343029312 -0 -0)
(217798.89842408 -0 -0)
(220033.703174726 -0 -0)
(222265.391867384 -0 -0)
(224494.531742055 -0 -0)
(226721.612149833 -0 -0)
(228946.905108894 -0 -0)
(231170.576536798 -0 -0)
(233392.624711444 -0 -0)
(235612.756121198 -0 -0)
(237829.509045828 -0 -0)
(240039.758909689 -0 -0)
(242242.854044646 -0 -0)
(244437.700441098 -0 -0)
(246623.855452407 -0 -0)
(248801.029577056 -0 -0)
(250969.369700658 -0 -0)
(253129.117205532 -0 -0)
(255280.462325923 -0 -0)
(257423.566472172 -0 -0)
(259558.491955045 -0 -0)
(261685.275885028 -0 -0)
(263803.881280733 -0 -0)
(265914.173415416 -0 -0)
(268015.994869267 -0 -0)
(270108.96767072 -0 -0)
(272192.839986833 -0 -0)
(274267.077485096 -0 -0)
(276331.384809244 -0 -0)
(278385.157726864 -0 -0)
(280428.086202805 -0 -0)
(282459.548136996 -0 -0)
(284479.255606622 -0 -0)
(286486.664441107 -0 -0)
(288481.564846499 -0 -0)
(290463.596607511 -0 -0)
(292432.652532062 -0 -0)
(294388.569678047 -0 -0)
(296331.299690749 -0 -0)
(298260.763482438 -0 -0)
(300176.903581481 -0 -0)
(302079.586736805 -0 -0)
(303968.696216305 -0 -0)
(305841.38988955 -0 -0)
)
;

boundaryField
{
    electrode
    {
        type            calculated;
        value           uniform (2.06698740385036 -0 -0);
    }
    ground
    {
        type            calculated;
        value           uniform (306771.823998277 -0 -0);
    }
    otherfaces
    {
        type            empty;
    }
}


// ************************************************************************* //
