/*--------------------------------*- C++ -*----------------------------------*\
| =========                 |                                                 |
| \\      /  F ield         | foam-extend: Open Source CFD                    |
|  \\    /   O peration     | Version:     4.0                                |
|   \\  /    A nd           | Web:         http://www.foam-extend.org         |
|    \\/     M anipulation  |                                                 |
\*---------------------------------------------------------------------------*/
FoamFile
{
    version     2.0;
    format      ascii;
    class       volVectorField;
    location    "1.2e-06";
    object      J_electron;
}
// * * * * * * * * * * * * * * * * * * * * * * * * * * * * * * * * * * * * * //

dimensions      [1 -1 -1 0 0 0 0];

internalField   nonuniform List<vector> 
300
(
(-1.32158107937273e+19 0 0)
(-1.30985310659664e+19 0 0)
(-1.5041050166863e+19 0 0)
(-1.50928643742694e+19 0 0)
(-1.49892177779697e+19 0 0)
(-1.49536154337357e+19 0 0)
(-1.49230001370888e+19 0 0)
(-1.48891634172881e+19 0 0)
(-1.48557004426024e+19 0 0)
(-1.48226230634607e+19 0 0)
(-1.47896970824888e+19 0 0)
(-1.47569254696487e+19 0 0)
(-1.47243635496995e+19 0 0)
(-1.46920151444257e+19 0 0)
(-1.46598858423168e+19 0 0)
(-1.46279886342816e+19 0 0)
(-1.45963324305501e+19 0 0)
(-1.45649242365931e+19 0 0)
(-1.45337704686589e+19 0 0)
(-1.45028764323494e+19 0 0)
(-1.4472246042703e+19 0 0)
(-1.44418826019808e+19 0 0)
(-1.44117879727768e+19 0 0)
(-1.43819633281517e+19 0 0)
(-1.43524090394234e+19 0 0)
(-1.43231243796026e+19 0 0)
(-1.42941082712741e+19 0 0)
(-1.426535886963e+19 0 0)
(-1.4236873623579e+19 0 0)
(-1.42086497520735e+19 0 0)
(-1.41806840830183e+19 0 0)
(-1.41529728014206e+19 0 0)
(-1.41255121983462e+19 0 0)
(-1.40982983154315e+19 0 0)
(-1.40713268072586e+19 0 0)
(-1.40445936014561e+19 0 0)
(-1.40180944665132e+19 0 0)
(-1.3991825140804e+19 0 0)
(-1.39657813641965e+19 0 0)
(-1.39399591094172e+19 0 0)
(-1.39143543052519e+19 0 0)
(-1.38889629761227e+19 0 0)
(-1.38637811897787e+19 0 0)
(-1.38388051755697e+19 0 0)
(-1.38140309840111e+19 0 0)
(-1.37894550026141e+19 0 0)
(-1.37650732584885e+19 0 0)
(-1.37408819688975e+19 0 0)
(-1.37168769576631e+19 0 0)
(-1.36930543097356e+19 0 0)
(-1.36694093368305e+19 0 0)
(-1.36459373435709e+19 0 0)
(-1.362263350629e+19 0 0)
(-1.35994919570306e+19 0 0)
(-1.35765069557111e+19 0 0)
(-1.35536718259114e+19 0 0)
(-1.35309793189479e+19 0 0)
(-1.35084216048833e+19 0 0)
(-1.3485989921967e+19 0 0)
(-1.34636745932698e+19 0 0)
(-1.34414653626945e+19 0 0)
(-1.34193507416327e+19 0 0)
(-1.33973179126647e+19 0 0)
(-1.33753537636996e+19 0 0)
(-1.33534432250154e+19 0 0)
(-1.33315703149688e+19 0 0)
(-1.33097181900198e+19 0 0)
(-1.32878679884987e+19 0 0)
(-1.32660000165863e+19 0 0)
(-1.32440933338608e+19 0 0)
(-1.32221250064807e+19 0 0)
(-1.32000713575183e+19 0 0)
(-1.31779070636589e+19 0 0)
(-1.31556049286673e+19 0 0)
(-1.31331373419877e+19 0 0)
(-1.31104738776245e+19 0 0)
(-1.30875841485204e+19 0 0)
(-1.30644351719923e+19 0 0)
(-1.30409928389637e+19 0 0)
(-1.3017222697127e+19 0 0)
(-1.29930868094628e+19 0 0)
(-1.29685481783406e+19 0 0)
(-1.29435671340342e+19 0 0)
(-1.29181029344016e+19 0 0)
(-1.28921141668311e+19 0 0)
(-1.28655577589896e+19 0 0)
(-1.28383899186747e+19 0 0)
(-1.28105652100483e+19 0 0)
(-1.27820386011851e+19 0 0)
(-1.27527624521522e+19 0 0)
(-1.2722689440043e+19 0 0)
(-1.26917719701848e+19 0 0)
(-1.26599601042107e+19 0 0)
(-1.26272054271573e+19 0 0)
(-1.25934577978552e+19 0 0)
(-1.25586670587614e+19 0 0)
(-1.25227832761867e+19 0 0)
(-1.24857559557215e+19 0 0)
(-1.24475344892162e+19 0 0)
(-1.24080692787811e+19 0 0)
(-1.23673098768634e+19 0 0)
(-1.23252063326275e+19 0 0)
(-1.22817103867386e+19 0 0)
(-1.22367718991798e+19 0 0)
(-1.21903435550105e+19 0 0)
(-1.214237765768e+19 0 0)
(-1.20928265117473e+19 0 0)
(-1.20416448200389e+19 0 0)
(-1.19887862072754e+19 0 0)
(-1.19342059686818e+19 0 0)
(-1.18778600839824e+19 0 0)
(-1.18197042196025e+19 0 0)
(-1.17596953835004e+19 0 0)
(-1.16977905248093e+19 0 0)
(-1.16339461220152e+19 0 0)
(-1.15681195449532e+19 0 0)
(-1.15002663904136e+19 0 0)
(-1.14303426296467e+19 0 0)
(-1.13583017956637e+19 0 0)
(-1.12840962559343e+19 0 0)
(-1.12076761725104e+19 0 0)
(-1.11289876263118e+19 0 0)
(-1.10479738607617e+19 0 0)
(-1.09645731424287e+19 0 0)
(-1.08787176224116e+19 0 0)
(-1.07903330245248e+19 0 0)
(-1.06993374475085e+19 0 0)
(-1.06056387827377e+19 0 0)
(-1.05091347309076e+19 0 0)
(-1.04097108380358e+19 0 0)
(-1.03072371863417e+19 0 0)
(-1.02015687514238e+19 0 0)
(-1.00925418302226e+19 0 0)
(-9.97997102531032e+18 0 0)
(-9.8636482840772e+18 0 0)
(-9.74333873737328e+18 0 0)
(-9.61877770801722e+18 0 0)
(-9.48966694818572e+18 0 0)
(-9.35567147809846e+18 0 0)
(-9.21641476141508e+18 0 0)
(-9.07147214776277e+18 0 0)
(-8.92036875876617e+18 0 0)
(-8.7625711888462e+18 0 0)
(-8.59747833022199e+18 0 0)
(-8.42441951678038e+18 0 0)
(-8.24264037551623e+18 0 0)
(-8.05129116736553e+18 0 0)
(-7.84942399490936e+18 0 0)
(-7.63596828356746e+18 0 0)
(-7.40971996893204e+18 0 0)
(-7.16932861237238e+18 0 0)
(-6.9132659633328e+18 0 0)
(-6.6398124449328e+18 0 0)
(-6.34702653187267e+18 0 0)
(-6.03270911672661e+18 0 0)
(-5.69440003338587e+18 0 0)
(-5.32928454858585e+18 0 0)
(-4.93421534041552e+18 0 0)
(-4.50573029324672e+18 0 0)
(-4.0398339826128e+18 0 0)
(-3.53216066534506e+18 0 0)
(-2.97832652185954e+18 0 0)
(-2.37324164126055e+18 0 0)
(-1.70689463878523e+18 0 0)
(-9.89603670083502e+17 0 0)
(-1.81648607244452e+17 0 0)
(7.07831439040709e+17 0 0)
(1.76525415665579e+18 0 0)
(3.07464313147857e+18 0 0)
(5.14041308422078e+18 0 0)
(7.92399281745455e+18 0 0)
(9.67015588473864e+18 0 0)
(1.04744856568275e+19 0 0)
(1.14213019612579e+19 0 0)
(1.14527555348605e+19 0 0)
(8.97462759740093e+18 0 0)
(6.38285178021819e+18 0 0)
(3.41847032165564e+18 0 0)
(4.7612277315915e+17 0 0)
(-1.09098049535476e+18 0 0)
(-5.63542902972613e+17 0 0)
(3.95076246080743e+18 0 0)
(1.13434670246994e+19 0 0)
(2.25018448327381e+19 0 0)
(3.48736143290333e+19 0 0)
(4.62686758932641e+19 0 0)
(5.43782183529491e+19 0 0)
(5.7457738792648e+19 0 0)
(5.54957116595052e+19 0 0)
(4.74917999242783e+19 0 0)
(3.74570150506888e+19 0 0)
(2.6721370613019e+19 0 0)
(1.55974581824605e+19 0 0)
(9.37514476942944e+18 0 0)
(4.21765142023171e+18 0 0)
(-9.06645518482493e+17 0 0)
(-2.94269278392479e+18 0 0)
(-2.67216181763335e+18 0 0)
(-2.84790077113682e+18 0 0)
(-3.17387297160383e+18 0 0)
(-3.42453125559374e+18 0 0)
(-3.54571537549518e+18 0 0)
(-3.58899242054762e+18 0 0)
(-3.58198626825703e+18 0 0)
(-3.55266410661102e+18 0 0)
(-3.50992457716882e+18 0 0)
(-3.46384038832716e+18 0 0)
(-3.41042924667365e+18 0 0)
(-3.35205578900253e+18 0 0)
(-3.29055720094747e+18 0 0)
(-3.23068160047904e+18 0 0)
(-3.16921757490635e+18 0 0)
(-3.10796692665549e+18 0 0)
(-3.04565415433544e+18 0 0)
(-2.98312526937679e+18 0 0)
(-2.92046943001818e+18 0 0)
(-2.85789119977196e+18 0 0)
(-2.79553036284842e+18 0 0)
(-2.7335374858196e+18 0 0)
(-2.67195340021691e+18 0 0)
(-2.61090089853751e+18 0 0)
(-2.55110010530301e+18 0 0)
(-2.49177460108e+18 0 0)
(-2.43343901041609e+18 0 0)
(-2.37612493617335e+18 0 0)
(-2.3199066642734e+18 0 0)
(-2.26483927704385e+18 0 0)
(-2.21097385587629e+18 0 0)
(-2.15834430504476e+18 0 0)
(-2.10697671763041e+18 0 0)
(-2.05688680392618e+18 0 0)
(-2.0080846159385e+18 0 0)
(-1.96057464659406e+18 0 0)
(-1.91435101109463e+18 0 0)
(-1.86940820318946e+18 0 0)
(-1.82572972070698e+18 0 0)
(-1.78330001141293e+18 0 0)
(-1.74209675280719e+18 0 0)
(-1.70209668984708e+18 0 0)
(-1.66327468451063e+18 0 0)
(-1.62560223126459e+18 0 0)
(-1.58905503046892e+18 0 0)
(-1.55359492343623e+18 0 0)
(-1.5191859676283e+18 0 0)
(-1.48578000314508e+18 0 0)
(-1.45333435005554e+18 0 0)
(-1.42202381282392e+18 0 0)
(-1.39152865844523e+18 0 0)
(-1.36194723674548e+18 0 0)
(-1.33323141148312e+18 0 0)
(-1.30535827287768e+18 0 0)
(-1.27829747538156e+18 0 0)
(-1.25202019555824e+18 0 0)
(-1.22650001667051e+18 0 0)
(-1.20170478359404e+18 0 0)
(-1.1776359776733e+18 0 0)
(-1.15418203516228e+18 0 0)
(-1.13141123838021e+18 0 0)
(-1.10932129665735e+18 0 0)
(-1.08778282369123e+18 0 0)
(-1.06683318611186e+18 0 0)
(-1.04645213987796e+18 0 0)
(-1.02661442475167e+18 0 0)
(-1.0073007685013e+18 0 0)
(-9.8849248239767e+17 0 0)
(-9.70172252393227e+17 0 0)
(-9.52323710426958e+17 0 0)
(-9.34921321279765e+17 0 0)
(-9.17955053781495e+17 0 0)
(-9.01327273414333e+17 0 0)
(-8.85305961429087e+17 0 0)
(-8.69572513336927e+17 0 0)
(-8.54231257373672e+17 0 0)
(-8.39255638025276e+17 0 0)
(-8.24640970990529e+17 0 0)
(-8.10375382023351e+17 0 0)
(-7.96448421952566e+17 0 0)
(-7.82849637305923e+17 0 0)
(-7.6956888352254e+17 0 0)
(-7.56595922301438e+17 0 0)
(-7.43920076048971e+17 0 0)
(-7.31525359030447e+17 0 0)
(-7.19376484570369e+17 0 0)
(-7.07383569104307e+17 0 0)
(-6.96111953030608e+17 0 0)
(-6.84860065555022e+17 0 0)
(-6.73882581682844e+17 0 0)
(-6.63148244505084e+17 0 0)
(-6.52552381433271e+17 0 0)
(-6.42231016282605e+17 0 0)
(-6.32626874810736e+17 0 0)
(-6.22994959256286e+17 0 0)
(-6.13225869208808e+17 0 0)
(-6.04568349998039e+17 0 0)
(-5.95713323463733e+17 0 0)
(-5.87460464176696e+17 0 0)
(-5.79734272405492e+17 0 0)
(-5.73172185929909e+17 0 0)
(-5.67183001140326e+17 0 0)
(-5.57264987984946e+17 0 0)
)
;

boundaryField
{
    electrode
    {
        type            calculated;
        value           uniform (-1.51420569500136e+19 0 0);
    }
    ground
    {
        type            calculated;
        value           uniform (-5.54818391013375e+17 0 0);
    }
    otherfaces
    {
        type            empty;
    }
}


// ************************************************************************* //
