/*--------------------------------*- C++ -*----------------------------------*\
| =========                 |                                                 |
| \\      /  F ield         | foam-extend: Open Source CFD                    |
|  \\    /   O peration     | Version:     4.0                                |
|   \\  /    A nd           | Web:         http://www.foam-extend.org         |
|    \\/     M anipulation  |                                                 |
\*---------------------------------------------------------------------------*/
FoamFile
{
    version     2.0;
    format      ascii;
    class       volScalarField;
    location    "1.2e-06";
    object      Phi;
}
// * * * * * * * * * * * * * * * * * * * * * * * * * * * * * * * * * * * * * //

dimensions      [0 0 0 1 0 0 0];

internalField   nonuniform List<scalar> 
300
(
699.99996555021
699.999781719373
699.999400281331
699.998817836054
699.998041510263
699.997071624601
699.995907959622
699.994550584548
699.992999584178
699.991255042304
699.989317059715
699.98718575652
699.984861271961
699.982343766532
699.979633424286
699.976730454776
699.973635095132
699.970347612189
699.966868304578
699.963197504757
699.959335580992
699.955282939229
699.951040024848
699.946607324287
699.941985366485
699.937174724158
699.93217601486
699.926989901843
699.921617094668
699.916058349592
699.910314469678
699.90438630467
699.898274750577
699.891980748999
699.885505286172
699.878849391744
699.872014137272
699.865000634454
699.857810033094
699.850443518811
699.842902310484
699.835187657476
699.827300836596
699.81924314886
699.811015916019
699.802620476894
699.79405818351
699.785330397053
699.776438483643
699.767383809963
699.758167738701
699.748791623891
699.739256806066
699.729564607327
699.719716326246
699.709713232674
699.699556562422
699.689247511823
699.678787232184
699.668176824113
699.657417331743
699.646509736806
699.635454952615
699.624253817878
699.612907090388
699.601415440562
699.589779444799
699.577999578685
699.566076209999
699.554009591512
699.541799853576
699.529446996477
699.516950882519
699.504311227867
699.491527594067
699.478599379271
699.465525809144
699.452305927366
699.438938585848
699.42542243444
699.411755910326
699.397937226906
699.383964362229
699.369835046974
699.355546751862
699.341096674585
699.326481726153
699.311698516671
699.296743340518
699.281612160879
699.266300593703
699.250803890876
699.23511692284
699.219234160401
699.203149655848
699.186857023329
699.17034941842
699.153619516921
699.136659492823
699.119460995427
699.102015125578
699.08431241104
699.066342780869
699.048095538884
699.029559336111
699.010722142138
698.991571215454
698.972093072561
698.952273455904
698.932097300525
698.911548699305
698.890610866773
698.869266101333
698.847495745748
698.825280145822
698.802598607023
698.779429348889
698.75574945702
698.731534832321
698.706760137328
698.681398739108
698.655422648551
698.628802455424
698.60150725883
698.573504592407
698.5447603437
698.515238666855
698.48490188793
698.453710401742
698.421622559227
698.388594544045
698.354580237056
698.319531066939
698.2833958453
698.246120583978
698.207648292276
698.167918751302
698.126868262325
698.084429365446
698.040530524489
697.99509577327
697.948044317722
697.899290087299
697.848741228413
697.796299530913
697.74185977744
697.685309003882
697.626525656419
697.565378628592
697.50172615887
697.435414564339
697.366276782899
697.294130689663
697.218777146262
697.13999773385
697.057552108538
696.9711749054
696.880572101891
696.785416722838
696.685343756201
696.579944106452
696.468757356157
696.351263087467
696.226870483359
696.094905554262
695.954595437466
695.805051357966
695.645241418557
695.473965887812
695.289809571063
695.091084991445
694.875653899373
694.640812321637
694.383380718638
694.099554771603
693.784706596649
693.433431991872
693.039806315299
692.596983721528
692.097672002392
691.533993281657
690.898018728706
690.181929214883
689.378207308879
688.480653634078
687.483565762332
686.38309033716
685.176025049559
683.860173609743
682.435425929815
680.902102200742
679.260927455846
677.513211842034
675.661074797717
673.706285869637
671.650416406244
669.494165100282
667.238221942571
664.883216538622
662.429805136759
659.878738531998
657.230759524438
654.486639884702
651.647326882652
648.714120136328
645.688182732349
642.570587018486
639.362216025577
636.063846372408
632.676127577335
629.199618121947
625.634767859596
621.982118868319
618.242404318785
614.416277863293
610.504372244522
606.507277112711
602.425571438103
598.259797600776
594.010438959595
589.677896238228
585.262503480423
580.764521980171
576.18418206511
571.521655836033
566.777249206055
561.951404079708
557.044545002112
552.057111063285
546.989508231522
541.842137660554
536.615358917578
531.309495064843
525.924810218869
520.461554899857
514.919899526923
509.300049176753
503.602119262542
497.826288573874
491.972643692422
486.041337202009
480.03244783661
473.946133182913
467.782643579093
461.542301362741
455.225340062412
448.832037209952
442.362581015136
435.817188180311
429.195984645547
422.49913607962
415.726743415932
408.878962880768
401.955900077325
394.957720098928
387.884544394205
380.736548190724
373.513854858917
366.216621629119
358.844941313936
351.398928837959
343.878639197801
336.284154694637
328.61551219054
320.872782925517
313.056003876444
305.165265850769
297.200703273389
289.162615256791
281.051179670412
272.866768560718
264.609589306918
256.28003325558
247.878297993539
239.40475877521
230.859600505146
222.243187677067
213.555701041476
204.797502618066
195.968775622761
187.069891057038
178.101042631476
169.062626545656
159.954853299021
150.778154713316
141.532760978406
132.219144198191
122.837555231551
113.388507655726
103.872271524442
94.2893966929834
84.640167201344
74.9251569191509
65.1446570325388
55.2992522739486
45.3892370531573
35.4152013751194
25.3774434810578
15.2765622593304
5.11286373330299
)
;

boundaryField
{
    electrode
    {
        type            fixedValue;
        value           uniform 700;
    }
    ground
    {
        type            fixedValue;
        value           uniform 0;
    }
    otherfaces
    {
        type            empty;
    }
}


// ************************************************************************* //
