/*--------------------------------*- C++ -*----------------------------------*\
| =========                 |                                                 |
| \\      /  F ield         | foam-extend: Open Source CFD                    |
|  \\    /   O peration     | Version:     4.0                                |
|   \\  /    A nd           | Web:         http://www.foam-extend.org         |
|    \\/     M anipulation  |                                                 |
\*---------------------------------------------------------------------------*/
FoamFile
{
    version     2.0;
    format      ascii;
    class       volScalarField;
    location    "4.6e-06";
    object      Arp1;
}
// * * * * * * * * * * * * * * * * * * * * * * * * * * * * * * * * * * * * * //

dimensions      [0 0 0 1 0 0 0];

internalField   nonuniform List<scalar> 
300
(
6.03720565689712e+16
6.04136731453772e+16
6.03885340813274e+16
6.03836900378868e+16
6.03745928621537e+16
6.03616488482827e+16
6.03464205812447e+16
6.03282606782531e+16
6.03072645580644e+16
6.02834480175577e+16
6.02567965358745e+16
6.02273134779404e+16
6.01949984236897e+16
6.01598509137973e+16
6.01218708634433e+16
6.00810580898612e+16
6.00374124328797e+16
5.99909337360943e+16
5.99416218287891e+16
5.98894765183973e+16
5.98344975786439e+16
5.97766847382356e+16
5.97160376673048e+16
5.96525559567546e+16
5.95862390844024e+16
5.95170863717671e+16
5.94450969484457e+16
5.93702697969588e+16
5.9292604010154e+16
5.92120993762248e+16
5.91287570162068e+16
5.90425757270954e+16
5.89535474394021e+16
5.88616695597134e+16
5.87669390857786e+16
5.86693526139508e+16
5.85689064464632e+16
5.84655965971891e+16
5.83594187774538e+16
5.82503683757508e+16
5.81384404355175e+16
5.80236296322261e+16
5.79059302520364e+16
5.77853361708678e+16
5.76618408338086e+16
5.75354372360681e+16
5.74061179044627e+16
5.72738748790139e+16
5.71386996962316e+16
5.70005833727873e+16
5.68595163892626e+16
5.67154886757533e+16
5.65684895976503e+16
5.64185079419293e+16
5.62655319048219e+16
5.61095490802772e+16
5.59505464488508e+16
5.57885103678466e+16
5.56234265627619e+16
5.54552801188291e+16
5.52840554744556e+16
5.510973641563e+16
5.49323060708018e+16
5.47517469077762e+16
5.45680407316086e+16
5.43811686831822e+16
5.41911112399435e+16
5.39978482177359e+16
5.38013587734846e+16
5.36016214100727e+16
5.33986139825742e+16
5.31923137053842e+16
5.29826971616837e+16
5.27697403143278e+16
5.25534185177538e+16
5.23337065324386e+16
5.21105785406374e+16
5.18840081635851e+16
5.16539684808145e+16
5.1420432051394e+16
5.11833709363581e+16
5.09427567232907e+16
5.06985605530508e+16
5.04507531475893e+16
5.01993048400376e+16
4.99441856068462e+16
4.96853651010877e+16
4.94228126880773e+16
4.91564974828334e+16
4.88863883888112e+16
4.8612454138879e+16
4.83346633380034e+16
4.80529845073356e+16
4.77673861299877e+16
4.74778366989614e+16
4.71843047658315e+16
4.68867589914672e+16
4.65851681982755e+16
4.62795014232951e+16
4.5969727973036e+16
4.56558174796282e+16
4.53377399576867e+16
4.50154658623607e+16
4.46889661487824e+16
4.43582123317356e+16
4.40231765462463e+16
4.36838316092011e+16
4.33401510809554e+16
4.29921093273812e+16
4.26396815827126e+16
4.22828440118409e+16
4.19215737728429e+16
4.155584907978e+16
4.11856492646371e+16
4.08109548390906e+16
4.04317475561135e+16
4.00480104704427e+16
3.96597279984718e+16
3.92668859776677e+16
3.88694717244542e+16
3.84674740915927e+16
3.80608835244652e+16
3.76496921160738e+16
3.72338936612313e+16
3.68134837099795e+16
3.63884596197684e+16
3.59588206068421e+16
3.55245677988195e+16
3.50857042868404e+16
3.46422351557926e+16
3.41941676168474e+16
3.37415109791009e+16
3.32842761735712e+16
3.28224788407194e+16
3.23561313482722e+16
3.18852551928871e+16
3.14098712469338e+16
3.09300045498135e+16
3.04456706619286e+16
2.99568874301108e+16
2.94637490360192e+16
2.89662771462741e+16
2.8464469458238e+16
2.795836929591e+16
2.74480200904827e+16
2.693346795809e+16
2.64147638636326e+16
2.58919629133405e+16
2.53651297893915e+16
2.48343269367442e+16
2.4299642196819e+16
2.37611476638156e+16
2.32189403896537e+16
2.26731763195717e+16
2.21238251168193e+16
2.15713358724095e+16
2.10154434187803e+16
2.04566299966465e+16
1.98955238339973e+16
1.93302231553646e+16
1.87662149351091e+16
1.81943022136663e+16
1.76263623652321e+16
1.70713438460217e+16
1.65093379055896e+16
1.59437150599689e+16
1.53793552061027e+16
1.48153853843157e+16
1.42641375268879e+16
1.37153419608208e+16
1.31799905696221e+16
1.26573832970143e+16
1.21207319629836e+16
1.15913590331404e+16
1.11086399558811e+16
1.0628158580176e+16
1.01225637674917e+16
9.68253076473149e+15
9.26756089150322e+15
8.8091436948361e+15
8.43459521694176e+15
8.07273717930344e+15
7.69269893384253e+15
7.37156027716559e+15
7.09204368508965e+15
6.77270584586158e+15
6.51752464995916e+15
6.29766581151334e+15
6.06332181895229e+15
5.85077837706265e+15
5.67584195494752e+15
5.53496803835895e+15
5.36815733162092e+15
5.22717906256932e+15
5.1068751224445e+15
5.0232221521144e+15
4.95777641031971e+15
4.9031451093948e+15
4.86337214856639e+15
4.86756137333607e+15
4.88268738676724e+15
4.91446535451425e+15
4.93339168163497e+15
4.92285644157717e+15
4.89303456104108e+15
4.84588083920091e+15
4.79707957192206e+15
4.74797869518015e+15
4.70248545342098e+15
4.65960186936207e+15
4.62176327703702e+15
4.58726425783402e+15
4.54298241910591e+15
4.49439878362716e+15
4.45105931052343e+15
4.41050412902802e+15
4.37466097574132e+15
4.34101319267757e+15
4.31156056611617e+15
4.28372471220572e+15
4.25966006623336e+15
4.23677697856614e+15
4.21735373514174e+15
4.1987288052567e+15
4.17827067586222e+15
4.14840042495114e+15
4.12197797956436e+15
4.09548976275628e+15
4.07231882624345e+15
4.04881523170193e+15
4.02848402287758e+15
4.00754142599295e+15
3.98959841841281e+15
3.97080757569553e+15
3.95488227336982e+15
3.93797530686519e+15
3.92384092498313e+15
3.90864921000368e+15
3.89616644966859e+15
3.88255352894019e+15
3.87158151692678e+15
3.85939178420228e+15
3.84064651792293e+15
3.82029186634301e+15
3.80226515184228e+15
3.78313306131041e+15
3.76644459517677e+15
3.74841109035981e+15
3.7330727548264e+15
3.7160566802888e+15
3.70201619518255e+15
3.68596537116519e+15
3.67307812346266e+15
3.65791936496393e+15
3.646044283648e+15
3.63167914105004e+15
3.62070900314108e+15
3.60707911786827e+15
3.59689301838941e+15
3.58396991385281e+15
3.57453153792264e+15
3.56223486165416e+15
3.55351562051402e+15
3.54183993146008e+15
3.53380461059071e+15
3.52272406945774e+15
3.51371449155053e+15
3.49713775558019e+15
3.48435050373671e+15
3.46839350514031e+15
3.45630935784008e+15
3.4409207320477e+15
3.42948975338797e+15
3.41460740169845e+15
3.40376268360758e+15
3.3893431934805e+15
3.3790616722103e+15
3.36509245095427e+15
3.35534868385344e+15
3.34180859941432e+15
3.33259231641912e+15
3.3194885046249e+15
3.31082319007115e+15
3.29816025366018e+15
3.29002958422463e+15
3.27778472019628e+15
3.27016591555849e+15
3.25831709684872e+15
3.25119745444838e+15
3.23973168290791e+15
3.23308506065302e+15
3.22196311674786e+15
3.21577112726278e+15
3.20496937744037e+15
3.19918915703786e+15
3.18865185720352e+15
3.18324276164722e+15
3.17291074474322e+15
3.16779737854031e+15
3.15508836540456e+15
)
;

boundaryField
{
    electrode
    {
        type            driftDiffusionPositiveIonDensity;
        seec            0;
        fieldName       Arp1;
        value           uniform 6.0196154916113e+16;
    }
    ground
    {
        type            driftDiffusionPositiveIonDensity;
        seec            0;
        fieldName       Arp1;
        value           uniform 3.15508836540456e+15;
    }
    otherfaces
    {
        type            empty;
    }
}


// ************************************************************************* //
