/*--------------------------------*- C++ -*----------------------------------*\
| =========                 |                                                 |
| \\      /  F ield         | foam-extend: Open Source CFD                    |
|  \\    /   O peration     | Version:     4.0                                |
|   \\  /    A nd           | Web:         http://www.foam-extend.org         |
|    \\/     M anipulation  |                                                 |
\*---------------------------------------------------------------------------*/
FoamFile
{
    version     2.0;
    format      ascii;
    class       volVectorField;
    location    "4.6e-06";
    object      E;
}
// * * * * * * * * * * * * * * * * * * * * * * * * * * * * * * * * * * * * * //

dimensions      [0 0 0 1 0 0 0];

internalField   nonuniform List<vector> 
300
(
(5.49697014573525 -0 -0)
(10.8837980711263 -0 -0)
(19.221305443129 -0 -0)
(26.9197420979531 -0 -0)
(34.5675498975011 -0 -0)
(42.2809391498196 -0 -0)
(49.9831000005951 -0 -0)
(57.6953504888277 -0 -0)
(65.4178101688892 -0 -0)
(73.1501133874331 -0 -0)
(80.8938138058253 -0 -0)
(88.6498367755348 -0 -0)
(96.4192103450344 -0 -0)
(104.203016232372 -0 -0)
(112.002350877162 -0 -0)
(119.818347069091 -0 -0)
(127.652172877965 -0 -0)
(135.505033768692 -0 -0)
(143.378175490595 -0 -0)
(151.272886583783 -0 -0)
(159.190501172747 -0 -0)
(167.132401793225 -0 -0)
(175.100021249094 -0 -0)
(183.094842320932 -0 -0)
(191.118392632586 -0 -0)
(199.172235246232 -0 -0)
(207.257963287523 -0 -0)
(215.377224725701 -0 -0)
(223.531825124796 -0 -0)
(231.723951381327 -0 -0)
(239.956415841483 -0 -0)
(248.23242945749 -0 -0)
(256.554770128339 -0 -0)
(264.925631215967 -0 -0)
(273.347119077117 -0 -0)
(281.82141508379 -0 -0)
(290.350801514268 -0 -0)
(298.93767013866 -0 -0)
(307.58452456706 -0 -0)
(316.293980486025 -0 -0)
(325.068765509518 -0 -0)
(333.911719116488 -0 -0)
(342.8257928623 -0 -0)
(351.814050841768 -0 -0)
(360.879670451043 -0 -0)
(370.025943435865 -0 -0)
(379.256277020713 -0 -0)
(388.574195453499 -0 -0)
(397.983341511628 -0 -0)
(407.487478305742 -0 -0)
(417.090491207405 -0 -0)
(426.796389825553 -0 -0)
(436.609310176718 -0 -0)
(446.533516895765 -0 -0)
(456.5734056453 -0 -0)
(466.733505489944 -0 -0)
(477.018481477622 -0 -0)
(487.433137223763 -0 -0)
(497.982417606192 -0 -0)
(508.67141160043 -0 -0)
(519.505355176026 -0 -0)
(530.489634266333 -0 -0)
(541.629787870261 -0 -0)
(552.93151129404 -0 -0)
(564.400659470884 -0 -0)
(576.043250404057 -0 -0)
(587.865468845773 -0 -0)
(599.873670012342 -0 -0)
(612.074383522844 -0 -0)
(624.474317552417 -0 -0)
(637.080363147121 -0 -0)
(649.89959872454 -0 -0)
(662.939294947327 -0 -0)
(676.206919658503 -0 -0)
(689.71014325632 -0 -0)
(703.456844371241 -0 -0)
(717.455115733934 -0 -0)
(731.713270624225 -0 -0)
(746.239849489034 -0 -0)
(761.043627184164 -0 -0)
(776.133620526783 -0 -0)
(791.519096499185 -0 -0)
(807.209580844078 -0 -0)
(823.214867423729 -0 -0)
(839.545028072456 -0 -0)
(856.210423231908 -0 -0)
(873.221713333746 -0 -0)
(890.589870966661 -0 -0)
(908.32619399332 -0 -0)
(926.442319547451 -0 -0)
(944.950239165172 -0 -0)
(963.862314986943 -0 -0)
(983.191297156223 -0 -0)
(1002.95034264351 -0 -0)
(1023.1530354244 -0 -0)
(1043.8134082456 -0 -0)
(1064.94596607843 -0 -0)
(1086.56571142207 -0 -0)
(1108.68817155285 -0 -0)
(1131.32942803085 -0 -0)
(1154.50614842338 -0 -0)
(1178.23562071919 -0 -0)
(1202.53579040813 -0 -0)
(1227.42530067724 -0 -0)
(1252.9235357926 -0 -0)
(1279.05066820434 -0 -0)
(1305.82770942166 -0 -0)
(1333.27656522282 -0 -0)
(1361.4200955582 -0 -0)
(1390.28217943898 -0 -0)
(1419.88778549359 -0 -0)
(1450.26304856927 -0 -0)
(1481.43535300235 -0 -0)
(1513.43342325459 -0 -0)
(1546.28742252154 -0 -0)
(1580.02906027573 -0 -0)
(1614.69170939388 -0 -0)
(1650.31053416685 -0 -0)
(1686.92262995478 -0 -0)
(1724.56717597736 -0 -0)
(1763.28560255892 -0 -0)
(1803.12177421973 -0 -0)
(1844.12219056976 -0 -0)
(1886.33620685658 -0 -0)
(1929.81627630917 -0 -0)
(1974.61821687139 -0 -0)
(2020.80150509421 -0 -0)
(2068.42960041963 -0 -0)
(2117.57030330211 -0 -0)
(2168.29615048316 -0 -0)
(2220.68485934518 -0 -0)
(2274.81980617941 -0 -0)
(2330.79054873686 -0 -0)
(2388.69356612944 -0 -0)
(2448.63262895577 -0 -0)
(2510.71972653552 -0 -0)
(2575.07635400365 -0 -0)
(2641.83407152092 -0 -0)
(2711.13396805885 -0 -0)
(2783.12843579958 -0 -0)
(2857.99232705327 -0 -0)
(2935.92346912207 -0 -0)
(3017.13059377923 -0 -0)
(3101.83516980845 -0 -0)
(3190.27939861579 -0 -0)
(3282.72959085402 -0 -0)
(3379.4789852843 -0 -0)
(3480.85110837175 -0 -0)
(3587.20388491874 -0 -0)
(3698.93371364206 -0 -0)
(3816.48163967255 -0 -0)
(3940.33831278895 -0 -0)
(4071.05121206546 -0 -0)
(4209.23729987964 -0 -0)
(4355.57853599499 -0 -0)
(4510.86172629835 -0 -0)
(4675.9553439042 -0 -0)
(4851.84303465658 -0 -0)
(5039.70288927204 -0 -0)
(5240.70439571952 -0 -0)
(5456.56219823777 -0 -0)
(5688.6791770189 -0 -0)
(5939.67082893115 -0 -0)
(6215.81329254558 -0 -0)
(6521.81221471942 -0 -0)
(6859.49440959651 -0 -0)
(7231.99785306459 -0 -0)
(7644.1367172326 -0 -0)
(8103.4881655903 -0 -0)
(8618.74377396349 -0 -0)
(9199.42317029951 -0 -0)
(9856.49878752055 -0 -0)
(10595.511986499 -0 -0)
(11421.4770232266 -0 -0)
(12351.6045837738 -0 -0)
(13401.3149491463 -0 -0)
(14570.525036016 -0 -0)
(15871.1198949934 -0 -0)
(17323.5099872322 -0 -0)
(18922.6890086715 -0 -0)
(20673.3382268338 -0 -0)
(22589.4996570247 -0 -0)
(24658.4443118957 -0 -0)
(26874.1236782221 -0 -0)
(29241.8706068441 -0 -0)
(31738.7896274103 -0 -0)
(34344.8187222807 -0 -0)
(37057.9808789661 -0 -0)
(39854.5279085937 -0 -0)
(42706.3516578239 -0 -0)
(45600.9715699688 -0 -0)
(48532.5952981622 -0 -0)
(51478.7015614218 -0 -0)
(54416.6645170773 -0 -0)
(57342.6310985743 -0 -0)
(60256.2268959438 -0 -0)
(63165.6499250449 -0 -0)
(66070.3198448282 -0 -0)
(68962.1011546076 -0 -0)
(71858.8601049517 -0 -0)
(74776.9757461874 -0 -0)
(77716.7892527168 -0 -0)
(80676.6097759027 -0 -0)
(83642.7496704992 -0 -0)
(86599.150953243 -0 -0)
(89533.8661615355 -0 -0)
(92440.4870495948 -0 -0)
(95317.9821725405 -0 -0)
(98167.1465994306 -0 -0)
(100989.766902914 -0 -0)
(103788.104290532 -0 -0)
(106564.664815663 -0 -0)
(109317.489801402 -0 -0)
(112042.321863739 -0 -0)
(114739.44009616 -0 -0)
(117411.262107757 -0 -0)
(120060.046824211 -0 -0)
(122687.8748441 -0 -0)
(125296.671429257 -0 -0)
(127888.190536796 -0 -0)
(130464.05835416 -0 -0)
(133025.768631533 -0 -0)
(135574.721999989 -0 -0)
(138112.203903276 -0 -0)
(140637.903235422 -0 -0)
(143148.429691496 -0 -0)
(145641.985464222 -0 -0)
(148119.591429872 -0 -0)
(150582.22906762 -0 -0)
(153030.799314576 -0 -0)
(155466.159344713 -0 -0)
(157889.08221152 -0 -0)
(160300.288769291 -0 -0)
(162700.428480098 -0 -0)
(165090.110275963 -0 -0)
(167469.902644552 -0 -0)
(169840.345955968 -0 -0)
(172201.957685291 -0 -0)
(174555.236059822 -0 -0)
(176900.657286023 -0 -0)
(179238.677017071 -0 -0)
(181569.724382246 -0 -0)
(183891.455037944 -0 -0)
(186201.406513567 -0 -0)
(188499.79532836 -0 -0)
(190786.989948477 -0 -0)
(193063.393794185 -0 -0)
(195329.33792711 -0 -0)
(197585.229261021 -0 -0)
(199831.374369429 -0 -0)
(202068.164367391 -0 -0)
(204295.890102163 -0 -0)
(206514.899071333 -0 -0)
(208725.460036059 -0 -0)
(210927.877943044 -0 -0)
(213122.391974509 -0 -0)
(215309.274542303 -0 -0)
(217488.747164659 -0 -0)
(219661.046156894 -0 -0)
(221826.384227837 -0 -0)
(223984.986658043 -0 -0)
(226137.042080145 -0 -0)
(228282.767093039 -0 -0)
(230422.348714452 -0 -0)
(232555.992944233 -0 -0)
(234683.87900473 -0 -0)
(236805.712791255 -0 -0)
(238919.83646423 -0 -0)
(241025.110568012 -0 -0)
(243121.72182792 -0 -0)
(245209.882038752 -0 -0)
(247289.762425971 -0 -0)
(249361.559827161 -0 -0)
(251425.42674995 -0 -0)
(253481.539832013 -0 -0)
(255530.038495543 -0 -0)
(257571.092421226 -0 -0)
(259604.837245693 -0 -0)
(261631.434990235 -0 -0)
(263651.014919952 -0 -0)
(265663.735970731 -0 -0)
(267669.729531934 -0 -0)
(269669.161590457 -0 -0)
(271662.165026946 -0 -0)
(273648.900939613 -0 -0)
(275629.49526685 -0 -0)
(277604.102331448 -0 -0)
(279572.841442532 -0 -0)
(281535.862957116 -0 -0)
(283493.282315362 -0 -0)
(285445.242093808 -0 -0)
(287391.84577783 -0 -0)
(289333.230361192 -0 -0)
(291269.492317854 -0 -0)
(293200.755524292 -0 -0)
(295127.099506798 -0 -0)
(297048.635368081 -0 -0)
(298965.424445542 -0 -0)
(300877.560157585 -0 -0)
(302784.322995932 -0 -0)
)
;

boundaryField
{
    electrode
    {
        type            calculated;
        value           uniform (4.53258916650157 -0 -0);
    }
    ground
    {
        type            calculated;
        value           uniform (303735.786894901 -0 -0);
    }
    otherfaces
    {
        type            empty;
    }
}


// ************************************************************************* //
