/*--------------------------------*- C++ -*----------------------------------*\
| =========                 |                                                 |
| \\      /  F ield         | foam-extend: Open Source CFD                    |
|  \\    /   O peration     | Version:     4.0                                |
|   \\  /    A nd           | Web:         http://www.foam-extend.org         |
|    \\/     M anipulation  |                                                 |
\*---------------------------------------------------------------------------*/
FoamFile
{
    version     2.0;
    format      ascii;
    class       volScalarField;
    location    "4.6e-06";
    object      electron;
}
// * * * * * * * * * * * * * * * * * * * * * * * * * * * * * * * * * * * * * //

dimensions      [0 0 0 1 0 0 0];

internalField   nonuniform List<scalar> 
300
(
6.03835615276731e+16
6.03820447222645e+16
6.03780363941108e+16
6.03711635922982e+16
6.03614840157083e+16
6.03489759319647e+16
6.03336354303089e+16
6.0315463520377e+16
6.02944591146165e+16
6.02706218006974e+16
6.02439512250329e+16
6.02144470391274e+16
6.01821089511865e+16
6.01469366993992e+16
6.0108930045284e+16
6.00680887656555e+16
6.00244126425662e+16
5.99779014531875e+16
5.99285549589703e+16
5.98763728941495e+16
5.98213549536004e+16
5.97635007800513e+16
5.97028099508803e+16
5.96392819650757e+16
5.95729162314454e+16
5.95037120591722e+16
5.94316686498047e+16
5.93567850837764e+16
5.92790602835838e+16
5.91984929259336e+16
5.91150812888687e+16
5.90288231025681e+16
5.89397155599364e+16
5.8847755481971e+16
5.87529394352277e+16
5.86552637517113e+16
5.85547245165496e+16
5.8451317545579e+16
5.83450383602609e+16
5.82358821625082e+16
5.81238438102558e+16
5.80089177939952e+16
5.78910982142939e+16
5.77703787602625e+16
5.76467526889202e+16
5.75202128054015e+16
5.73907514439849e+16
5.72583604499035e+16
5.71230311619229e+16
5.69847543956869e+16
5.68435204278167e+16
5.66993189807836e+16
5.6552139208568e+16
5.64019696831258e+16
5.62487983816788e+16
5.60926126748638e+16
5.59333993157746e+16
5.57711444299256e+16
5.56058335061862e+16
5.54374513887133e+16
5.52659822699231e+16
5.50914096845494e+16
5.49137165048337e+16
5.47328849368799e+16
5.45488965182225e+16
5.43617321166541e+16
5.41713719303469e+16
5.39777954893103e+16
5.37809816582367e+16
5.3580908640762e+16
5.33775539851811e+16
5.31708945916651e+16
5.29609067210018e+16
5.27475660048998e+16
5.25308474578948e+16
5.2310725490865e+16
5.20871739262024e+16
5.18601660146535e+16
5.16296744538512e+16
5.13956714085576e+16
5.11581285326292e+16
5.09170169927131e+16
5.06723074936833e+16
5.04239703058184e+16
5.01719752937134e+16
4.99162919469306e+16
4.96568894123665e+16
4.93937365283234e+16
4.91268018602624e+16
4.88560537382106e+16
4.85814602957893e+16
4.83029895108186e+16
4.80206092474636e+16
4.77342872998606e+16
4.74439914371611e+16
4.71496894499357e+16
4.68513491978577e+16
4.65489386585849e+16
4.62424259777525e+16
4.5931779519973e+16
4.56169679207399e+16
4.52979601391207e+16
4.49747255111086e+16
4.46472338035032e+16
4.43154552681759e+16
4.39793606965629e+16
4.36389214742224e+16
4.32941096352895e+16
4.29448979166318e+16
4.2591259811519e+16
4.22331696225998e+16
4.1870602513964e+16
4.15035345620662e+16
4.11319428052705e+16
4.07558052917639e+16
4.03751011255762e+16
3.99898105104336e+16
3.95999147911585e+16
3.92053964923143e+16
3.88062393537955e+16
3.84024283630246e+16
3.79939497834325e+16
3.75807911788757e+16
3.71629414336209e+16
3.67403907675294e+16
3.63131307460572e+16
3.58811542846639e+16
3.54444556472173e+16
3.50030304379546e+16
3.45568755866549e+16
3.41059893262551e+16
3.36503711624459e+16
3.31900218380963e+16
3.27249432789772e+16
3.22551385424133e+16
3.17806117656674e+16
3.13013680583105e+16
3.0817413383991e+16
3.03287545477254e+16
2.98353992101473e+16
2.93373551399655e+16
2.88346288965245e+16
2.83272256657559e+16
2.78151500819193e+16
2.72984065937166e+16
2.67769993504463e+16
2.62509319983961e+16
2.57202074517117e+16
2.5184827633054e+16
2.46447932175279e+16
2.41001033371862e+16
2.35507552730372e+16
2.29967442358991e+16
2.24380628275595e+16
2.18747011234446e+16
2.13066459928935e+16
2.07338807002256e+16
2.01563860759474e+16
1.95741366299999e+16
1.89871062502916e+16
1.83952572223035e+16
1.77985401980535e+16
1.71968746909108e+16
1.65899808277762e+16
1.59773615247628e+16
1.5358550811618e+16
1.47332180948447e+16
1.41011056119002e+16
1.34619397127894e+16
1.28153939398763e+16
1.21611581178476e+16
1.14990180004668e+16
1.08290890435144e+16
1.01520725876981e+16
9.46911374460602e+15
8.78171408212802e+15
8.09222268257896e+15
7.40393383203127e+15
6.72069562237035e+15
6.0472054472351e+15
5.38907943365838e+15
4.75230599775725e+15
4.14318495719724e+15
3.56810716481242e+15
3.03289068065755e+15
2.54250885760736e+15
2.10082699467136e+15
1.71012754401129e+15
1.37099831400397e+15
1.08241737220145e+15
841822818974787
645301622198355
487844060965794
364198063751250
269003704483440
196935851680701
143040099990507
101863964156916
70781218255666.3
48419626021151.8
32261078329695.1
20630531343565.2
12736204816634.1
7782107563042.8
4889482393256.53
3270854869198.38
2371242539644.06
1862691870720.2
1568079508252.53
1393531942297.74
1288862246429.38
1226171556880.58
1189307565428.88
1168563536996.19
1157794276011.07
1152964583075.88
1151391337235.99
1151266180393.01
1151476746166
1151265836247.96
1150026463927.71
1147354445133.12
1143044391842.88
1136992512747.81
1129172640052.83
1119614144442.28
1108387705632.21
1095592417150
1081346343869.58
1065779850518
1049030402646.02
1031238516885.16
1012544583087.8
993086381196.277
972997162077.511
952404186864.709
931427650941.363
910179924919.217
888765066749.333
867278535010.568
845807158833.102
824428851818.304
803213750002.825
782217942414.689
761488268284.11
741072524937.681
721014703317.138
701352167664.526
682115924749.1
663330975442.846
645016843206.327
627188098627.865
609854890308.218
593023484860.047
576696963398.152
560876584517.021
545558065532.806
530732650239.839
516394240998.132
502536078782.044
489148263237.601
476219898214.161
463739178058.808
451693704462.638
440070665454.628
428856990348.979
418039530113.074
407604909419.654
397539367030.544
387820480987.764
378427301497.816
369348468922.799
360573322296.013
352092151958.277
343895714579.443
335975294937.263
328322728254.432
320930455274.385
313791582334.079
306899913479.776
300250030087.43
293836635094.155
287654472505.112
281683041475.09
275892960579.225
270277213695.401
264846108386.146
259612458730.946
254589719827.803
249764394491.912
245110625934.99
240645364690.327
236421181650.591
232432437075.808
228705454793.277
225336248783.992
222462682703.123
220363733784.439
219488020401.502
220656166859.327
)
;

boundaryField
{
    electrode
    {
        type            driftDiffusionElectronDensity;
        seec            0.05;
        Edepend         1;
        field_emission  0;
        field_enhancement_factor 55;
        work_function   5;
        value           uniform 6.03835615276731e+16;
    }
    ground
    {
        type            driftDiffusionElectronDensity;
        seec            0.05;
        Edepend         1;
        field_emission  0;
        field_enhancement_factor 55;
        work_function   5;
        value           uniform 222840380880.344;
    }
    otherfaces
    {
        type            empty;
    }
}


// ************************************************************************* //
