/*--------------------------------*- C++ -*----------------------------------*\
| =========                 |                                                 |
| \\      /  F ield         | foam-extend: Open Source CFD                    |
|  \\    /   O peration     | Version:     4.0                                |
|   \\  /    A nd           | Web:         http://www.foam-extend.org         |
|    \\/     M anipulation  |                                                 |
\*---------------------------------------------------------------------------*/
FoamFile
{
    version     2.0;
    format      ascii;
    class       volVectorField;
    location    "4.6e-06";
    object      J_Arp1;
}
// * * * * * * * * * * * * * * * * * * * * * * * * * * * * * * * * * * * * * //

dimensions      [1 -1 -1 0 0 0 0];

internalField   nonuniform List<vector> 
300
(
(1.80910437322882e+16 -0 -0)
(6.54701519349538e+16 -0 -0)
(1.17244169925275e+17 -0 -0)
(1.62993993087423e+17 -0 -0)
(2.09393447769249e+17 -0 -0)
(2.56065837278272e+17 -0 -0)
(3.02587803240304e+17 -0 -0)
(3.49135598817594e+17 -0 -0)
(3.95678006113306e+17 -0 -0)
(4.42210538176737e+17 -0 -0)
(4.88736252363428e+17 -0 -0)
(5.35253479759557e+17 -0 -0)
(5.81761800591058e+17 -0 -0)
(6.28260914494098e+17 -0 -0)
(6.7475057084221e+17 -0 -0)
(7.21230701666636e+17 -0 -0)
(7.67701394637776e+17 -0 -0)
(8.14162906524545e+17 -0 -0)
(8.60615675152577e+17 -0 -0)
(9.07060329072618e+17 -0 -0)
(9.53497698935354e+17 -0 -0)
(9.99928828625457e+17 -0 -0)
(1.04635498052111e+18 -0 -0)
(1.09277762797326e+18 -0 -0)
(1.13919841871733e+18 -0 -0)
(1.18561911200017e+18 -0 -0)
(1.23204153625457e+18 -0 -0)
(1.27846771788743e+18 -0 -0)
(1.32490046160066e+18 -0 -0)
(1.37134464822792e+18 -0 -0)
(1.4178088195422e+18 -0 -0)
(1.4643039289629e+18 -0 -0)
(1.51083772225341e+18 -0 -0)
(1.55741422038111e+18 -0 -0)
(1.60403697195519e+18 -0 -0)
(1.65070975813454e+18 -0 -0)
(1.69743673319136e+18 -0 -0)
(1.74422246509378e+18 -0 -0)
(1.79107193479844e+18 -0 -0)
(1.8379905217607e+18 -0 -0)
(1.88498398631179e+18 -0 -0)
(1.93205845173323e+18 -0 -0)
(1.97922038724522e+18 -0 -0)
(2.02647659180577e+18 -0 -0)
(2.07383417886207e+18 -0 -0)
(2.1213005620216e+18 -0 -0)
(2.16888344047248e+18 -0 -0)
(2.216590785898e+18 -0 -0)
(2.26443082836844e+18 -0 -0)
(2.3124120431062e+18 -0 -0)
(2.36054313696965e+18 -0 -0)
(2.40883303432665e+18 -0 -0)
(2.45729086308563e+18 -0 -0)
(2.50592593990388e+18 -0 -0)
(2.55474775548955e+18 -0 -0)
(2.60376595868725e+18 -0 -0)
(2.65299034058009e+18 -0 -0)
(2.70243081746205e+18 -0 -0)
(2.75209741332141e+18 -0 -0)
(2.80200024182805e+18 -0 -0)
(2.85214948742346e+18 -0 -0)
(2.90255538558665e+18 -0 -0)
(2.95322820242715e+18 -0 -0)
(3.00417821369672e+18 -0 -0)
(3.05541568285817e+18 -0 -0)
(3.10695083829271e+18 -0 -0)
(3.15879385029648e+18 -0 -0)
(3.21095480675722e+18 -0 -0)
(3.26344368834143e+18 -0 -0)
(3.31627034317508e+18 -0 -0)
(3.36944446069484e+18 -0 -0)
(3.42297554461334e+18 -0 -0)
(3.47687288599766e+18 -0 -0)
(3.53114553478416e+18 -0 -0)
(3.58580227148017e+18 -0 -0)
(3.64085157837339e+18 -0 -0)
(3.69630160956309e+18 -0 -0)
(3.75216016162835e+18 -0 -0)
(3.80843464278786e+18 -0 -0)
(3.86513204277404e+18 -0 -0)
(3.92225890161386e+18 -0 -0)
(3.97982127892292e+18 -0 -0)
(4.03782472234766e+18 -0 -0)
(4.09627423670868e+18 -0 -0)
(4.15517425239084e+18 -0 -0)
(4.2145285942785e+18 -0 -0)
(4.27434045072228e+18 -0 -0)
(4.33461234257321e+18 -0 -0)
(4.3953460928632e+18 -0 -0)
(4.4565427964274e+18 -0 -0)
(4.5182027904697e+18 -0 -0)
(4.58032562545553e+18 -0 -0)
(4.64291003652869e+18 -0 -0)
(4.70595391613298e+18 -0 -0)
(4.76945428720626e+18 -0 -0)
(4.8334072774178e+18 -0 -0)
(4.89780809450075e+18 -0 -0)
(4.96265100290708e+18 -0 -0)
(5.02792930151216e+18 -0 -0)
(5.09363530319745e+18 -0 -0)
(5.1597603154447e+18 -0 -0)
(5.22629462315965e+18 -0 -0)
(5.29322747278046e+18 -0 -0)
(5.36054705879108e+18 -0 -0)
(5.42824051176138e+18 -0 -0)
(5.49629388910954e+18 -0 -0)
(5.5646921676293e+18 -0 -0)
(5.63341923866121e+18 -0 -0)
(5.70245790588254e+18 -0 -0)
(5.77178988539382e+18 -0 -0)
(5.84139580887655e+18 -0 -0)
(5.9112552293757e+18 -0 -0)
(5.98134663007476e+18 -0 -0)
(6.05164743619259e+18 -0 -0)
(6.12213402972023e+18 -0 -0)
(6.19278176780614e+18 -0 -0)
(6.26356500380292e+18 -0 -0)
(6.33445711227358e+18 -0 -0)
(6.40543051681757e+18 -0 -0)
(6.47645672154136e+18 -0 -0)
(6.54750634611465e+18 -0 -0)
(6.61854916383119e+18 -0 -0)
(6.68955414339572e+18 -0 -0)
(6.76048949410537e+18 -0 -0)
(6.83132271422359e+18 -0 -0)
(6.90202064275e+18 -0 -0)
(6.9725495143088e+18 -0 -0)
(7.04287501762793e+18 -0 -0)
(7.11296235745219e+18 -0 -0)
(7.18277630810519e+18 -0 -0)
(7.25228131546463e+18 -0 -0)
(7.32144154425468e+18 -0 -0)
(7.39022066154155e+18 -0 -0)
(7.45858326538287e+18 -0 -0)
(7.52649192033897e+18 -0 -0)
(7.59391062004231e+18 -0 -0)
(7.66080418938967e+18 -0 -0)
(7.72713843103438e+18 -0 -0)
(7.79287220943509e+18 -0 -0)
(7.85795893269872e+18 -0 -0)
(7.92239772798496e+18 -0 -0)
(7.98619109768806e+18 -0 -0)
(8.04931202421936e+18 -0 -0)
(8.11172773681434e+18 -0 -0)
(8.17340532553943e+18 -0 -0)
(8.23431260217353e+18 -0 -0)
(8.29441839422275e+18 -0 -0)
(8.35369199917445e+18 -0 -0)
(8.41210559271281e+18 -0 -0)
(8.46962840661185e+18 -0 -0)
(8.52623869003806e+18 -0 -0)
(8.58190656889191e+18 -0 -0)
(8.63660512879849e+18 -0 -0)
(8.69034176752702e+18 -0 -0)
(8.74301497790172e+18 -0 -0)
(8.79475677655538e+18 -0 -0)
(8.84536619249767e+18 -0 -0)
(8.89490511234632e+18 -0 -0)
(8.94371350806631e+18 -0 -0)
(8.99046341980543e+18 -0 -0)
(9.03817214838837e+18 -0 -0)
(9.08164138374959e+18 -0 -0)
(9.12671502200511e+18 -0 -0)
(9.17142745276394e+18 -0 -0)
(9.21406683680131e+18 -0 -0)
(9.25563724550758e+18 -0 -0)
(9.29665394390454e+18 -0 -0)
(9.33490510495454e+18 -0 -0)
(9.3754935945911e+18 -0 -0)
(9.41183893699991e+18 -0 -0)
(9.45006586700764e+18 -0 -0)
(9.48740141933348e+18 -0 -0)
(9.52148164627845e+18 -0 -0)
(9.55200947728621e+18 -0 -0)
(9.59282896517194e+18 -0 -0)
(9.61866991244927e+18 -0 -0)
(9.64552627793825e+18 -0 -0)
(9.68399429849585e+18 -0 -0)
(9.7087105263948e+18 -0 -0)
(9.72767561175852e+18 -0 -0)
(9.77093080732462e+18 -0 -0)
(9.77995942268816e+18 -0 -0)
(9.80656685710693e+18 -0 -0)
(9.83071386514954e+18 -0 -0)
(9.85052995416477e+18 -0 -0)
(9.86229875453584e+18 -0 -0)
(9.89064327266939e+18 -0 -0)
(9.90192813975281e+18 -0 -0)
(9.92305047683845e+18 -0 -0)
(9.94218117584311e+18 -0 -0)
(9.96406958639468e+18 -0 -0)
(9.99085453603956e+18 -0 -0)
(1.001427023604e+19 -0 -0)
(1.00529155993322e+19 -0 -0)
(1.00882480205078e+19 -0 -0)
(1.01582619238794e+19 -0 -0)
(1.02325852705693e+19 -0 -0)
(1.03756062684981e+19 -0 -0)
(1.05404514865826e+19 -0 -0)
(1.07823641999579e+19 -0 -0)
(1.103436258269e+19 -0 -0)
(1.13105111623439e+19 -0 -0)
(1.15432835327297e+19 -0 -0)
(1.17153831922583e+19 -0 -0)
(1.18804843007412e+19 -0 -0)
(1.19861228261463e+19 -0 -0)
(1.20696263093439e+19 -0 -0)
(1.21350331170939e+19 -0 -0)
(1.21932503982386e+19 -0 -0)
(1.22428557230999e+19 -0 -0)
(1.22913439723103e+19 -0 -0)
(1.23354318413502e+19 -0 -0)
(1.23803190111431e+19 -0 -0)
(1.24226897961457e+19 -0 -0)
(1.24679624517666e+19 -0 -0)
(1.25103761813344e+19 -0 -0)
(1.25562599843071e+19 -0 -0)
(1.2599222580798e+19 -0 -0)
(1.26457320870671e+19 -0 -0)
(1.26888746875865e+19 -0 -0)
(1.27355383149129e+19 -0 -0)
(1.27784898272741e+19 -0 -0)
(1.28249909677666e+19 -0 -0)
(1.28673929649164e+19 -0 -0)
(1.29131567402884e+19 -0 -0)
(1.29538392591448e+19 -0 -0)
(1.29992024354213e+19 -0 -0)
(1.30386600680482e+19 -0 -0)
(1.30832631581688e+19 -0 -0)
(1.31216374320071e+19 -0 -0)
(1.31653680997399e+19 -0 -0)
(1.32023873096089e+19 -0 -0)
(1.3244767355283e+19 -0 -0)
(1.32799858602181e+19 -0 -0)
(1.33205997000103e+19 -0 -0)
(1.3353866348307e+19 -0 -0)
(1.3392628799283e+19 -0 -0)
(1.34240033022661e+19 -0 -0)
(1.34610189256477e+19 -0 -0)
(1.34905770737753e+19 -0 -0)
(1.35258588143514e+19 -0 -0)
(1.35535957439594e+19 -0 -0)
(1.35867018351254e+19 -0 -0)
(1.36130049837844e+19 -0 -0)
(1.36443709115102e+19 -0 -0)
(1.3668646621531e+19 -0 -0)
(1.36987350876147e+19 -0 -0)
(1.37210057385518e+19 -0 -0)
(1.37503180812992e+19 -0 -0)
(1.37707066669999e+19 -0 -0)
(1.37994712418117e+19 -0 -0)
(1.38181642385887e+19 -0 -0)
(1.38462201593775e+19 -0 -0)
(1.38632825175668e+19 -0 -0)
(1.38904294739523e+19 -0 -0)
(1.39057884664673e+19 -0 -0)
(1.39319076681319e+19 -0 -0)
(1.39456070428871e+19 -0 -0)
(1.39704888012089e+19 -0 -0)
(1.39826580452903e+19 -0 -0)
(1.40063901993526e+19 -0 -0)
(1.40169338294158e+19 -0 -0)
(1.40396110798546e+19 -0 -0)
(1.40487056941766e+19 -0 -0)
(1.40703791314259e+19 -0 -0)
(1.40781153880441e+19 -0 -0)
(1.4098944356478e+19 -0 -0)
(1.41058496561252e+19 -0 -0)
(1.41261795062487e+19 -0 -0)
(1.41318730892563e+19 -0 -0)
(1.41516083079578e+19 -0 -0)
(1.41561166016813e+19 -0 -0)
(1.41752534520547e+19 -0 -0)
(1.41785084203122e+19 -0 -0)
(1.41969520699877e+19 -0 -0)
(1.41989428070809e+19 -0 -0)
(1.42167628806188e+19 -0 -0)
(1.42175940536785e+19 -0 -0)
(1.42348385726353e+19 -0 -0)
(1.42345681833143e+19 -0 -0)
(1.42513382505273e+19 -0 -0)
(1.42501355939232e+19 -0 -0)
(1.42666700901095e+19 -0 -0)
(1.42646889838163e+19 -0 -0)
(1.4281050170973e+19 -0 -0)
(1.42783181757517e+19 -0 -0)
(1.42945305162448e+19 -0 -0)
(1.42910688708532e+19 -0 -0)
(1.4307191643318e+19 -0 -0)
(1.43030529695834e+19 -0 -0)
(1.43190784385293e+19 -0 -0)
(1.43141909959272e+19 -0 -0)
(1.43301363983473e+19 -0 -0)
(1.43244887067905e+19 -0 -0)
(1.43402541474706e+19 -0 -0)
(1.43336819362058e+19 -0 -0)
(1.43491670135436e+19 -0 -0)
(1.43414801279497e+19 -0 -0)
(1.43564321554899e+19 -0 -0)
(1.43359220020333e+19 -0 -0)
)
;

boundaryField
{
    electrode
    {
        type            calculated;
        value           uniform (-3777481200.39973 -0 -0);
    }
    ground
    {
        type            calculated;
        value           uniform (1.43541170746783e+19 -0 -0);
    }
    otherfaces
    {
        type            empty;
    }
}


// ************************************************************************* //
