/*--------------------------------*- C++ -*----------------------------------*\
| =========                 |                                                 |
| \\      /  F ield         | foam-extend: Open Source CFD                    |
|  \\    /   O peration     | Version:     4.0                                |
|   \\  /    A nd           | Web:         http://www.foam-extend.org         |
|    \\/     M anipulation  |                                                 |
\*---------------------------------------------------------------------------*/
FoamFile
{
    version     2.0;
    format      ascii;
    class       volScalarField;
    location    "4.6e-06";
    object      N_electronMean;
}
// * * * * * * * * * * * * * * * * * * * * * * * * * * * * * * * * * * * * * //

dimensions      [0 0 0 1 0 0 0];

internalField   nonuniform List<scalar> 
300
(
5.99316968329576e+16
5.99302292620396e+16
5.99261243636819e+16
5.99188785611815e+16
5.99085210498368e+16
5.98950107371369e+16
5.98783218220378e+16
5.98584390530262e+16
5.98353487927249e+16
5.9809041000014e+16
5.97795086286706e+16
5.97467473366687e+16
5.97107552870777e+16
5.96715329379463e+16
5.96290828963519e+16
5.95834097734932e+16
5.95345200619045e+16
5.9482422030167e+16
5.9427125620682e+16
5.93686423530927e+16
5.93069852391533e+16
5.92421687023026e+16
5.91742085001781e+16
5.91031216453021e+16
5.90289263477018e+16
5.89516419703443e+16
5.88712889459738e+16
5.87878886943972e+16
5.87014635553997e+16
5.86120366978442e+16
5.85196320620108e+16
5.84242743466138e+16
5.83259889278394e+16
5.82248017265751e+16
5.81207391133819e+16
5.80138278327692e+16
5.79040949287328e+16
5.77915676768775e+16
5.76762735101118e+16
5.75582399432532e+16
5.74374945116317e+16
5.73140647079752e+16
5.71879779062185e+16
5.70592612914504e+16
5.69279417993379e+16
5.67940460570223e+16
5.66576003280324e+16
5.65186304633745e+16
5.6377161864235e+16
5.62332194561044e+16
5.60868276898254e+16
5.59380105436434e+16
5.57867914820708e+16
5.56331933783743e+16
5.54772384031631e+16
5.53189479095644e+16
5.51583423344647e+16
5.49954411205343e+16
5.48302626559544e+16
5.46628242158824e+16
5.44931419099503e+16
5.43212306335857e+16
5.41471040142361e+16
5.39707743984161e+16
5.37922528877277e+16
5.36115492866236e+16
5.34286719674605e+16
5.32436277884141e+16
5.30564220516374e+16
5.28670584602529e+16
5.26755390746118e+16
5.24818642900747e+16
5.22860328558122e+16
5.20880418496343e+16
5.1887886602027e+16
5.16855606939432e+16
5.14810559820482e+16
5.12743625580062e+16
5.10654686454848e+16
5.08543605344406e+16
5.06410225681495e+16
5.04254370365963e+16
5.02075840736355e+16
4.99874416186066e+16
4.97649853962678e+16
4.95401889277595e+16
4.93130234806033e+16
4.90834579684874e+16
4.88514589034633e+16
4.8616990386637e+16
4.83800140655089e+16
4.81404891498943e+16
4.78983724441682e+16
4.76536182253196e+16
4.74061781281551e+16
4.71560011128795e+16
4.69030334318238e+16
4.66472185973212e+16
4.63884973502788e+16
4.61268076455384e+16
4.58620846362398e+16
4.55942606267682e+16
4.53232650741577e+16
4.50490246201647e+16
4.47714630353068e+16
4.44905011829862e+16
4.42060570179667e+16
4.39180455667839e+16
4.36263789346853e+16
4.33309662734232e+16
4.30317137355073e+16
4.27285244648704e+16
4.24212986055144e+16
4.21099333373411e+16
4.17943228878731e+16
4.14743585453068e+16
4.11499287452424e+16
4.08209191151429e+16
4.04872124258284e+16
4.01486885581952e+16
3.98052245573758e+16
3.94566947169033e+16
3.91029706521739e+16
3.87439213907852e+16
3.83794133755539e+16
3.8009310406924e+16
3.76334736835186e+16
3.72517618845921e+16
3.68640311994016e+16
3.64701353745378e+16
3.60699258050414e+16
3.56632516270129e+16
3.52499597978648e+16
3.48298951761185e+16
3.44029006997779e+16
3.39688175944074e+16
3.35274854338852e+16
3.30787421389295e+16
3.26224240568494e+16
3.21583660974431e+16
3.16864018316634e+16
3.12063636142744e+16
3.07180827795315e+16
3.02213898547572e+16
2.97161148240203e+16
2.92020873563649e+16
2.86791369097903e+16
2.81470928180293e+16
2.76057843813586e+16
2.7055041070371e+16
2.64946928374864e+16
2.59245703000926e+16
2.53445049491879e+16
2.47543294788933e+16
2.41538779935241e+16
2.35429863533459e+16
2.29214926511517e+16
2.22892377365885e+16
2.16460653696669e+16
2.09918217616643e+16
2.03263516131483e+16
1.96494770013477e+16
1.89609660838861e+16
1.82605355630778e+16
1.75478893624762e+16
1.68227404965559e+16
1.60847980334756e+16
1.53337513688942e+16
1.45692776775274e+16
1.37910860449707e+16
1.29990111267139e+16
1.21931745039525e+16
1.13741763452818e+16
1.05432599270457e+16
9.70256689316124e+15
8.85545342987639e+15
8.00668088632465e+15
7.1625941419158e+15
6.33121001164366e+15
5.52200993161039e+15
4.74553740566883e+15
4.01280301205844e+15
3.33440203163302e+15
2.71954136481876e+15
2.17514567306555e+15
1.70509443820614e+15
1.30982700362682e+15
986413176984280
729020734362200
529713923545746
379391760936001
268728053107513
189004692311618
132643194199115
92845123878876.6
64606283492645.7
44556996712482.5
30358091716467.4
20535650842674.1
13877423037780.8
9415627394641.67
6515931588117.06
4709886019173.67
3627533357469.53
2991787654866.84
2615288886239.16
2384940063000.38
2237260375751.63
2137453952504.26
2066181236493.93
2012329525782.94
1969246031362.85
1932808859112.88
1900348684717.82
1870130228029.62
1840991579156.91
1812159248289.65
1783129417177.58
1753585705826.61
1723336398942.82
1692270339083.97
1660324107917.62
1627499392455.7
1593856577418.25
1559486051678.26
1524497942502.36
1489013770830.65
1453159217562.59
1417060267285.18
1380839924503.1
1344615882209.74
1308499874510.23
1272595500291.79
1236998002844.42
1201794241120.24
1167061967469.2
1132869731714.98
1099277888269.23
1066337843458.25
1034092925467.39
1002579282427.58
971825628410.84
941854875468.229
912684110115.797
884324503721.125
856782085755.019
830057373480.364
804146793258.208
779043301335.811
754737177113.031
731217956875.804
708473836577.739
686490997904.908
665253696419.573
644744996315.211
624947739462.023
605843480675.978
587410833935.815
569628541542.075
552477586312.914
535938901492.806
519992246681.589
504617499136.607
489794436374.89
475503132281.992
461724295702.459
448437574604.135
435622179703.677
423258153294.964
411326481502.174
399809487477.08
388691506048.721
377958372325.469
367597225253.079
357595932022.374
347943113931.364
338628041633.183
329640498433.164
320971115321.961
312611389389.967
304553489309.785
296789180947.321
289309236395.017
282090101354.708
275107907803.42
268359981995.104
261852815427.511
255594148253.261
249591793136.635
243826255022.002
238276177012.039
232961357168.81
227917456732.308
223140388724.816
218660519662.596
214552639692.454
210934176712.213
208049456868.326
206284048225.915
206342879558.832
)
;

boundaryField
{
    electrode
    {
        type            calculated;
        value           uniform 5.99316968332142e+16;
    }
    ground
    {
        type            calculated;
        value           uniform 207788229852.254;
    }
    otherfaces
    {
        type            empty;
    }
}


// ************************************************************************* //
