/*--------------------------------*- C++ -*----------------------------------*\
| =========                 |                                                 |
| \\      /  F ield         | foam-extend: Open Source CFD                    |
|  \\    /   O peration     | Version:     4.0                                |
|   \\  /    A nd           | Web:         http://www.foam-extend.org         |
|    \\/     M anipulation  |                                                 |
\*---------------------------------------------------------------------------*/
FoamFile
{
    version     2.0;
    format      ascii;
    class       volScalarField;
    location    "4.6e-06";
    object      PhiMean;
}
// * * * * * * * * * * * * * * * * * * * * * * * * * * * * * * * * * * * * * //

dimensions      [0 0 0 1 0 0 0];

internalField   nonuniform List<scalar> 
300
(
699.984010297877
699.982462909047
699.980653270896
699.978601097991
699.9763159655
699.97379069607
699.971024264545
699.96801532397
699.964762575988
699.961265059013
699.957521971446
699.953532696878
699.949296764438
699.944813837118
699.940083698673
699.935106240499
699.929881451013
699.924409408633
699.918690272829
699.912724275797
699.906511716512
699.900052954738
699.893348405269
699.88639853233
699.879203843009
699.87176489464
699.86408228128
699.856156628657
699.847988592933
699.839578850562
699.830928090953
699.822037031113
699.812906406272
699.803536951457
699.793929397473
699.784084466084
699.774002864229
699.763685281534
699.753132384503
699.742344809806
699.73132316135
699.720068007498
699.708579872635
699.696859232849
699.684906511407
699.672722074407
699.660306226198
699.647659206315
699.634781186064
699.621672269621
699.608332493363
699.594761838182
699.580960217705
699.566927479478
699.552663384215
699.538167597296
699.523439674007
699.508479053177
699.493285051323
699.477856855851
699.46219351972
699.446293955513
699.430156928437
699.413781049114
699.397164792449
699.38030648988
699.363204297549
699.34585619055
699.32825995677
699.310413189577
699.292313280387
699.273957409623
699.255342553912
699.23646548307
699.217322734215
699.197910614473
699.178225209477
699.158262366545
699.138017683284
699.117486474164
699.096663798433
699.075544413437
699.054122760529
699.032392957705
699.010348782847
698.987983681892
698.965290749505
698.942262700141
698.918891852806
698.895170127794
698.871089025423
698.846639607894
698.821812528529
698.796597966222
698.770985602883
698.744964607147
698.718523612075
698.69165069657
698.664333358539
698.636558497268
698.608312391603
698.57958066799
698.55034826753
698.520599451982
698.490317743619
698.459485896525
698.428085874243
698.396098797099
698.363504926063
698.330283608855
698.296413229501
698.26187116668
698.226633742379
698.190676182013
698.15397256251
698.116495741933
698.078217325907
698.039107611799
697.999135492603
697.958268374122
697.916472093436
697.873710860257
697.829947146061
697.785141620177
697.739253021519
697.692238015392
697.644051064262
697.594644313349
697.543967415193
697.491967370953
697.438588354126
697.383771522833
697.327454804403
697.269572655822
697.210055818269
697.148831092696
697.085820993335
697.020943394795
696.95411113105
696.885231602913
696.814206290128
696.740930229929
696.665291456663
696.587170363504
696.506439002634
696.422960305971
696.336587124091
696.247161184289
696.154511879941
696.058454912151
695.958790829035
695.855303219641
695.747756679255
695.635894517779
695.519436028946
695.398073258331
695.271467518789
695.139244849945
695.000991273958
694.856246049975
694.704495580866
694.545158723241
694.377553201813
694.200876317765
694.014212023402
693.816519216873
693.606594114845
693.383020524116
693.144121432623
692.887903934739
692.612014163159
692.313714731004
691.989896182457
691.636935478396
691.250628680156
690.826360211364
690.358978094163
689.842744570599
689.271670230523
688.63941440691
687.93939227285
687.165152706942
686.310481314665
685.369379341325
684.336719753403
683.208074649805
681.979786652668
680.649232253555
679.214814457894
677.675666223918
676.031568068748
674.282891742921
672.430648053279
670.476209099873
668.420749433635
666.265219562907
664.010347675005
661.656583123472
659.204390924414
656.654053138726
654.005836239104
651.260084450216
648.417228046003
645.478047406581
642.443563345325
639.314825994439
636.092872906522
632.778665993136
629.373114004318
625.877035477252
622.291195186564
618.616269965357
614.853005873329
611.002289389909
607.064962949792
603.041791065728
598.933497922737
594.740738899409
590.464139433732
586.104263674714
581.661654756074
577.136800826411
572.530176816951
567.842208664596
563.073317279489
558.223988896807
553.29481742163
548.286348339956
543.199124065197
538.033641373701
532.790398613128
527.469850463766
522.072458479911
516.598645236369
511.048844327463
505.423449552273
499.722868473193
493.947469226194
488.097636603462
482.173716370995
476.176073922276
470.105036586865
463.960957396445
457.744236766026
451.455353260317
445.094736749423
438.662843788356
432.16008167324
425.586886773743
418.943645374491
412.230775291148
405.448643091245
398.597649488287
391.678142406282
384.690506719287
377.635072665684
370.512210334218
363.322233160376
356.065497325977
348.742300317265
341.352985135027
333.897834093595
326.377177740743
318.791283717483
311.140470807117
303.424997045367
295.645182150934
287.801285044148
279.893668669295
271.92265694043
263.888646878996
255.791949019916
247.632949641947
239.411944970245
231.129311213839
222.785330747497
214.380370333586
205.914698978417
197.388674567257
188.802553214853
180.156684462714
171.451311918411
162.686777322501
153.863312151386
144.981251014462
136.040813699325
127.042328222199
117.986002985411
108.872159896677
99.7009962556417
90.4728282749056
81.1878426810543
71.8463507004983
62.4485287825455
52.9946835249215
43.484981760094
33.9197263276721
24.29907492277
14.6233277635131
4.89263432846273
)
;

boundaryField
{
    electrode
    {
        type            calculated;
        value           uniform 700.000000000307;
    }
    ground
    {
        type            calculated;
        value           uniform 0;
    }
    otherfaces
    {
        type            empty;
    }
}


// ************************************************************************* //
