/*--------------------------------*- C++ -*----------------------------------*\
| =========                 |                                                 |
| \\      /  F ield         | foam-extend: Open Source CFD                    |
|  \\    /   O peration     | Version:     4.0                                |
|   \\  /    A nd           | Web:         http://www.foam-extend.org         |
|    \\/     M anipulation  |                                                 |
\*---------------------------------------------------------------------------*/
FoamFile
{
    version     2.0;
    format      ascii;
    class       volVectorField;
    location    "4e-10";
    object      E;
}
// * * * * * * * * * * * * * * * * * * * * * * * * * * * * * * * * * * * * * //

dimensions      [0 0 0 1 0 0 0];

internalField   nonuniform List<vector> 
249
(
(-0 9062.28261028544 -0)
(-0 6041.52379491425 -0)
(-0 6041.52378546943 -0)
(-0 6041.52379271153 -0)
(-0 6041.52380079804 -0)
(-0 6041.52380885899 -0)
(-0 6041.52381695572 -0)
(-0 6041.52382504209 -0)
(-0 6041.52383313854 -0)
(-0 6041.52384122629 -0)
(-0 6041.52384938318 -0)
(-0 6041.52385764618 -0)
(-0 6041.5238659257 -0)
(-0 6041.52387426437 -0)
(-0 6041.52388263123 -0)
(-0 6041.52389106282 -0)
(-0 6041.52389949724 -0)
(-0 6041.52390796736 -0)
(-0 6041.52391647622 -0)
(-0 6041.52392496958 -0)
(-0 6041.52393359321 -0)
(-0 6041.52394228536 -0)
(-0 6041.52395097648 -0)
(-0 6041.52395969469 -0)
(-0 6041.52396844275 -0)
(-0 6041.52397726731 -0)
(-0 6041.52398621223 -0)
(-0 6041.52399514848 -0)
(-0 6041.52400404832 -0)
(-0 6041.52401299387 -0)
(-0 6041.52402199297 -0)
(-0 6041.52403098428 -0)
(-0 6041.52403998662 -0)
(-0 6041.52404916599 -0)
(-0 6041.52405842331 -0)
(-0 6041.5240676603 -0)
(-0 6041.5240768986 -0)
(-0 6041.52408620507 -0)
(-0 6041.52409566215 -0)
(-0 6041.524105205 -0)
(-0 6041.52411466119 -0)
(-0 6041.52412408815 -0)
(-0 6041.52413366194 -0)
(-0 6041.52414324544 -0)
(-0 6041.52415277622 -0)
(-0 6041.52416247678 -0)
(-0 6041.52417225901 -0)
(-0 6041.52418203477 -0)
(-0 6041.52419187319 -0)
(-0 6041.52420180011 -0)
(-0 6041.52421178563 -0)
(-0 6041.52422179479 -0)
(-0 6041.52423189081 -0)
(-0 6041.52424212 -0)
(-0 6041.5242524288 -0)
(-0 6041.52426269942 -0)
(-0 6041.52427299183 -0)
(-0 6041.52428330133 -0)
(-0 6041.52429361888 -0)
(-0 6041.52430404433 -0)
(-0 6041.5243145147 -0)
(-0 6041.5243250541 -0)
(-0 6041.52433563876 -0)
(-0 6041.52434628141 -0)
(-0 6041.52435705336 -0)
(-0 6041.52436781498 -0)
(-0 6041.52437856772 -0)
(-0 6041.52438939337 -0)
(-0 6041.52440035579 -0)
(-0 6041.52441141651 -0)
(-0 6041.52442241353 -0)
(-0 6041.52443341543 -0)
(-0 6041.52444458527 -0)
(-0 6041.52445585568 -0)
(-0 6041.52446714139 -0)
(-0 6041.52447845067 -0)
(-0 6041.52448984053 -0)
(-0 6041.524501326 -0)
(-0 6041.5245128467 -0)
(-0 6041.52452439863 -0)
(-0 6041.5245360254 -0)
(-0 6041.52454773387 -0)
(-0 6041.524559481 -0)
(-0 6041.52457126109 -0)
(-0 6041.52458312818 -0)
(-0 6041.52459503853 -0)
(-0 6041.52460701453 -0)
(-0 6041.52461907537 -0)
(-0 6041.52463121466 -0)
(-0 6041.52464343149 -0)
(-0 6041.52465564517 -0)
(-0 6041.52466794927 -0)
(-0 6041.52468036477 -0)
(-0 6041.52469276929 -0)
(-0 6041.52470521975 -0)
(-0 6041.52471774037 -0)
(-0 6041.52473025954 -0)
(-0 6041.52474291024 -0)
(-0 6041.52475564096 -0)
(-0 6041.52476835803 -0)
(-0 6041.52478120994 -0)
(-0 6041.52479417027 -0)
(-0 6041.52480722001 -0)
(-0 6041.5248202783 -0)
(-0 6041.52483332521 -0)
(-0 6041.52484643714 -0)
(-0 6041.52485969297 -0)
(-0 6041.52487302878 -0)
(-0 6041.52488640463 -0)
(-0 6041.52489984095 -0)
(-0 6041.5249132547 -0)
(-0 6041.52492671825 -0)
(-0 6041.52494028049 -0)
(-0 6041.52495388058 -0)
(-0 6041.52496753841 -0)
(-0 6041.52498132733 -0)
(-0 6041.5249952182 -0)
(-0 6041.52500912002 -0)
(-0 6041.52502305839 -0)
(-0 6041.52503716851 -0)
(-0 6041.52505136124 -0)
(-0 6041.52506556998 -0)
(-0 6041.52507982762 -0)
(-0 6041.52509415615 -0)
(-0 6041.52510856123 -0)
(-0 6041.52512304347 -0)
(-0 6041.5251376584 -0)
(-0 6041.52515237111 -0)
(-0 6041.5251671313 -0)
(-0 6041.52518190554 -0)
(-0 6041.52519679406 -0)
(-0 6041.52521178016 -0)
(-0 6041.52522677773 -0)
(-0 6041.52524187727 -0)
(-0 6041.5252570885 -0)
(-0 6041.52527238634 -0)
(-0 6041.52528776122 -0)
(-0 6041.52530320278 -0)
(-0 6041.52531872375 -0)
(-0 6041.52533434079 -0)
(-0 6041.52535006873 -0)
(-0 6041.52536584552 -0)
(-0 6041.52538165135 -0)
(-0 6041.52539756481 -0)
(-0 6041.52541359183 -0)
(-0 6041.52542967277 -0)
(-0 6041.52544581072 -0)
(-0 6041.52546205203 -0)
(-0 6041.52547837617 -0)
(-0 6041.52549479832 -0)
(-0 6041.52551131622 -0)
(-0 6041.52552793108 -0)
(-0 6041.5255446162 -0)
(-0 6041.52556135193 -0)
(-0 6041.52557819729 -0)
(-0 6041.52559513619 -0)
(-0 6041.52561215222 -0)
(-0 6041.52562925619 -0)
(-0 6041.52564650504 -0)
(-0 6041.52566382885 -0)
(-0 6041.52568117934 -0)
(-0 6041.52569865029 -0)
(-0 6041.52571618898 -0)
(-0 6041.52573382639 -0)
(-0 6041.52575157548 -0)
(-0 6041.52576941546 -0)
(-0 6041.52578734621 -0)
(-0 6041.52580535918 -0)
(-0 6041.52582344562 -0)
(-0 6041.52584162629 -0)
(-0 6041.52585995586 -0)
(-0 6041.52587837899 -0)
(-0 6041.52589686925 -0)
(-0 6041.52591545446 -0)
(-0 6041.52593417395 -0)
(-0 6041.52595297146 -0)
(-0 6041.52597184131 -0)
(-0 6041.52599085415 -0)
(-0 6041.52600996396 -0)
(-0 6041.52602912794 -0)
(-0 6041.52604839987 -0)
(-0 6041.52606778003 -0)
(-0 6041.52608726146 -0)
(-0 6041.52610682978 -0)
(-0 6041.52612647311 -0)
(-0 6041.526146234 -0)
(-0 6041.52616612405 -0)
(-0 6041.52618611196 -0)
(-0 6041.52620620938 -0)
(-0 6041.52622638043 -0)
(-0 6041.52624660441 -0)
(-0 6041.52626696932 -0)
(-0 6041.52628745268 -0)
(-0 6041.52630802634 -0)
(-0 6041.52632870196 -0)
(-0 6041.5263494673 -0)
(-0 6041.52637036135 -0)
(-0 6041.52639138969 -0)
(-0 6041.52641251059 -0)
(-0 6041.5264337255 -0)
(-0 6041.52645503099 -0)
(-0 6041.52647645554 -0)
(-0 6041.52649797689 -0)
(-0 6041.52651961091 -0)
(-0 6041.52654138061 -0)
(-0 6041.52656325527 -0)
(-0 6041.52658523894 -0)
(-0 6041.52660733699 -0)
(-0 6041.52662955303 -0)
(-0 6041.52665188054 -0)
(-0 6041.52667430451 -0)
(-0 6041.52669681113 -0)
(-0 6041.52671943324 -0)
(-0 6041.52674219031 -0)
(-0 6041.52676504854 -0)
(-0 6041.52678802087 -0)
(-0 6041.52681110899 -0)
(-0 6041.5268343061 -0)
(-0 6041.52685762081 -0)
(-0 6041.52688105817 -0)
(-0 6041.52690460116 -0)
(-0 6041.52692822757 -0)
(-0 6041.52695198621 -0)
(-0 6041.52697588065 -0)
(-0 6041.52699989789 -0)
(-0 6041.52702402502 -0)
(-0 6041.52704826083 -0)
(-0 6041.52707261238 -0)
(-0 6041.52709708193 -0)
(-0 6041.52712167063 -0)
(-0 6041.52714638303 -0)
(-0 6041.52717121692 -0)
(-0 6041.52719616391 -0)
(-0 6041.52722122389 -0)
(-0 6041.52724641588 -0)
(-0 6041.52727174796 -0)
(-0 6041.52729717959 -0)
(-0 6041.52732271649 -0)
(-0 6041.52734839236 -0)
(-0 6041.52737418869 -0)
(-0 6041.5274001029 -0)
(-0 6041.52742614411 -0)
(-0 6041.52745229178 -0)
(-0 6041.52747856638 -0)
(-0 6041.52750497786 -0)
(-0 6041.52753151004 -0)
(-0 6041.52755816795 -0)
(-0 6041.52758495424 -0)
(-0 6041.53122795158 -0)
)
;

boundaryField
{
    dielectric_2
    {
        type            calculated;
        value           uniform (-0 6041.53485753029 -0);
    }
    dielectric_1
    {
        type            calculated;
        value           nonuniform 0();
    }
    otherfaces
    {
        type            empty;
    }
    procBoundary3to2
    {
        type            processor;
        value           uniform (-0 9062.27953569254 -0);
    }
}


// ************************************************************************* //
