/*--------------------------------*- C++ -*----------------------------------*\
| =========                 |                                                 |
| \\      /  F ield         | foam-extend: Open Source CFD                    |
|  \\    /   O peration     | Version:     4.0                                |
|   \\  /    A nd           | Web:         http://www.foam-extend.org         |
|    \\/     M anipulation  |                                                 |
\*---------------------------------------------------------------------------*/
FoamFile
{
    version     2.0;
    format      ascii;
    class       volScalarField;
    location    "2.5e-06";
    object      Ar;
}
// * * * * * * * * * * * * * * * * * * * * * * * * * * * * * * * * * * * * * //

dimensions      [0 0 0 1 0 0 0];

internalField   nonuniform List<scalar> 
300
(
3.21880343244727e+22
3.21880342943042e+22
3.21880343158826e+22
3.21880343312245e+22
3.21880343519999e+22
3.21880343802699e+22
3.21880344150452e+22
3.21880344563671e+22
3.21880345042533e+22
3.21880345586525e+22
3.21880346195353e+22
3.21880346868737e+22
3.21880347606388e+22
3.21880348408017e+22
3.21880349273335e+22
3.21880350202043e+22
3.2188035119387e+22
3.21880352248491e+22
3.21880353365568e+22
3.21880354544772e+22
3.21880355785762e+22
3.21880357088187e+22
3.21880358451686e+22
3.21880359875891e+22
3.21880361360582e+22
3.21880362905243e+22
3.21880364509492e+22
3.21880366172951e+22
3.21880367895117e+22
3.21880369675569e+22
3.21880371514061e+22
3.2188037341009e+22
3.21880375363078e+22
3.21880377372571e+22
3.21880379438109e+22
3.21880381559235e+22
3.21880383735531e+22
3.21880385966516e+22
3.21880388251698e+22
3.21880390590623e+22
3.21880392982834e+22
3.2188039542786e+22
3.21880397925245e+22
3.21880400474537e+22
3.21880403075289e+22
3.21880405727064e+22
3.21880408429452e+22
3.21880411182045e+22
3.21880413984537e+22
3.21880416836565e+22
3.21880419737892e+22
3.21880422688038e+22
3.21880425686718e+22
3.21880428733427e+22
3.21880431827774e+22
3.21880434969299e+22
3.21880438157695e+22
3.21880441392673e+22
3.21880444673972e+22
3.21880448001372e+22
3.21880451374638e+22
3.21880454793581e+22
3.21880458258092e+22
3.21880461768238e+22
3.21880465323891e+22
3.2188046892474e+22
3.21880472570737e+22
3.21880476261873e+22
3.21880479998172e+22
3.21880483779697e+22
3.21880487606569e+22
3.2188049147901e+22
3.21880495397226e+22
3.21880499361372e+22
3.21880503371856e+22
3.21880507428981e+22
3.21880511533044e+22
3.2188051568449e+22
3.2188051988357e+22
3.21880524131088e+22
3.21880528427245e+22
3.21880532772617e+22
3.21880537167883e+22
3.21880541613719e+22
3.21880546111027e+22
3.21880550660535e+22
3.21880555262985e+22
3.21880559919291e+22
3.21880564630543e+22
3.21880569397691e+22
3.2188057422188e+22
3.21880579104704e+22
3.2188058404681e+22
3.21880589049441e+22
3.21880594113914e+22
3.21880599241605e+22
3.21880604433952e+22
3.21880609692453e+22
3.2188061501877e+22
3.21880620414516e+22
3.21880625881296e+22
3.21880631420826e+22
3.21880637035208e+22
3.21880642725992e+22
3.21880648495165e+22
3.21880654344775e+22
3.21880660276675e+22
3.21880666293123e+22
3.21880672396121e+22
3.21880678587777e+22
3.21880684870317e+22
3.21880691246019e+22
3.21880697717259e+22
3.21880704286401e+22
3.2188071095585e+22
3.21880717728203e+22
3.21880724606105e+22
3.21880731591794e+22
3.2188073868778e+22
3.21880745896688e+22
3.21880753221351e+22
3.21880760664223e+22
3.218807682282e+22
3.21880775915793e+22
3.21880783729508e+22
3.21880791671996e+22
3.21880799746165e+22
3.21880807954457e+22
3.21880816299592e+22
3.21880824784182e+22
3.21880833410957e+22
3.21880842182498e+22
3.21880851101367e+22
3.21880860170296e+22
3.21880869392075e+22
3.21880878768887e+22
3.21880888303004e+22
3.21880897996921e+22
3.21880907852993e+22
3.21880917873211e+22
3.21880928059724e+22
3.21880938414582e+22
3.2188094893988e+22
3.21880959637584e+22
3.2188097050945e+22
3.21880981556636e+22
3.21880992780484e+22
3.21881004182167e+22
3.218810157628e+22
3.21881027523458e+22
3.21881039464353e+22
3.21881051585795e+22
3.21881063888155e+22
3.2188107637084e+22
3.21881089033024e+22
3.2188110187373e+22
3.21881114891379e+22
3.21881128083335e+22
3.21881141446368e+22
3.21881154976677e+22
3.21881168669771e+22
3.2188118251853e+22
3.21881196511909e+22
3.21881210679974e+22
3.21881224876739e+22
3.21881239094833e+22
3.21881253465923e+22
3.21881267939867e+22
3.21881282440393e+22
3.21881296946645e+22
3.21881311317358e+22
3.21881325699079e+22
3.21881340254544e+22
3.21881354358727e+22
3.21881368224478e+22
3.21881382274119e+22
3.21881395537439e+22
3.21881408451794e+22
3.2188142088588e+22
3.21881432361731e+22
3.21881443459628e+22
3.21881453502096e+22
3.21881462304089e+22
3.21881470853511e+22
3.21881477925659e+22
3.21881483981531e+22
3.21881489457759e+22
3.21881494088739e+22
3.2188149773571e+22
3.218815007e+22
3.21881503519739e+22
3.21881505817381e+22
3.21881507627787e+22
3.21881508975117e+22
3.21881509576453e+22
3.21881509644761e+22
3.21881509380006e+22
3.2188150926096e+22
3.21881509408094e+22
3.21881509664955e+22
3.21881510013881e+22
3.21881510446255e+22
3.21881511096061e+22
3.2188151171166e+22
3.21881512264219e+22
3.2188151275658e+22
3.21881513194517e+22
3.21881513581117e+22
3.21881513915138e+22
3.21881514207188e+22
3.21881514460193e+22
3.2188151479791e+22
3.21881515176455e+22
3.21881515528195e+22
3.2188151584839e+22
3.21881516146798e+22
3.21881516417354e+22
3.21881516668954e+22
3.21881516894492e+22
3.21881517105511e+22
3.21881517292454e+22
3.21881517470047e+22
3.21881517626021e+22
3.21881517777123e+22
3.21881517976043e+22
3.21881518238191e+22
3.21881518481488e+22
3.21881518722513e+22
3.21881518945085e+22
3.21881519166863e+22
3.21881519368642e+22
3.21881519571826e+22
3.21881519754733e+22
3.21881519940065e+22
3.21881520106794e+22
3.21881520276354e+22
3.21881520427552e+22
3.21881520583676e+22
3.21881520718236e+22
3.21881520861285e+22
3.21881520980554e+22
3.21881521110036e+22
3.21881521252119e+22
3.21881521459238e+22
3.21881521641966e+22
3.21881521835738e+22
3.21881522004367e+22
3.21881522186771e+22
3.21881522341086e+22
3.21881522512982e+22
3.21881522654244e+22
3.21881522815953e+22
3.21881522945307e+22
3.21881523097401e+22
3.2188152321653e+22
3.21881523360158e+22
3.21881523470298e+22
3.21881523605933e+22
3.21881523707474e+22
3.21881523835329e+22
3.21881523928127e+22
3.21881524049095e+22
3.21881524132849e+22
3.21881524247137e+22
3.21881524322724e+22
3.21881524429366e+22
3.21881524498156e+22
3.21881524609574e+22
3.21881524732653e+22
3.21881524884987e+22
3.21881524999991e+22
3.21881525145016e+22
3.21881525252199e+22
3.21881525391203e+22
3.21881525491259e+22
3.21881525626719e+22
3.21881525721038e+22
3.21881525852801e+22
3.21881525942286e+22
3.21881526069471e+22
3.21881526154119e+22
3.21881526275959e+22
3.21881526356442e+22
3.2188152647342e+22
3.21881526548515e+22
3.21881526659384e+22
3.21881526728418e+22
3.2188152683274e+22
3.21881526896098e+22
3.218815269962e+22
3.21881527057015e+22
3.2188152715407e+22
3.21881527212193e+22
3.21881527308773e+22
3.21881527366941e+22
3.21881527463363e+22
3.21881527521147e+22
3.21881527619142e+22
3.21881527676696e+22
3.21881527798014e+22
)
;

boundaryField
{
    electrode
    {
        type            zeroGradient;
    }
    ground
    {
        type            zeroGradient;
    }
    otherfaces
    {
        type            empty;
    }
}


// ************************************************************************* //
