/*--------------------------------*- C++ -*----------------------------------*\
| =========                 |                                                 |
| \\      /  F ield         | foam-extend: Open Source CFD                    |
|  \\    /   O peration     | Version:     4.0                                |
|   \\  /    A nd           | Web:         http://www.foam-extend.org         |
|    \\/     M anipulation  |                                                 |
\*---------------------------------------------------------------------------*/
FoamFile
{
    version     2.0;
    format      ascii;
    class       volScalarField;
    location    "2.5e-06";
    object      Arm;
}
// * * * * * * * * * * * * * * * * * * * * * * * * * * * * * * * * * * * * * //

dimensions      [0 0 0 1 0 0 0];

internalField   nonuniform List<scalar> 
300
(
3.57415353406731e+15
3.57603252328797e+15
3.57798200704467e+15
3.57928783817716e+15
3.5801040104272e+15
3.58048248979728e+15
3.58046748877577e+15
3.58009043814563e+15
3.57937699408994e+15
3.57834914374721e+15
3.5770226560622e+15
3.57541161759294e+15
3.57352808099243e+15
3.5713826485839e+15
3.56898477715458e+15
3.56634301503435e+15
3.56346217636431e+15
3.56035085279867e+15
3.5570173878718e+15
3.55346825917318e+15
3.54970966816909e+15
3.54574753656928e+15
3.54158755439865e+15
3.53723518848546e+15
3.53267970884066e+15
3.52793890510533e+15
3.52301646551287e+15
3.51791438920951e+15
3.51264629377514e+15
3.50721707260692e+15
3.50161291303786e+15
3.4958452121092e+15
3.48993210051458e+15
3.48387894614166e+15
3.47769083525541e+15
3.47137257479278e+15
3.46492432513558e+15
3.45835260967639e+15
3.45166450250864e+15
3.44486353475074e+15
3.43795320788327e+15
3.43093880206765e+15
3.42382419673274e+15
3.41661308350817e+15
3.40930896265411e+15
3.40191510047087e+15
3.39443243813161e+15
3.38686243588258e+15
3.37919731106025e+15
3.37143567528659e+15
3.3635648803144e+15
3.35559748466203e+15
3.34752804414892e+15
3.33937431850068e+15
3.33114441902379e+15
3.32285474320608e+15
3.31450857624363e+15
3.30610883428998e+15
3.29765809165668e+15
3.28915675879206e+15
3.28060915875338e+15
3.27201740671604e+15
3.26337816911821e+15
3.25467343713954e+15
3.24590718949169e+15
3.23710506872044e+15
3.2282691390791e+15
3.21940124032727e+15
3.21050295827678e+15
3.2015756549723e+15
3.19261849004443e+15
3.18362429716173e+15
3.17459153517367e+15
3.16552768804409e+15
3.15641916791307e+15
3.14726704538583e+15
3.13807768412584e+15
3.12884690980663e+15
3.11959479782169e+15
3.11029063950983e+15
3.1009691469781e+15
3.09163241153464e+15
3.08227733552402e+15
3.07290620828516e+15
3.06350415929438e+15
3.05407895434256e+15
3.04464231879594e+15
3.03519457406934e+15
3.02572376851855e+15
3.01623769949084e+15
3.00673038472487e+15
2.99715658944374e+15
2.98757178530389e+15
2.97797754355429e+15
2.96837389112e+15
2.9587608544287e+15
2.94913821514157e+15
2.93950555392819e+15
2.92985190699077e+15
2.92017721913547e+15
2.9104877681562e+15
2.90078487021034e+15
2.89103663808029e+15
2.88127242791813e+15
2.87148297059003e+15
2.86165888914657e+15
2.85181528352414e+15
2.84193245638665e+15
2.83202087766427e+15
2.82208600209464e+15
2.81212595059468e+15
2.8021384432139e+15
2.79211572509703e+15
2.78205559117882e+15
2.77195584086574e+15
2.76179880344759e+15
2.75156553377687e+15
2.74128091982356e+15
2.73094581539612e+15
2.72055215295856e+15
2.71007346879998e+15
2.69952283115807e+15
2.68887114545211e+15
2.67812885589858e+15
2.66730741260256e+15
2.6564046307823e+15
2.64539230588517e+15
2.63428796911211e+15
2.623080744482e+15
2.61176862006183e+15
2.60033591953859e+15
2.58877878969455e+15
2.57709225854124e+15
2.56525022508897e+15
2.55321613984554e+15
2.54100894936898e+15
2.52863259520702e+15
2.5160619884844e+15
2.50327824252384e+15
2.49029054742654e+15
2.47708288447011e+15
2.46363861772987e+15
2.44992558180487e+15
2.43591166828639e+15
2.4215722163209e+15
2.40692712873954e+15
2.3919614951026e+15
2.37665896792723e+15
2.36098901529418e+15
2.34490264359165e+15
2.32841241027579e+15
2.3114935675146e+15
2.29408371944822e+15
2.27618177969402e+15
2.25776951042331e+15
2.23879713306795e+15
2.21922135001533e+15
2.19904168915811e+15
2.17823901424472e+15
2.15676831937521e+15
2.13459398368803e+15
2.11170097261644e+15
2.08805093755383e+15
2.06365652101334e+15
2.03850474910552e+15
2.01254090071983e+15
1.9857858641083e+15
1.95828425929044e+15
1.93006501703136e+15
1.90117008892101e+15
1.87166815737296e+15
1.84159242696261e+15
1.81103525473307e+15
1.78016822570328e+15
1.74918534815543e+15
1.71825642682074e+15
1.68756063510038e+15
1.65729694580565e+15
1.62770431974841e+15
1.59893821703314e+15
1.57115291510016e+15
1.54449551986351e+15
1.5190472515514e+15
1.49492305314146e+15
1.4721226627222e+15
1.45055539771105e+15
1.43026092049538e+15
1.41118753742947e+15
1.39324621167725e+15
1.37634759747473e+15
1.36036978259943e+15
1.34526568902973e+15
1.33106168822286e+15
1.3202606107688e+15
1.33171885684525e+15
1.36809286186292e+15
1.40227714797558e+15
1.41082817894658e+15
1.40260622354624e+15
1.38693086478089e+15
1.36795040176601e+15
1.34963552824961e+15
1.33409394743264e+15
1.32168229899197e+15
1.31184345600849e+15
1.30408566026334e+15
1.29717218958679e+15
1.29133539435733e+15
1.28629493343081e+15
1.28168744006605e+15
1.27691624017561e+15
1.27208911448917e+15
1.26735597666538e+15
1.26262412262685e+15
1.25788222452451e+15
1.25308540033108e+15
1.24819613000718e+15
1.24323802016856e+15
1.23819216096103e+15
1.23305845399149e+15
1.22785387409274e+15
1.22257265832543e+15
1.21722429711064e+15
1.21175101389839e+15
1.206150555969e+15
1.2005450639765e+15
1.19496001973523e+15
1.18939795884313e+15
1.18387556642031e+15
1.17841438916223e+15
1.17301250304221e+15
1.16768327541e+15
1.16244443830902e+15
1.15729647216694e+15
1.15224295558068e+15
1.14730382872896e+15
1.14246556976753e+15
1.13774898756545e+15
1.13314378795515e+15
1.12866090660678e+15
1.12430060439883e+15
1.1200544321369e+15
1.1159362023608e+15
1.11193035344968e+15
1.10804129839887e+15
1.10428245121369e+15
1.10063757002685e+15
1.09711182743258e+15
1.09370519114026e+15
1.09040726864197e+15
1.08722271566023e+15
1.08414504209157e+15
1.08116928321134e+15
1.07829875584455e+15
1.07552518889239e+15
1.07284640468693e+15
1.07026153783197e+15
1.06775563926355e+15
1.06533831837472e+15
1.06300243796187e+15
1.06075466147201e+15
1.05858332129757e+15
1.05649234212918e+15
1.05447457467762e+15
1.05252895686377e+15
1.05065295767786e+15
1.04884054898263e+15
1.04709037933848e+15
1.04539330054168e+15
1.04375672735184e+15
1.0421743490354e+15
1.04065288823386e+15
1.0391804249722e+15
1.03776386128329e+15
1.03639210004141e+15
1.03506464726836e+15
1.03378063036968e+15
1.03254082426263e+15
1.03134790052972e+15
1.03019606182291e+15
1.02908470157828e+15
1.02800489448046e+15
1.02689675094933e+15
1.02579819917132e+15
1.02473629273766e+15
1.02370097528294e+15
1.02269905165327e+15
1.02173081733278e+15
1.02078899683736e+15
1.01976768498047e+15
1.01872839830428e+15
1.0177192233122e+15
1.01673985169077e+15
1.01562797511758e+15
1.01450304326721e+15
1.01334305987035e+15
1.01202428012566e+15
1.01057560792461e+15
1.0089174732479e+15
1.00690917980948e+15
)
;

boundaryField
{
    electrode
    {
        type            zeroGradient;
    }
    ground
    {
        type            zeroGradient;
    }
    otherfaces
    {
        type            empty;
    }
}


// ************************************************************************* //
