/*--------------------------------*- C++ -*----------------------------------*\
| =========                 |                                                 |
| \\      /  F ield         | foam-extend: Open Source CFD                    |
|  \\    /   O peration     | Version:     4.0                                |
|   \\  /    A nd           | Web:         http://www.foam-extend.org         |
|    \\/     M anipulation  |                                                 |
\*---------------------------------------------------------------------------*/
FoamFile
{
    version     2.0;
    format      ascii;
    class       volScalarField;
    location    "2.5e-06";
    object      Arp1;
}
// * * * * * * * * * * * * * * * * * * * * * * * * * * * * * * * * * * * * * //

dimensions      [0 0 0 1 0 0 0];

internalField   nonuniform List<scalar> 
300
(
5.95366601737333e+16
5.95670029684231e+16
5.95483401700324e+16
5.95397097043429e+16
5.95292534843537e+16
5.95148554482138e+16
5.94974611523039e+16
5.94769927691367e+16
5.9453401768791e+16
5.94267113443879e+16
5.93969285146901e+16
5.93640595048456e+16
5.93281129131606e+16
5.92890978857306e+16
5.9247024226667e+16
5.92019024976968e+16
5.91537439738176e+16
5.91025606252834e+16
5.90483651050746e+16
5.89911707316245e+16
5.89309914701331e+16
5.88678419137766e+16
5.88017372630564e+16
5.8732693303683e+16
5.86607263838124e+16
5.85858533897788e+16
5.8508091719953e+16
5.8427459258072e+16
5.83439743447288e+16
5.82576557475693e+16
5.81685226300523e+16
5.80765945191378e+16
5.79818912710524e+16
5.78844330359422e+16
5.77842402212334e+16
5.76813334530823e+16
5.75757335370206e+16
5.74674614168149e+16
5.73565381315727e+16
5.72429847722827e+16
5.71268224365707e+16
5.70080721814123e+16
5.68867549755432e+16
5.67628916500903e+16
5.66365028473778e+16
5.65076089693182e+16
5.63762301241572e+16
5.62423860712278e+16
5.61060961659514e+16
5.59673793029622e+16
5.58262538571674e+16
5.56827376255802e+16
5.55368477669078e+16
5.53886007402105e+16
5.52380122431166e+16
5.50850971488342e+16
5.49298694426572e+16
5.47723421573146e+16
5.46125273081686e+16
5.44504358273019e+16
5.42860774975799e+16
5.41194608862556e+16
5.39505932775564e+16
5.37794806058628e+16
5.36061273886878e+16
5.34305366585892e+16
5.32527098960815e+16
5.30726469630931e+16
5.28903460350429e+16
5.27058035343017e+16
5.25190140649759e+16
5.23299703462697e+16
5.21386631477878e+16
5.19450812262633e+16
5.17492112614275e+16
5.1551037794261e+16
5.13505431667635e+16
5.11477074618682e+16
5.09425084453489e+16
5.0734921510209e+16
5.05249196216289e+16
5.03124732641142e+16
5.00975503918439e+16
4.98801163798696e+16
4.96601339779377e+16
4.94375632681428e+16
4.92123616240806e+16
4.89844836728642e+16
4.87538812613902e+16
4.85205034249844e+16
4.82842963593612e+16
4.80452033970738e+16
4.78031649874435e+16
4.75581186798954e+16
4.73099991125964e+16
4.70587380049194e+16
4.68042641545075e+16
4.65465034394671e+16
4.62853788256721e+16
4.60208103788484e+16
4.57527152824864e+16
4.54810078620158e+16
4.52055996136312e+16
4.49263992402575e+16
4.46433126940447e+16
4.4356243224483e+16
4.40650914343628e+16
4.37697553425293e+16
4.34701304535265e+16
4.31661098359996e+16
4.28575842076291e+16
4.25444420285939e+16
4.22265696047397e+16
4.19038511972681e+16
4.15761691426457e+16
4.12434039823499e+16
4.09054346002918e+16
4.05621383721479e+16
4.02133913242177e+16
3.98590683014757e+16
3.94990431492812e+16
3.91331889048632e+16
3.87613779996021e+16
3.83834824763293e+16
3.79993742178019e+16
3.76089251877076e+16
3.72120076882772e+16
3.6808494630889e+16
3.63982598223155e+16
3.59811782692286e+16
3.55571264987059e+16
3.51259828990303e+16
3.46876280812146e+16
3.42419452621207e+16
3.3788820673762e+16
3.33281439995571e+16
3.28598088404405e+16
3.23837132171681e+16
3.18997601110968e+16
3.14078580497254e+16
3.090792174557e+16
3.03998727948864e+16
2.98836404488062e+16
2.93591624694765e+16
2.88263860869536e+16
2.8285269078407e+16
2.77357809953297e+16
2.71779045695061e+16
2.66116373379296e+16
2.60369935380976e+16
2.54540063351802e+16
2.48627304603317e+16
2.42632453690755e+16
2.36556590020495e+16
2.30401124237469e+16
2.24167853768781e+16
2.17859029337336e+16
2.11477433293021e+16
2.05026522947332e+16
1.98510461498739e+16
1.91933867172474e+16
1.85303620887806e+16
1.78630646526301e+16
1.71884105535343e+16
1.65210188945959e+16
1.58619202546564e+16
1.51983172817964e+16
1.45354609173961e+16
1.38810346834361e+16
1.32369992492672e+16
1.26171403877822e+16
1.2006100592076e+16
1.1385950787415e+16
1.0816386795614e+16
1.02723475155113e+16
9.7064579303337e+15
9.20899798526967e+15
8.72829094486562e+15
8.26845207495188e+15
7.86769759482232e+15
7.45839125374224e+15
7.09930921986208e+15
6.80164791878842e+15
6.46157430856707e+15
6.19939948017402e+15
5.96974437688102e+15
5.73209853468928e+15
5.51849591462252e+15
5.34999447914573e+15
5.20478482778383e+15
5.03739952328603e+15
4.89327690832035e+15
4.77577959681028e+15
4.68566411489314e+15
4.63822031177723e+15
4.61228632677031e+15
4.61667583680167e+15
4.62842029926798e+15
4.62724759634438e+15
4.62036594239576e+15
4.60621853756885e+15
4.58228771588524e+15
4.53341605886474e+15
4.4846008262549e+15
4.43938334882913e+15
4.39802605058245e+15
4.36121905343934e+15
4.32843979484985e+15
4.30010385651402e+15
4.27552086110606e+15
4.25499950027834e+15
4.22605932922178e+15
4.19294107275635e+15
4.16250201558459e+15
4.13522850025199e+15
4.1101900794906e+15
4.08803115154446e+15
4.0678387975412e+15
4.05034261182338e+15
4.03438830801402e+15
4.02091464020337e+15
4.00845458326606e+15
3.99822550698349e+15
3.9886103672607e+15
3.97434221797154e+15
3.95375771593531e+15
3.93503893344443e+15
3.91652540558579e+15
3.89981831301904e+15
3.88313004798623e+15
3.86838273323279e+15
3.85342258456276e+15
3.84039983302726e+15
3.82704380193559e+15
3.81545339498639e+15
3.80346525502592e+15
3.79321215986878e+15
3.78234436352551e+15
3.77352113535609e+15
3.76372620498958e+15
3.75618601674025e+15
3.74750984549349e+15
3.73744490366665e+15
3.72076336242175e+15
3.7064034440108e+15
3.6908082135031e+15
3.67761257014452e+15
3.66291958986087e+15
3.65091570346581e+15
3.63704428334144e+15
3.62612220486992e+15
3.61304787649714e+15
3.6031065633012e+15
3.59078530028092e+15
3.58166292760918e+15
3.56999530009984e+15
3.56158198009828e+15
3.55053957973769e+15
3.54281741456484e+15
3.53238198996664e+15
3.52536354536334e+15
3.51545124151342e+15
3.50917938069055e+15
3.49978051984827e+15
3.49417921557371e+15
3.48540222778663e+15
3.48034661326588e+15
3.47096542069831e+15
3.46036482600798e+15
3.44677774465921e+15
3.43686924145556e+15
3.42389734260424e+15
3.41466034748424e+15
3.40218503162796e+15
3.39355946932889e+15
3.38134891089703e+15
3.37320868923888e+15
3.36127975954702e+15
3.35353130291137e+15
3.34197168618928e+15
3.33462488292497e+15
3.32352721941966e+15
3.31659326858381e+15
3.30600005548908e+15
3.29955839006272e+15
3.28951251184827e+15
3.28361660778506e+15
3.27415789845486e+15
3.26876900721129e+15
3.25978512666563e+15
3.25474756947082e+15
3.24605581772113e+15
3.24122722196541e+15
3.23268516879147e+15
3.2279971280045e+15
3.2195183050109e+15
3.215061638384e+15
3.20671298482281e+15
3.20261660777379e+15
3.1924918787408e+15
)
;

boundaryField
{
    electrode
    {
        type            driftDiffusionPositiveIonDensity;
        seec            0;
        fieldName       Arp1;
        value           uniform 5.94216952237679e+16;
    }
    ground
    {
        type            driftDiffusionPositiveIonDensity;
        seec            0;
        fieldName       Arp1;
        value           uniform 3.1924918787408e+15;
    }
    otherfaces
    {
        type            empty;
    }
}


// ************************************************************************* //
