/*--------------------------------*- C++ -*----------------------------------*\
| =========                 |                                                 |
| \\      /  F ield         | foam-extend: Open Source CFD                    |
|  \\    /   O peration     | Version:     4.0                                |
|   \\  /    A nd           | Web:         http://www.foam-extend.org         |
|    \\/     M anipulation  |                                                 |
\*---------------------------------------------------------------------------*/
FoamFile
{
    version     2.0;
    format      ascii;
    class       volVectorField;
    location    "2.5e-06";
    object      J_Arp1;
}
// * * * * * * * * * * * * * * * * * * * * * * * * * * * * * * * * * * * * * //

dimensions      [1 -1 -1 0 0 0 0];

internalField   nonuniform List<vector> 
300
(
(1.72033277200906e+16 -0 -0)
(5.76118664111417e+16 -0 -0)
(1.00915640673117e+17 -0 -0)
(1.40871438137041e+17 -0 -0)
(1.80808031646993e+17 -0 -0)
(2.20910501678744e+17 -0 -0)
(2.60912080559355e+17 -0 -0)
(3.00833444525081e+17 -0 -0)
(3.40675940342577e+17 -0 -0)
(3.80424697301746e+17 -0 -0)
(4.20070024235654e+17 -0 -0)
(4.59602509733349e+17 -0 -0)
(4.99012473511772e+17 -0 -0)
(5.38290461301387e+17 -0 -0)
(5.77427201380772e+17 -0 -0)
(6.16413591883286e+17 -0 -0)
(6.5524072324748e+17 -0 -0)
(6.93899892502627e+17 -0 -0)
(7.32382617026767e+17 -0 -0)
(7.70680648566287e+17 -0 -0)
(8.0878598920149e+17 -0 -0)
(8.4669090595076e+17 -0 -0)
(8.84387947035304e+17 -0 -0)
(9.21869957339221e+17 -0 -0)
(9.59130095365676e+17 -0 -0)
(9.96161849385534e+17 -0 -0)
(1.03295905426576e+18 -0 -0)
(1.06951590895487e+18 -0 -0)
(1.10582699303748e+18 -0 -0)
(1.14188728495074e+18 -0 -0)
(1.17769217877171e+18 -0 -0)
(1.21323750264278e+18 -0 -0)
(1.24851953588618e+18 -0 -0)
(1.28353502732924e+18 -0 -0)
(1.31828121283585e+18 -0 -0)
(1.35275583340072e+18 -0 -0)
(1.38695715280805e+18 -0 -0)
(1.42088397554593e+18 -0 -0)
(1.45453566425462e+18 -0 -0)
(1.48791215753511e+18 -0 -0)
(1.52101398703512e+18 -0 -0)
(1.55384229454577e+18 -0 -0)
(1.58639884918522e+18 -0 -0)
(1.6186860637641e+18 -0 -0)
(1.65070701097196e+18 -0 -0)
(1.68246543947772e+18 -0 -0)
(1.71396578930158e+18 -0 -0)
(1.74521320675567e+18 -0 -0)
(1.7762135590713e+18 -0 -0)
(1.80697344823565e+18 -0 -0)
(1.83750022459234e+18 -0 -0)
(1.86780199937336e+18 -0 -0)
(1.89788765688371e+18 -0 -0)
(1.92776686586299e+18 -0 -0)
(1.95745009030362e+18 -0 -0)
(1.98694859877669e+18 -0 -0)
(2.01627447365358e+18 -0 -0)
(2.04544061929256e+18 -0 -0)
(2.07446076884474e+18 -0 -0)
(2.10334949044998e+18 -0 -0)
(2.13212219226289e+18 -0 -0)
(2.16079512653542e+18 -0 -0)
(2.18938539232756e+18 -0 -0)
(2.21791093698271e+18 -0 -0)
(2.24639055686013e+18 -0 -0)
(2.27484389619688e+18 -0 -0)
(2.30329144494335e+18 -0 -0)
(2.33175453497836e+18 -0 -0)
(2.36025533553584e+18 -0 -0)
(2.38881684602141e+18 -0 -0)
(2.41746288833876e+18 -0 -0)
(2.44621809702921e+18 -0 -0)
(2.47510790793649e+18 -0 -0)
(2.50415854530145e+18 -0 -0)
(2.53339700672006e+18 -0 -0)
(2.56285104674953e+18 -0 -0)
(2.59254915832333e+18 -0 -0)
(2.62252055244496e+18 -0 -0)
(2.65279513576753e+18 -0 -0)
(2.68340348628963e+18 -0 -0)
(2.71437682669781e+18 -0 -0)
(2.74574699600709e+18 -0 -0)
(2.77754641853903e+18 -0 -0)
(2.80980807111535e+18 -0 -0)
(2.84256544756256e+18 -0 -0)
(2.87585252102493e+18 -0 -0)
(2.90970370384143e+18 -0 -0)
(2.94415380521883e+18 -0 -0)
(2.97923798584872e+18 -0 -0)
(3.01499171051859e+18 -0 -0)
(3.05145069770287e+18 -0 -0)
(3.08865086673387e+18 -0 -0)
(3.12662828201643e+18 -0 -0)
(3.16541909492906e+18 -0 -0)
(3.20505948230406e+18 -0 -0)
(3.2455855825221e+18 -0 -0)
(3.28703342862678e+18 -0 -0)
(3.32943887804214e+18 -0 -0)
(3.37283754013958e+18 -0 -0)
(3.41726470003954e+18 -0 -0)
(3.46275523970822e+18 -0 -0)
(3.50934355558949e+18 -0 -0)
(3.55706347391994e+18 -0 -0)
(3.60594816195058e+18 -0 -0)
(3.65603003625077e+18 -0 -0)
(3.70734066835917e+18 -0 -0)
(3.75991068658985e+18 -0 -0)
(3.81376967455283e+18 -0 -0)
(3.86894606687004e+18 -0 -0)
(3.92546704134e+18 -0 -0)
(3.98335840808259e+18 -0 -0)
(4.04264449475902e+18 -0 -0)
(4.10334802963373e+18 -0 -0)
(4.16549002043332e+18 -0 -0)
(4.2290896304667e+18 -0 -0)
(4.29416405175458e+18 -0 -0)
(4.36072837448957e+18 -0 -0)
(4.42879545399418e+18 -0 -0)
(4.49837577441652e+18 -0 -0)
(4.56947730964847e+18 -0 -0)
(4.64210538110729e+18 -0 -0)
(4.71626251351644e+18 -0 -0)
(4.79194828718581e+18 -0 -0)
(4.86915918853657e+18 -0 -0)
(4.9478884582896e+18 -0 -0)
(5.02812593689022e+18 -0 -0)
(5.10985790874271e+18 -0 -0)
(5.19306694454418e+18 -0 -0)
(5.27773174154038e+18 -0 -0)
(5.36382696335614e+18 -0 -0)
(5.45132307830176e+18 -0 -0)
(5.54018619696307e+18 -0 -0)
(5.6303779099356e+18 -0 -0)
(5.72185512455619e+18 -0 -0)
(5.81456990261484e+18 -0 -0)
(5.90846929858661e+18 -0 -0)
(6.00349519837653e+18 -0 -0)
(6.0995841596695e+18 -0 -0)
(6.19666725411356e+18 -0 -0)
(6.29466991088628e+18 -0 -0)
(6.39351176340479e+18 -0 -0)
(6.49310649791733e+18 -0 -0)
(6.59336170516088e+18 -0 -0)
(6.69417873545985e+18 -0 -0)
(6.79545255653235e+18 -0 -0)
(6.89707161459011e+18 -0 -0)
(6.99891769857792e+18 -0 -0)
(7.10086580804335e+18 -0 -0)
(7.20278402303622e+18 -0 -0)
(7.30453337689787e+18 -0 -0)
(7.40596773130043e+18 -0 -0)
(7.50693365279244e+18 -0 -0)
(7.60727029538177e+18 -0 -0)
(7.70680926922693e+18 -0 -0)
(7.80537454752406e+18 -0 -0)
(7.90278236955072e+18 -0 -0)
(7.99884106583478e+18 -0 -0)
(8.09335067907597e+18 -0 -0)
(8.18610568204475e+18 -0 -0)
(8.27689202090374e+18 -0 -0)
(8.36546017842863e+18 -0 -0)
(8.45163630634945e+18 -0 -0)
(8.5355413417526e+18 -0 -0)
(8.61444215655588e+18 -0 -0)
(8.69422221235511e+18 -0 -0)
(8.76409610560102e+18 -0 -0)
(8.83222306570454e+18 -0 -0)
(8.89698070276919e+18 -0 -0)
(8.95922367088581e+18 -0 -0)
(9.01300860844898e+18 -0 -0)
(9.06887774785357e+18 -0 -0)
(9.10913733568937e+18 -0 -0)
(9.15219045978766e+18 -0 -0)
(9.20062587434293e+18 -0 -0)
(9.22524106752722e+18 -0 -0)
(9.26096694922424e+18 -0 -0)
(9.29026264927747e+18 -0 -0)
(9.30577038714435e+18 -0 -0)
(9.33999650231073e+18 -0 -0)
(9.35120950476506e+18 -0 -0)
(9.3666646033014e+18 -0 -0)
(9.38544211919137e+18 -0 -0)
(9.39283348817165e+18 -0 -0)
(9.39315359427487e+18 -0 -0)
(9.4173099356638e+18 -0 -0)
(9.40995787757168e+18 -0 -0)
(9.42488059389258e+18 -0 -0)
(9.42437187956589e+18 -0 -0)
(9.43643955783971e+18 -0 -0)
(9.4350556416252e+18 -0 -0)
(9.44337100993009e+18 -0 -0)
(9.44619323593616e+18 -0 -0)
(9.45810336524742e+18 -0 -0)
(9.48838023794001e+18 -0 -0)
(9.57560282854261e+18 -0 -0)
(9.75148940959713e+18 -0 -0)
(9.98796331010248e+18 -0 -0)
(1.0227883477373e+19 -0 -0)
(1.04255040113567e+19 -0 -0)
(1.05950459472633e+19 -0 -0)
(1.07320689716574e+19 -0 -0)
(1.0829877810504e+19 -0 -0)
(1.09196277223948e+19 -0 -0)
(1.09950521558232e+19 -0 -0)
(1.1064155101046e+19 -0 -0)
(1.11288239636756e+19 -0 -0)
(1.1191976556732e+19 -0 -0)
(1.12533664301748e+19 -0 -0)
(1.13150405632668e+19 -0 -0)
(1.13760536617656e+19 -0 -0)
(1.14380859351006e+19 -0 -0)
(1.1499253965456e+19 -0 -0)
(1.15617883877428e+19 -0 -0)
(1.16231395217464e+19 -0 -0)
(1.16853829816189e+19 -0 -0)
(1.17464805770382e+19 -0 -0)
(1.18087814553763e+19 -0 -0)
(1.18701276279084e+19 -0 -0)
(1.19330605521528e+19 -0 -0)
(1.19945611276089e+19 -0 -0)
(1.20577381589402e+19 -0 -0)
(1.21184855796656e+19 -0 -0)
(1.21807126144311e+19 -0 -0)
(1.22397731634837e+19 -0 -0)
(1.22998197387171e+19 -0 -0)
(1.23564583014934e+19 -0 -0)
(1.241421224022e+19 -0 -0)
(1.24681383637203e+19 -0 -0)
(1.25235125628162e+19 -0 -0)
(1.25747984525986e+19 -0 -0)
(1.2628377226985e+19 -0 -0)
(1.26774044470058e+19 -0 -0)
(1.27290792849504e+19 -0 -0)
(1.27760433787691e+19 -0 -0)
(1.28254014745087e+19 -0 -0)
(1.28700222760846e+19 -0 -0)
(1.29172083856863e+19 -0 -0)
(1.29590741027009e+19 -0 -0)
(1.30048098873298e+19 -0 -0)
(1.30441302798951e+19 -0 -0)
(1.30882750507604e+19 -0 -0)
(1.31255641159336e+19 -0 -0)
(1.31677822558711e+19 -0 -0)
(1.32032087735126e+19 -0 -0)
(1.3244037985052e+19 -0 -0)
(1.32777426888852e+19 -0 -0)
(1.33174560158073e+19 -0 -0)
(1.33491923144299e+19 -0 -0)
(1.33882578394574e+19 -0 -0)
(1.34180647029059e+19 -0 -0)
(1.34564161820342e+19 -0 -0)
(1.3484500997589e+19 -0 -0)
(1.35220638853035e+19 -0 -0)
(1.3548532569544e+19 -0 -0)
(1.35849630259404e+19 -0 -0)
(1.36096777719691e+19 -0 -0)
(1.3644784042374e+19 -0 -0)
(1.36678462696366e+19 -0 -0)
(1.37017615804354e+19 -0 -0)
(1.37232945245675e+19 -0 -0)
(1.3756255333856e+19 -0 -0)
(1.37761098859322e+19 -0 -0)
(1.38084574369622e+19 -0 -0)
(1.38267577520798e+19 -0 -0)
(1.38583536188413e+19 -0 -0)
(1.38756798689336e+19 -0 -0)
(1.39061821129389e+19 -0 -0)
(1.39227774427395e+19 -0 -0)
(1.39521448165702e+19 -0 -0)
(1.39678069032121e+19 -0 -0)
(1.39967861413197e+19 -0 -0)
(1.40117380532659e+19 -0 -0)
(1.40404627253564e+19 -0 -0)
(1.4054392269554e+19 -0 -0)
(1.40827829481368e+19 -0 -0)
(1.40948762974141e+19 -0 -0)
(1.41225486342596e+19 -0 -0)
(1.41329940021547e+19 -0 -0)
(1.41596784550693e+19 -0 -0)
(1.41689585438971e+19 -0 -0)
(1.41948118390099e+19 -0 -0)
(1.42034386863474e+19 -0 -0)
(1.42286226934179e+19 -0 -0)
(1.42368987864354e+19 -0 -0)
(1.4261867859829e+19 -0 -0)
(1.42701000471376e+19 -0 -0)
(1.42952009250584e+19 -0 -0)
(1.43036837848094e+19 -0 -0)
(1.43288606378775e+19 -0 -0)
(1.43372155923526e+19 -0 -0)
(1.43618812741271e+19 -0 -0)
(1.43693936483312e+19 -0 -0)
(1.43929917590215e+19 -0 -0)
(1.43990976267802e+19 -0 -0)
(1.44213799533858e+19 -0 -0)
(1.4425746269755e+19 -0 -0)
(1.44471690671807e+19 -0 -0)
(1.44501474677939e+19 -0 -0)
(1.44713610575065e+19 -0 -0)
(1.44643386439964e+19 -0 -0)
)
;

boundaryField
{
    electrode
    {
        type            calculated;
        value           uniform (155765022388.741 -0 -0);
    }
    ground
    {
        type            calculated;
        value           uniform (1.44833634238359e+19 -0 -0);
    }
    otherfaces
    {
        type            empty;
    }
}


// ************************************************************************* //
