/*--------------------------------*- C++ -*----------------------------------*\
| =========                 |                                                 |
| \\      /  F ield         | foam-extend: Open Source CFD                    |
|  \\    /   O peration     | Version:     4.0                                |
|   \\  /    A nd           | Web:         http://www.foam-extend.org         |
|    \\/     M anipulation  |                                                 |
\*---------------------------------------------------------------------------*/
FoamFile
{
    version     2.0;
    format      ascii;
    class       volScalarField;
    location    "2.5e-06";
    object      Phi;
}
// * * * * * * * * * * * * * * * * * * * * * * * * * * * * * * * * * * * * * //

dimensions      [0 0 0 1 0 0 0];

internalField   nonuniform List<scalar> 
300
(
699.99994998294
699.999746192684
699.999304130458
699.998630133356
699.997734249334
699.996614696185
699.995271450867
699.993704793941
699.991914831401
699.989901713114
699.98766562011
699.985206750382
699.982525322289
699.979621574301
699.976495764095
699.973148167992
699.969579080309
699.965788812632
699.961777693019
699.957546065154
699.953094287419
699.94842273189
699.943531783263
699.938421837685
699.933093301516
699.927546589978
699.921782125729
699.915800337326
699.909601657591
699.903186521868
699.896555366168
699.889708625198
699.882646730277
699.875370107119
699.867879173496
699.860174336764
699.852255991254
699.844124515527
699.835780269478
699.827223591295
699.818454794265
699.809474163424
699.800281952046
699.790878377963
699.781263619723
699.77143781257
699.761401044252
699.75115335064
699.740694711174
699.73002504411
699.719144201584
699.708051964474
699.696748037064
699.685232041507
699.67350351208
699.661561889226
699.649406513386
699.637036618611
699.624451325951
699.611649636625
699.598630424953
699.585392431064
699.571934253358
699.55825434074
699.544350984595
699.530222310528
699.515866269836
699.501280630733
699.486462969311
699.471410660223
699.456120867104
699.440590532705
699.424816368746
699.408794845468
699.392522180894
699.375994329774
699.359206972219
699.342155502006
699.324835014542
699.307240294488
699.289365803016
699.271205664693
699.252753653983
699.234003181333
699.214947278846
699.195578585505
699.175889331939
699.1558713247
699.135515930026
699.114814057063
699.09375614052
699.072332122714
699.050531434974
699.028342978365
699.005755103677
698.982755590648
698.959331626349
698.935469782684
698.911155992943
698.886375527325
698.861112967366
698.835352179192
698.809076285484
698.782267636084
698.754907777102
698.726977418429
698.698456399504
698.669323653204
698.639557167685
698.609133946014
698.578029963378
698.546220121684
698.513678201294
698.480376809654
698.446287326523
698.411379845494
698.375623111464
698.338984453656
698.301429713791
698.262923168917
698.223427448381
698.182903444364
698.14131021532
698.098604881599
698.054742512446
698.00967600345
697.963355943447
697.915730469703
697.866745110096
697.816342610844
697.764462748107
697.7110421216
697.656013928097
697.59930771238
697.540849092891
697.480559458908
697.418355635611
697.35414951289
697.287847633056
697.219350731924
697.148553226818
697.075342644011
696.999598976907
696.921193964757
696.839990279989
696.755840610114
696.668586617675
696.578057758675
696.484069936263
696.386423962083
696.284903792294
696.179274498793
696.069279928217
695.954639991592
695.835047515745
695.710164572572
695.579618184899
695.442995286989
695.299836784551
695.149630501562
694.991802882704
694.825709183706
694.650619435159
694.465705282776
694.270027926058
694.062383436723
693.841271768994
693.605006056675
693.351659192178
693.078950802116
692.784167575425
692.464024161555
692.114859262225
691.732801400984
691.313145480779
690.850690541923
690.340363500117
689.776293325936
689.152480345965
688.462962572978
687.701503966886
686.862701960548
685.941328187474
684.932279619304
683.83233876596
682.638327813536
681.347758981668
679.959539442762
678.473332744018
676.888885600623
675.206415108057
673.427301773484
671.552941587114
669.584915818705
667.523893752636
665.370605782716
663.125335072019
660.78757892032
658.357065316971
655.833693821246
653.217538436155
650.508843693998
647.708071644703
644.816195309795
641.834190915206
638.762964486715
635.603345621214
632.356073105656
629.021805161419
625.601111122726
622.094484964291
618.502339100225
614.825255276528
611.063899323564
607.218883153756
603.290755033974
599.280018260894
595.187118206058
591.01246066147
586.756397166207
582.419248224612
578.00128441014
573.502755867891
568.923867867174
564.264813287231
559.525878526124
554.707476943701
549.809984371605
544.833772492178
539.779176656627
534.646531825291
529.436133929298
524.148283169399
518.78324079678
513.341274755627
507.822617499729
502.227509478818
496.556156267916
490.808775809611
484.985544949808
479.086660078665
473.112272270996
467.062555446696
460.937711468947
454.738075236673
448.463934994203
442.115603830466
435.693346607963
429.197458306488
422.628179854159
415.985789738408
409.270507168608
402.482594630928
395.622251641613
388.689725569453
381.685199490668
374.60890765339
367.461018898146
360.241754938374
352.951270735364
345.589775814313
338.157411016273
330.654375367465
323.080794719141
315.436857791385
307.722676974925
299.938428502481
292.084213809997
284.160221294102
276.166663889124
268.103814571649
259.971872376288
251.771097924563
243.501676760456
235.163859532432
226.757819498044
218.283801991045
209.741970523071
201.132564774085
192.455740392048
183.711729642512
174.900680108869
166.022814782996
157.07827295795
148.067267489231
138.989927787504
129.846455712474
120.636969704672
111.361659831273
102.020634346701
92.6140737708044
83.1420792993575
73.6048255876138
64.0024096319489
54.3350030873682
44.6027001424887
34.8056711989761
24.9440058547509
15.0178719375251
5.02735160122621
)
;

boundaryField
{
    electrode
    {
        type            fixedValue;
        value           uniform 700;
    }
    ground
    {
        type            fixedValue;
        value           uniform 0;
    }
    otherfaces
    {
        type            empty;
    }
}


// ************************************************************************* //
