/*--------------------------------*- C++ -*----------------------------------*\
| =========                 |                                                 |
| \\      /  F ield         | foam-extend: Open Source CFD                    |
|  \\    /   O peration     | Version:     4.0                                |
|   \\  /    A nd           | Web:         http://www.foam-extend.org         |
|    \\/     M anipulation  |                                                 |
\*---------------------------------------------------------------------------*/
FoamFile
{
    version     2.0;
    format      ascii;
    class       volScalarField;
    location    "2.5e-06";
    object      PhiMean;
}
// * * * * * * * * * * * * * * * * * * * * * * * * * * * * * * * * * * * * * //

dimensions      [0 0 0 1 0 0 0];

internalField   nonuniform List<scalar> 
300
(
699.970636676485
699.967973469344
699.965066108031
699.961930170911
699.95857499272
699.954991112591
699.951176031872
699.947127248162
699.942842502856
699.938320067659
699.933558531267
699.928556828898
699.923314167236
699.917830005912
699.912104033835
699.906136145843
699.899926424359
699.893475127467
699.886782673669
699.8798496276
699.872676690734
699.865264691424
699.857614576076
699.84972740007
699.841604317662
699.833246597059
699.824655597373
699.81583276143
699.806779615301
699.797497751839
699.787988819308
699.778254550356
699.768296746807
699.758117247908
699.747717925623
699.737100678132
699.726267422187
699.715220091196
699.703960627528
699.692490973257
699.680813067813
699.668928846184
699.65684022679
699.644549106835
699.632057357796
699.619366820907
699.60647930273
699.593396573196
699.580120363693
699.566652372891
699.552994270107
699.539147722211
699.52511437651
699.510895867632
699.496493784149
699.481909657798
699.467144941486
699.452201002605
699.437079117904
699.421780466143
699.406306124075
699.390657061238
699.374834133091
699.358838073622
699.34266953657
699.326329087172
699.309817150555
699.293134007538
699.276279790339
699.259254476088
699.242057880428
699.224689648347
699.207149274813
699.189436107371
699.17154930615
699.153487857308
699.135250596965
699.116836189055
699.098243113143
699.079469612111
699.060513752929
699.041373350559
699.022045951736
699.002528832171
698.982818975816
698.962913101139
698.942807636916
698.922498680394
698.901981981737
698.881252950155
698.8603066281
698.839137671202
698.817740416082
698.796108774373
698.774236206338
698.752115706744
698.729739780375
698.707100424964
698.684189100115
698.660996713464
698.637513600632
698.613729487146
698.589633449806
698.565213950772
698.54045875126
698.515354884453
698.489888641578
698.464045503682
698.437810142647
698.4111663542
698.384096999689
698.356583966117
698.328608110696
698.300149229201
698.271186005026
698.241695927506
698.211655281146
698.181039097823
698.149821038985
698.11797330662
698.085466561583
698.052269889471
698.018350676291
697.983674577014
697.948205372947
697.911904809544
697.874732468779
697.836645678091
697.797599318493
697.757545674532
697.716434265958
697.674211672394
697.630821324082
697.586203266271
697.540293933438
697.493025984242
697.444327944855
697.394123844385
697.342332893376
697.288869139635
697.233640978543
697.176550655624
697.117493736033
697.05635850749
696.993025350637
696.92736604611
696.859242842634
696.788507486193
696.7150000665
696.638547739758
696.558963433142
696.476044123992
696.389568905998
696.299296930881
696.20496471114
696.106283186771
696.002934279256
695.894566827799
695.780791711255
695.661175975424
695.535236056413
695.402429344388
695.262143693517
695.113685048833
694.956261030092
694.788954630365
694.610682749587
694.420155285774
694.215837923244
693.99589968348
693.758146751508
693.499929797351
693.218063645013
692.908819340102
692.56786530099
692.190186130823
691.770098213453
691.30131294903
690.776953273654
690.189731765779
689.532095385299
688.796375148686
687.975226564128
687.061657376118
686.049517008633
684.933638721271
683.709883102667
682.375352742084
680.928367253591
679.36822194328
677.695091432961
675.909749896152
674.013663054065
672.008769099925
669.896747893722
667.679113658333
665.356965586625
662.931247491615
660.40294472395
657.772985907837
655.042332583628
652.211950596991
649.282827313926
646.256137127048
643.133201110151
639.915235617286
636.603368607835
633.198627816163
629.701969903346
626.114265245043
622.436329967284
618.66890783259
614.812800520801
610.868928119049
606.838161219805
602.721304599914
598.519125468265
594.232334717933
589.861615679581
585.407603056204
580.870912523063
576.252117778849
571.551781062486
566.770429675761
561.908588527129
556.966841082942
551.94585206886
546.846248601043
541.668648687378
536.413635452196
531.081786769001
525.673647605343
520.189763433499
514.630654401616
508.996845328094
503.288833668331
497.507123531621
491.652192212138
485.724526252399
479.724586278612
473.652845236517
467.509752293028
461.29577797667
455.011441121369
448.657308833192
442.233905198322
435.741775353229
429.181420799692
422.553366509529
415.858092860956
409.096106360639
402.267867448722
395.373865721814
388.414542647069
381.390372287479
374.301778037569
367.149219553891
359.933103033988
352.653874623278
345.311924269148
337.907685325868
330.441532349472
322.913886718406
315.325108016829
307.675606456063
299.965735529153
292.195917232535
284.366516190842
276.478011783022
268.530803820751
260.525375640586
252.462111228023
244.341483697178
236.163861434279
227.929708048248
219.639376681236
211.293322107685
202.891882633773
194.435504795683
185.924512506179
177.359344619244
168.740310980609
160.067843370446
151.34223788078
142.563919937102
133.733172257335
124.850414554424
115.9159164493
106.930092530965
97.893199597545
88.805647616253
79.6676810105188
70.4797058327755
61.2419544228382
51.9548293304463
42.6185513042013
33.233520233837
23.7999456250251
14.318225842424
4.78855980649991
)
;

boundaryField
{
    electrode
    {
        type            calculated;
        value           uniform 700.000000000299;
    }
    ground
    {
        type            calculated;
        value           uniform 0;
    }
    otherfaces
    {
        type            empty;
    }
}


// ************************************************************************* //
