/*--------------------------------*- C++ -*----------------------------------*\
| =========                 |                                                 |
| \\      /  F ield         | foam-extend: Open Source CFD                    |
|  \\    /   O peration     | Version:     4.0                                |
|   \\  /    A nd           | Web:         http://www.foam-extend.org         |
|    \\/     M anipulation  |                                                 |
\*---------------------------------------------------------------------------*/
FoamFile
{
    version     2.0;
    format      ascii;
    class       volScalarField;
    location    "2.5e-06";
    object      Sy_electron;
}
// * * * * * * * * * * * * * * * * * * * * * * * * * * * * * * * * * * * * * //

dimensions      [1 -3 -1 0 0 0 0];

internalField   nonuniform List<scalar> 
300
(
1.42174081577246e-12
1.42205595478398e-12
1.42221144373545e-12
1.4222141077273e-12
1.42222181719785e-12
1.42222366702627e-12
1.42221631809998e-12
1.42220181639026e-12
1.42218011184564e-12
1.42215117453626e-12
1.42211511819114e-12
1.42207203282741e-12
1.42202201449007e-12
1.42196517349831e-12
1.42190163109799e-12
1.42183151990812e-12
1.42175497880204e-12
1.42167216634215e-12
1.42158325314854e-12
1.42148841868934e-12
1.42138785389806e-12
1.42128176084585e-12
1.42117035249289e-12
1.42105385234804e-12
1.42093246517584e-12
1.4208064575773e-12
1.42067608030024e-12
1.42054159030042e-12
1.42040327420535e-12
1.42026141108568e-12
1.42011625410338e-12
1.41996810882348e-12
1.41981729919258e-12
1.41966413197702e-12
1.41950891848174e-12
1.4193519738245e-12
1.41919360841674e-12
1.41903414672738e-12
1.41887391604881e-12
1.41871323836918e-12
1.41855243568545e-12
1.4183918322067e-12
1.41823174772538e-12
1.41807249869951e-12
1.41791439714589e-12
1.41775774941167e-12
1.41760285134003e-12
1.41744999200555e-12
1.41729943551003e-12
1.41715144682745e-12
1.4170062598701e-12
1.41686413895021e-12
1.41672530269125e-12
1.41658999333171e-12
1.41645841858458e-12
1.41633078071195e-12
1.41620723832362e-12
1.41608792647079e-12
1.41597295488779e-12
1.41586240307646e-12
1.41575632864196e-12
1.41565475497056e-12
1.41555766384442e-12
1.41546497809171e-12
1.41537662073546e-12
1.41529251177494e-12
1.41521249062868e-12
1.41513635287881e-12
1.4150638478641e-12
1.41499467631179e-12
1.41492848464252e-12
1.41486485576804e-12
1.4148033260806e-12
1.41474338819982e-12
1.41468443941484e-12
1.41462583702207e-12
1.41456688012537e-12
1.41450678128877e-12
1.41444471945661e-12
1.41437971687646e-12
1.41431082186631e-12
1.41423694894055e-12
1.41415691976842e-12
1.41406947678166e-12
1.41397324445469e-12
1.41386678870027e-12
1.41374858389185e-12
1.41361698552801e-12
1.41347022575426e-12
1.41330645968984e-12
1.41312370982464e-12
1.41291982371846e-12
1.41269268557022e-12
1.41243997431416e-12
1.41215924089644e-12
1.41184790697834e-12
1.41150326084494e-12
1.41112245373182e-12
1.41070248053506e-12
1.41024020834016e-12
1.40973236549535e-12
1.40917552081329e-12
1.40856603797841e-12
1.40790021183453e-12
1.40717411604143e-12
1.40638365653227e-12
1.40552460342872e-12
1.40459250014737e-12
1.40358275448201e-12
1.40249058293085e-12
1.40131100340863e-12
1.40003884129335e-12
1.39866871806309e-12
1.3971950629995e-12
1.39561210101291e-12
1.39391382654307e-12
1.39209401974266e-12
1.39014630558879e-12
1.38806405347758e-12
1.38584039455814e-12
1.38346820440731e-12
1.38094017913964e-12
1.37824871727668e-12
1.37538602832953e-12
1.37234407432311e-12
1.36911454498228e-12
1.36568883633762e-12
1.36205814311935e-12
1.35821335251197e-12
1.35414508928256e-12
1.34984367973355e-12
1.34529917985223e-12
1.34050135150638e-12
1.33543962945442e-12
1.33010312884963e-12
1.32448072381467e-12
1.31856094629177e-12
1.31233195975875e-12
1.30578159599656e-12
1.2988973727394e-12
1.29166641426459e-12
1.28407547149067e-12
1.27611089053956e-12
1.26775861890676e-12
1.25900419961599e-12
1.24983280042046e-12
1.24022909718867e-12
1.23017729667627e-12
1.21966110044317e-12
1.20866367795999e-12
1.1971677388001e-12
1.18515538724062e-12
1.17260809584194e-12
1.15950679333484e-12
1.14583174045169e-12
1.13156248160082e-12
1.11667785830749e-12
1.10115604826528e-12
1.08497450070225e-12
1.06810995469118e-12
1.05053984573686e-12
1.03224627747535e-12
1.01320757969303e-12
9.93487108647808e-13
9.73234373201433e-13
9.52369920832892e-13
9.30599331285387e-13
9.07790996556006e-13
8.8395634603143e-13
8.59078402739339e-13
8.32947691002032e-13
8.049907778491e-13
7.74970627720012e-13
7.43146415355826e-13
7.09098880655335e-13
6.71772953782544e-13
6.23750004368405e-13
5.75029274111689e-13
5.26496496054178e-13
4.79508670688467e-13
4.35571998614748e-13
3.96911984525198e-13
3.66099600596938e-13
3.46403699670851e-13
3.4281133804225e-13
3.64724173664589e-13
4.35445210810895e-13
6.00060055927231e-13
9.25163102877587e-13
1.91601272772455e-12
6.22283908313029e-12
8.24948898356236e-11
4.42029682368704e-10
1.48862735743478e-09
3.48837252408444e-09
5.33540349881971e-09
6.40071114888853e-09
6.01452718231754e-09
5.04962524990014e-09
4.01921391545199e-09
3.20768651251708e-09
2.63649086862144e-09
2.26739421021522e-09
2.02947410134837e-09
1.88094112630603e-09
1.79336032725382e-09
1.74275801552741e-09
1.71216861845387e-09
1.69897232545358e-09
1.69625263340687e-09
1.69927969494924e-09
1.70011005324373e-09
1.70185403196331e-09
1.70307809813988e-09
1.70281182243108e-09
1.7004307874719e-09
1.69555201299609e-09
1.68796946538865e-09
1.67760685357392e-09
1.66448126354534e-09
1.64868218960751e-09
1.6303100942915e-09
1.60949382069768e-09
1.58593333755164e-09
1.55963443182842e-09
1.5316385419747e-09
1.50218838467425e-09
1.47152221383441e-09
1.43986914179481e-09
1.40744646537593e-09
1.37445781001866e-09
1.34109193980811e-09
1.30752207757618e-09
1.27390561292114e-09
1.24038415240473e-09
1.20708382116472e-09
1.17411575250096e-09
1.14157675334152e-09
1.10955005362353e-09
1.07810615851781e-09
1.04730377573773e-09
1.01719076622475e-09
9.87805362127574e-10
9.59177660910881e-10
9.3133042033468e-10
9.04279109597792e-10
8.78032187691438e-10
8.5259194482729e-10
8.27952335996427e-10
8.04097675757829e-10
7.81014074011021e-10
7.58691441505389e-10
7.37116869436957e-10
7.16275424546121e-10
6.96150181140957e-10
6.76723461847091e-10
6.5797686806054e-10
6.39887152481473e-10
6.22429968996221e-10
6.0558480804847e-10
5.89332022306468e-10
5.73649941701414e-10
5.58517141424066e-10
5.43912410486723e-10
5.29814850513778e-10
5.16203831189431e-10
5.03056312803757e-10
4.90344113635864e-10
4.78043411536926e-10
4.66137636729654e-10
4.54611405118994e-10
4.43450441066547e-10
4.32641237313729e-10
4.22171074013095e-10
4.12028020612422e-10
4.02200965363584e-10
3.92679641150586e-10
3.83454649156036e-10
3.74517497445114e-10
3.65860573609437e-10
3.57477205758473e-10
3.49231895783053e-10
3.40791858808923e-10
3.32564877558733e-10
3.24520688177039e-10
3.16667866307763e-10
3.09017796737909e-10
3.0158315372589e-10
2.94376493405375e-10
2.86271653372731e-10
2.78250585827864e-10
2.7042004192126e-10
2.62820538469228e-10
2.53604491737115e-10
2.44458878197829e-10
2.34487693942427e-10
2.2293832235641e-10
2.09103940265737e-10
1.91823940347284e-10
1.67662813830047e-10
)
;

boundaryField
{
    electrode
    {
        type            zeroGradient;
    }
    ground
    {
        type            zeroGradient;
    }
    otherfaces
    {
        type            empty;
    }
}


// ************************************************************************* //
