/*--------------------------------*- C++ -*----------------------------------*\
| =========                 |                                                 |
| \\      /  F ield         | foam-extend: Open Source CFD                    |
|  \\    /   O peration     | Version:     4.0                                |
|   \\  /    A nd           | Web:         http://www.foam-extend.org         |
|    \\/     M anipulation  |                                                 |
\*---------------------------------------------------------------------------*/
FoamFile
{
    version     2.0;
    format      ascii;
    class       volScalarField;
    location    "2.5e-06";
    object      Te;
}
// * * * * * * * * * * * * * * * * * * * * * * * * * * * * * * * * * * * * * //

dimensions      [0 0 0 1 0 0 0];

internalField   nonuniform List<scalar> 
300
(
31114.0762862385
31114.2736215593
31114.4201678671
31114.524858
31114.6734797126
31114.860000648
31115.0825843736
31115.3422888184
31115.6390330874
31115.9727492524
31116.3434490527
31116.7511290645
31117.1957874638
31117.6774279584
31118.1960577761
31118.7516877934
31119.3443326837
31119.9740108981
31120.6407446676
31121.3445600255
31122.0854868223
31122.8635587397
31123.6788133102
31124.5312919372
31125.4210399168
31126.3481064558
31127.3125447021
31128.3144117662
31129.3537687519
31130.4306807861
31131.5452170505
31132.6974508175
31133.8874594854
31135.1153246202
31136.381131997
31137.6849716461
31139.0269379005
31140.407129448
31141.8256493869
31143.2826052844
31144.7781092363
31146.3122779386
31147.8852327558
31149.4970997937
31151.1480099817
31152.8380991579
31154.5675081561
31156.336382904
31158.1448745221
31159.9931394327
31161.881339473
31163.8096420141
31165.7782200897
31167.7872525332
31169.8369241158
31171.9274256988
31174.0589543975
31176.2317137469
31178.4459138792
31180.701771715
31182.9995111629
31185.3393633291
31187.7215667393
31190.1463675756
31192.6140199244
31195.1247860372
31197.6789366062
31200.2767510595
31202.9185178658
31205.6045348575
31208.3351095754
31211.1105596284
31213.9312130746
31216.7974088208
31219.7094970461
31222.6678396483
31225.672810712
31228.7247970051
31231.8241985001
31234.9714289233
31238.1669163366
31241.4111037487
31244.7044497587
31248.0474292387
31251.4405340479
31254.8842737894
31258.3791766113
31261.9257900468
31265.5246819013
31269.1764411936
31272.8816791458
31276.6410302287
31280.4551532712
31284.3247326278
31288.2504794135
31292.233132816
31296.2734614758
31300.3722649553
31304.5303752935
31308.7486586497
31313.0280170491
31317.3693902404
31321.7737576644
31326.2421405384
31330.7756040879
31335.3752599149
31340.0422685109
31344.777841949
31349.5832467513
31354.4598069495
31359.4089073528
31364.4319970501
31369.5305931575
31374.7062848313
31379.9607375834
31385.2956979084
31390.7129982644
31396.2145624374
31401.8024113248
31407.4786691776
31413.2455703514
31419.1054666149
31425.0608350709
31431.1142867634
31437.2685760299
31443.5266106945
31449.8914631919
31456.3663827169
31462.9548085362
31469.6603845914
31476.4869755434
31483.4386844504
31490.519872272
31497.7351794399
31505.0895497767
31512.5882570597
31520.2369346057
31528.041608305
31536.0087335886
31544.1452369193
31552.4585624792
31560.9567248501
31569.6483686492
31578.5428362215
31587.6502447197
31596.9815741582
31606.5487683446
31616.3648509372
31626.4440593498
31636.8019998032
31647.4558274695
31658.4244565065
31669.728805726
31681.3920871004
31693.440145803
31705.901861875
31718.8096284519
31732.1999424742
31746.1141151096
31760.5991364809
31775.7097076236
31791.5126180303
31808.0825139358
31825.573210352
31844.2326323233
31864.1669809755
31885.3370981763
31907.8540960881
31931.9791177562
31957.9956602668
31986.0661589232
32016.0401462806
32048.0634772046
32082.7830850805
32120.182003125
32160.3757869279
32204.6195176113
32254.0316591504
32310.3599269561
32376.695509763
32457.3419562338
32559.8276511666
32695.0297043396
32878.3961774874
33131.6674441995
33485.0876540109
33984.8900873056
34699.0175368784
35733.8454142678
37237.3219662814
39427.2241314082
42681.8569176345
47569.5701486105
55263.9405810857
66132.1910339104
80381.8147669574
101548.0834523
128781.594632245
164796.891971366
209768.349508678
262048.582594642
318035.96515268
373924.429141231
426783.388674307
474989.053135811
517981.05212996
555871.652551366
589096.614268967
618217.358363578
643869.497734453
666603.916517416
686872.931416028
705067.769789597
721544.255298732
736585.419249274
750426.403491472
763260.685578909
775248.426106809
786522.590063139
797193.344540927
807355.697986464
817081.647575253
826428.300999446
835451.798331823
844197.440358909
852701.259175095
860992.404483396
869094.004839604
877024.031254777
884796.037574072
892419.702459597
899901.286255037
907244.01951091
914448.429211032
921512.627535605
928432.563333765
935202.239730246
941813.917886842
948258.290073728
954524.639427175
960600.992307654
966474.213619753
972130.121052982
977553.753780786
982729.528582189
987641.197675463
992271.88227754
996604.78255711
1000622.46376183
1004304.5196541
1007632.16514062
1010588.64760752
1013155.44930505
1015313.9900266
1017045.2449282
1018330.2404679
1019146.17722431
1019473.33105972
1019305.95797098
1018615.2245149
1017382.30535946
1015586.88734973
1013209.10187574
1010228.82380588
1006625.7182585
1002379.93241603
997471.578826129
991877.16034587
985574.366700484
978542.890696596
970759.71891592
962201.104229238
952842.26112868
942657.374192495
931619.44865023
919700.167021795
906869.717355218
893096.588377664
878347.372496089
862586.45173985
845776.22258241
827875.925151339
808851.864182375
788652.57847025
767221.54892839
744509.530968977
720447.135459906
694957.286541437
667968.556189421
639390.002057533
609108.918140914
577005.565006537
542937.569241299
506717.757804296
468123.526925893
426870.246349662
382559.031559876
334641.737340323
282311.765758577
224514.298825292
)
;

boundaryField
{
    electrode
    {
        type            electronTemperature;
        seec            0.05;
        Tse             1000;
        Edepend         1;
        TFN             1000;
        field_emission  0;
        field_enhancement_factor 55;
        work_function   5;
        value           uniform 31114.0762862385;
    }
    ground
    {
        type            electronTemperature;
        seec            0.05;
        Tse             1000;
        Edepend         1;
        TFN             1000;
        field_emission  0;
        field_enhancement_factor 55;
        work_function   5;
        value           uniform 191692.456952788;
    }
    otherfaces
    {
        type            empty;
    }
}


// ************************************************************************* //
