/*--------------------------------*- C++ -*----------------------------------*\
| =========                 |                                                 |
| \\      /  F ield         | foam-extend: Open Source CFD                    |
|  \\    /   O peration     | Version:     4.0                                |
|   \\  /    A nd           | Web:         http://www.foam-extend.org         |
|    \\/     M anipulation  |                                                 |
\*---------------------------------------------------------------------------*/
FoamFile
{
    version     2.0;
    format      ascii;
    class       volScalarField;
    location    "2.5e-06";
    object      TeMean;
}
// * * * * * * * * * * * * * * * * * * * * * * * * * * * * * * * * * * * * * //

dimensions      [0 0 0 1 0 0 0];

internalField   nonuniform List<scalar> 
300
(
29576.9639249178
29577.2656338486
29577.3058229883
29577.110901618
29576.8645508001
29576.5491234398
29576.1683880547
29575.7267148308
29575.2251986072
29574.6653561605
29574.0486086713
29573.3763336669
29572.649855125
29571.870411981
29571.0391966175
29570.1573503649
29569.2259606733
29568.2460731093
29567.2186901373
29566.1447706111
29565.025236828
29563.8609690812
29562.6528117347
29561.4015712801
29560.1080152434
29558.772900247
29557.3969532502
29555.9808646899
29554.5253103913
29553.0309217206
29551.4982821782
29549.92799004
29548.3206519685
29546.6768327209
29544.9970693415
29543.2818607488
29541.531688126
29539.7470374345
29537.928376999
29536.0761458887
29534.1907590322
29532.2726361968
29530.3221808446
29528.3397726571
29526.3257762948
29524.2805405137
29522.2043967601
29520.0976565292
29517.9606028478
29515.7934899276
29513.596543676
29511.3699991527
29509.1141215896
29506.8291591374
29504.5153548963
29502.1729619577
29499.8022027067
29497.4032736229
29494.976378017
29492.5217094476
29490.039447408
29487.5297802671
29484.9928430157
29482.4287432516
29479.8376513068
29477.2197618721
29474.5752459722
29471.9042557316
29469.2069336155
29466.4834244092
29463.7338539208
29460.9583060736
29458.1568889325
29455.3297246843
29452.4768943596
29449.59844367
29446.6944537892
29443.7650600574
29440.8103531814
29437.8303940644
29434.8253010051
29431.7951969439
29428.7401527866
29425.6602058827
29422.5553841527
29419.4257633408
29416.2714548531
29413.0925340051
29409.8890447739
29406.6610487953
29403.4085680251
29400.131613206
29396.830306309
29393.5047229381
29390.1549015212
29386.7809299064
29383.382869765
29379.9607822803
29376.5147129516
29373.044712468
29369.5508736368
29366.0332138688
29362.4917402162
29358.9265452867
29355.3377060046
29351.7252789426
29348.0893062022
29344.4298334574
29340.7469379122
29337.0406890723
29333.3111562501
29329.5584018106
29325.7824649257
29321.9834365719
29318.1613794479
29314.3163185565
29310.4482650078
29306.557282986
29302.6434899447
29298.706898506
29294.7475004309
29290.7653156394
29286.7603443595
29282.7326258004
29278.6822540337
29274.6092722988
29270.5136518127
29266.3954042602
29262.2545710192
29258.0911218605
29253.9050019183
29249.6961904459
29245.4646828471
29241.2103476671
29236.933000514
29232.6326118744
29228.3091498682
29223.9624695159
29219.5924474355
29215.1990222524
29210.7821216666
29206.3416226857
29201.8773607485
29197.3891364607
29192.8768123658
29188.3403765611
29183.7798902233
29179.1955098108
29174.5873163977
29169.9554390807
29165.3003397677
29160.6225865732
29155.922942212
29151.2026279004
29146.4631313034
29141.7063646043
29136.9349293253
29132.1523205478
29127.3631126591
29122.5731288281
29117.7902946432
29113.0253304302
29108.2929301796
29103.6170164011
29099.0402555616
29094.6223491098
29090.4202109484
29086.4828146386
29082.8666026621
29079.6443576158
29076.8897419856
29074.6008800437
29072.6722865798
29070.9882009462
29069.4116310113
29067.6833797657
29065.5206556134
29062.756837766
29059.4260173197
29056.1171768728
29054.3031459813
29056.919168993
29069.3950277244
29100.6930206229
29165.2570517898
29285.6530874584
29496.2145683767
29849.4762697055
30426.809623972
31355.4343036636
32837.8309110593
35208.5226523479
39025.6333289291
45403.2927836939
55519.6105566928
70141.6499771129
91747.2601717522
121203.108460719
160648.578384016
209680.275046581
266604.412925117
328008.69192121
390234.991878475
449655.918325061
503721.409650124
551292.775983406
592394.388382662
627654.119156975
657965.810339486
684210.862258325
707111.293974486
727249.993759246
745119.741123009
761127.585342159
775601.014854819
788805.003983034
800954.301055154
812224.032662267
822757.094026039
832667.526626599
842049.360442479
850979.999053811
859523.148216258
867734.024525824
875657.147809237
883328.083296648
890775.387427466
898021.568232754
905083.974077347
911975.505125599
918705.206382233
925278.769115105
931698.946111001
937965.710824765
944076.666216711
950027.461379131
955811.86577493
961422.007429498
966848.542485874
972080.835499266
977107.087361959
981914.448495638
986489.221782478
990817.039861458
994882.948402336
998671.635798578
1002166.74560214
1005351.45401922
1008209.07263666
1010722.768483
1012875.990068
1014651.91814582
1016033.49545811
1017003.56746918
1017544.91623034
1017639.99178742
1017271.56537003
1016416.28475681
1015071.10711048
1013211.15941253
1010819.48776142
1007878.22459879
1004369.90830749
1000276.87068868
995581.327263408
990265.265687077
984310.671751013
977699.113700712
970411.749109148
962429.263672358
953731.387654168
944297.658070014
934107.169023185
923137.60786465
911365.311252668
898765.303884545
885311.207026746
870975.033807528
855727.081056121
839535.607498779
822366.724574108
804183.802279748
784951.390814573
764627.770031731
743162.220201485
720504.178575539
696595.211725355
671365.314616917
644742.973202091
616645.410747818
586970.541342013
555601.833782716
522407.82593392
487214.88380673
449811.471234553
409930.067461313
367190.976136464
321079.429718283
270846.385151018
215490.128378051
)
;

boundaryField
{
    electrode
    {
        type            calculated;
        value           uniform 29576.9639249226;
    }
    ground
    {
        type            calculated;
        value           uniform 184136.850630446;
    }
    otherfaces
    {
        type            empty;
    }
}


// ************************************************************************* //
