/*--------------------------------*- C++ -*----------------------------------*\
| =========                 |                                                 |
| \\      /  F ield         | foam-extend: Open Source CFD                    |
|  \\    /   O peration     | Version:     4.0                                |
|   \\  /    A nd           | Web:         http://www.foam-extend.org         |
|    \\/     M anipulation  |                                                 |
\*---------------------------------------------------------------------------*/
FoamFile
{
    version     2.0;
    format      ascii;
    class       volScalarField;
    location    "8e-06";
    object      Ar;
}
// * * * * * * * * * * * * * * * * * * * * * * * * * * * * * * * * * * * * * //

dimensions      [0 0 0 1 0 0 0];

internalField   nonuniform List<scalar> 
300
(
3.21880206293879e+22
3.21880205866482e+22
3.21880206160932e+22
3.21880206281068e+22
3.21880206484554e+22
3.218802067663e+22
3.2188020710927e+22
3.21880207520119e+22
3.21880207997613e+22
3.21880208541415e+22
3.21880209151579e+22
3.21880209827989e+22
3.21880210570593e+22
3.21880211379361e+22
3.21880212254272e+22
3.21880213195322e+22
3.21880214202545e+22
3.21880215275945e+22
3.21880216415529e+22
3.21880217621328e+22
3.2188021889338e+22
3.21880220231728e+22
3.21880221636424e+22
3.21880223107524e+22
3.21880224645248e+22
3.21880226249539e+22
3.21880227920482e+22
3.21880229658182e+22
3.21880231462632e+22
3.21880233333919e+22
3.21880235272314e+22
3.21880237277845e+22
3.21880239350474e+22
3.21880241490295e+22
3.21880243697407e+22
3.21880245971916e+22
3.21880248313976e+22
3.21880250723683e+22
3.21880253201129e+22
3.21880255746446e+22
3.21880258359767e+22
3.21880261041211e+22
3.21880263790916e+22
3.21880266609023e+22
3.21880269495676e+22
3.21880272451026e+22
3.21880275475251e+22
3.21880278568523e+22
3.21880281731112e+22
3.21880284963225e+22
3.21880288265182e+22
3.21880291637057e+22
3.21880295079103e+22
3.21880298591345e+22
3.21880302173904e+22
3.21880305826824e+22
3.21880309550277e+22
3.21880313344443e+22
3.21880317209508e+22
3.21880321145677e+22
3.21880325153122e+22
3.21880329232035e+22
3.21880333382664e+22
3.21880337605407e+22
3.21880341900438e+22
3.21880346267723e+22
3.21880350707457e+22
3.21880355219842e+22
3.2188035980508e+22
3.2188036446338e+22
3.21880369194968e+22
3.21880374000137e+22
3.21880378879122e+22
3.2188038383207e+22
3.21880388859334e+22
3.21880393961124e+22
3.21880399137595e+22
3.21880404389008e+22
3.21880409715379e+22
3.21880415117231e+22
3.21880420594435e+22
3.21880426147183e+22
3.2188043177572e+22
3.21880437480236e+22
3.21880443261089e+22
3.21880449118411e+22
3.21880455052294e+22
3.2188046106294e+22
3.21880467150672e+22
3.21880473315616e+22
3.21880479558031e+22
3.21880485878564e+22
3.2188049227686e+22
3.21880498753097e+22
3.21880505307467e+22
3.21880511940155e+22
3.21880518651341e+22
3.2188052544121e+22
3.21880532310104e+22
3.21880539258274e+22
3.21880546285655e+22
3.21880553392059e+22
3.21880560578516e+22
3.21880567844964e+22
3.21880575191714e+22
3.21880582619103e+22
3.21880590127222e+22
3.218805977165e+22
3.21880605387068e+22
3.21880613139097e+22
3.21880620972828e+22
3.21880628888501e+22
3.21880636886408e+22
3.21880644966778e+22
3.2188065312984e+22
3.21880661375968e+22
3.21880669705547e+22
3.21880678118523e+22
3.21880686615074e+22
3.21880695195464e+22
3.21880703860139e+22
3.21880712609146e+22
3.21880721442947e+22
3.2188073036161e+22
3.21880739365188e+22
3.21880748453867e+22
3.21880757628089e+22
3.21880766887839e+22
3.21880776233383e+22
3.21880785664896e+22
3.21880795182685e+22
3.21880804786941e+22
3.21880814477863e+22
3.21880824255858e+22
3.21880834121437e+22
3.21880844074557e+22
3.21880854115321e+22
3.21880864244124e+22
3.21880874461293e+22
3.21880884766877e+22
3.21880895161177e+22
3.21880905644492e+22
3.21880916217281e+22
3.21880926879994e+22
3.21880937633003e+22
3.21880948476235e+22
3.21880959409951e+22
3.21880970434423e+22
3.21880981550049e+22
3.21880992757396e+22
3.21881004056398e+22
3.2188101544734e+22
3.2188102693084e+22
3.21881038506861e+22
3.21881050175544e+22
3.21881061937057e+22
3.21881073791966e+22
3.21881085739104e+22
3.2188109777997e+22
3.2188110991017e+22
3.21881122138422e+22
3.21881134445787e+22
3.21881146861304e+22
3.2188115933485e+22
3.21881171943627e+22
3.21881184581083e+22
3.21881197169197e+22
3.21881209900568e+22
3.2188122275327e+22
3.21881235675372e+22
3.21881248675203e+22
3.21881261628358e+22
3.21881274670375e+22
3.21881287611879e+22
3.21881300588489e+22
3.21881313885813e+22
3.21881326931904e+22
3.21881339689011e+22
3.2188135269959e+22
3.21881365517165e+22
3.21881377767588e+22
3.21881390119814e+22
3.21881402091046e+22
3.21881413210516e+22
3.21881424389654e+22
3.21881434722502e+22
3.2188144414481e+22
3.21881453283683e+22
3.21881461565576e+22
3.21881468659301e+22
3.21881475357482e+22
3.21881481204653e+22
3.21881486209222e+22
3.21881490092307e+22
3.21881493649292e+22
3.21881495913921e+22
3.21881497666152e+22
3.2188149872323e+22
3.21881499680669e+22
3.21881500262017e+22
3.21881500588532e+22
3.21881500287108e+22
3.2188150005669e+22
3.21881499944876e+22
3.21881500459261e+22
3.21881501230966e+22
3.21881502149301e+22
3.21881503064988e+22
3.21881503877508e+22
3.2188150457889e+22
3.21881505180404e+22
3.21881505691006e+22
3.21881506126049e+22
3.21881506650522e+22
3.21881507208499e+22
3.21881507721181e+22
3.21881508181649e+22
3.21881508605717e+22
3.21881508990113e+22
3.21881509348393e+22
3.21881509675016e+22
3.21881509986358e+22
3.21881510275261e+22
3.21881510550715e+22
3.21881510804401e+22
3.21881511190415e+22
3.21881511569353e+22
3.21881511941675e+22
3.21881512290042e+22
3.21881512633902e+22
3.21881512955326e+22
3.21881513274027e+22
3.21881513571221e+22
3.21881513866957e+22
3.21881514142002e+22
3.21881514416411e+22
3.21881514670581e+22
3.21881514924796e+22
3.21881515158944e+22
3.21881515393708e+22
3.21881515608463e+22
3.21881515853899e+22
3.21881516156747e+22
3.21881516459574e+22
3.21881516743852e+22
3.21881517028577e+22
3.21881517295162e+22
3.21881517562904e+22
3.218815178127e+22
3.21881518064381e+22
3.21881518298239e+22
3.21881518534729e+22
3.21881518753353e+22
3.21881518975555e+22
3.21881519179618e+22
3.21881519388389e+22
3.21881519578424e+22
3.21881519774364e+22
3.21881519951105e+22
3.21881520134728e+22
3.21881520298803e+22
3.21881520470811e+22
3.21881520622889e+22
3.21881520783871e+22
3.21881520924403e+22
3.21881521131501e+22
3.21881521328797e+22
3.21881521538083e+22
3.21881521724473e+22
3.21881521923984e+22
3.21881522099993e+22
3.21881522290282e+22
3.21881522456522e+22
3.21881522638194e+22
3.21881522795224e+22
3.21881522968917e+22
3.21881523117218e+22
3.2188152328334e+22
3.21881523423244e+22
3.21881523582127e+22
3.21881523714034e+22
3.21881523866501e+22
3.21881523992946e+22
3.21881524142715e+22
3.21881524264147e+22
3.21881524408346e+22
3.21881524523117e+22
3.21881524661691e+22
3.21881524769944e+22
3.21881524907172e+22
3.21881525016023e+22
3.21881525151117e+22
3.21881525253632e+22
3.21881525390022e+22
3.2188152549548e+22
3.21881525631665e+22
3.21881525742034e+22
3.2188152588881e+22
3.21881526020428e+22
3.21881526280307e+22
)
;

boundaryField
{
    electrode
    {
        type            zeroGradient;
    }
    ground
    {
        type            zeroGradient;
    }
    otherfaces
    {
        type            empty;
    }
}


// ************************************************************************* //
