/*--------------------------------*- C++ -*----------------------------------*\
| =========                 |                                                 |
| \\      /  F ield         | foam-extend: Open Source CFD                    |
|  \\    /   O peration     | Version:     4.0                                |
|   \\  /    A nd           | Web:         http://www.foam-extend.org         |
|    \\/     M anipulation  |                                                 |
\*---------------------------------------------------------------------------*/
FoamFile
{
    version     2.0;
    format      ascii;
    class       volScalarField;
    location    "8e-06";
    object      Arm;
}
// * * * * * * * * * * * * * * * * * * * * * * * * * * * * * * * * * * * * * //

dimensions      [0 0 0 1 0 0 0];

internalField   nonuniform List<scalar> 
300
(
3.57411261054179e+15
3.5759866853099e+15
3.57793420906395e+15
3.57924043976837e+15
3.58005674642982e+15
3.58043534569325e+15
3.58042043618376e+15
3.5800434672012e+15
3.57933010036806e+15
3.5783023156048e+15
3.57697589388659e+15
3.57536492073667e+15
3.57348145014243e+15
3.57133608511439e+15
3.56893828302208e+15
3.56629658438698e+15
3.56341582357121e+15
3.56030458130702e+15
3.55697119658496e+15
3.55342215117704e+15
3.54966364653649e+15
3.54570160431594e+15
3.54154171450501e+15
3.53718940084329e+15
3.53263405405524e+15
3.5278933485811e+15
3.52297100608864e+15
3.51786906156068e+15
3.51260107743548e+15
3.50717192019436e+15
3.50156789585174e+15
3.49580035152712e+15
3.48988736490351e+15
3.48383433745043e+15
3.47764635543271e+15
3.47132821390511e+15
3.46488010300121e+15
3.45830853031442e+15
3.45162055874148e+15
3.4448197288828e+15
3.43790954702402e+15
3.43089528465635e+15
3.42378082445847e+15
3.4165698579567e+15
3.40926588525739e+15
3.40187216696061e+15
3.39438965184402e+15
3.38681977384154e+15
3.37915479251788e+15
3.37139327200008e+15
3.36352266250829e+15
3.35555540592607e+15
3.34748616917129e+15
3.33933262319713e+15
3.33110292747638e+15
3.32281342152438e+15
3.31446742490689e+15
3.30606785379559e+15
3.29761727758082e+15
3.28911612310816e+15
3.28056869681546e+15
3.27197710503796e+15
3.26333798944013e+15
3.25463344046533e+15
3.24586743586557e+15
3.23706549567002e+15
3.22822974704263e+15
3.21936202974436e+15
3.21046392962693e+15
3.20153680333343e+15
3.19257979938314e+15
3.18358578387589e+15
3.17455322475361e+15
3.16548952469133e+15
3.15638119241415e+15
3.14722927329485e+15
3.13804008816088e+15
3.12880955649312e+15
3.11955755112557e+15
3.11025367725136e+15
3.10093238206512e+15
3.09159583067637e+15
3.08224095407889e+15
3.0728699808294e+15
3.06346814796464e+15
3.05404317080693e+15
3.04460673296326e+15
3.03515915357187e+15
3.02568856754416e+15
3.01620268153956e+15
3.0066954448898e+15
2.99712200100032e+15
2.98753740365593e+15
2.97794336506552e+15
2.96833991649761e+15
2.95872708375212e+15
2.94910464854032e+15
2.93947216366905e+15
2.92981872337635e+15
2.92014426015354e+15
2.91045502105461e+15
2.90075224622084e+15
2.89100430357112e+15
2.88124027946503e+15
2.87145100872895e+15
2.86162718087905e+15
2.8517837357837e+15
2.84190115156785e+15
2.83198980316988e+15
2.82205513890317e+15
2.81209529841722e+15
2.80210798811198e+15
2.7920854829693e+15
2.78202556293923e+15
2.77192598565074e+15
2.76176911905695e+15
2.75153613993932e+15
2.74125175271625e+15
2.73091685180002e+15
2.72052334434896e+15
2.71004492317964e+15
2.69949443605425e+15
2.68884300907052e+15
2.67810098244482e+15
2.66727976632782e+15
2.65637714271891e+15
2.64536510094464e+15
2.63426097201771e+15
2.6230539803986e+15
2.6117420535323e+15
2.60030958396212e+15
2.58875268353642e+15
2.577066326199e+15
2.56522444019337e+15
2.55319065440537e+15
2.54098372477349e+15
2.52860755476186e+15
2.5160371509327e+15
2.50325368580614e+15
2.49026620549453e+15
2.47705875760123e+15
2.46361466615103e+15
2.44990180808709e+15
2.43588809541702e+15
2.42154896750659e+15
2.40690411262802e+15
2.39193871029962e+15
2.37663637878463e+15
2.36096657500697e+15
2.34488052165546e+15
2.32839050903654e+15
2.31147178854018e+15
2.29406223197441e+15
2.27616054105419e+15
2.25774843901948e+15
2.23877625042951e+15
2.21920077611964e+15
2.19902137776469e+15
2.17821889956896e+15
2.15674843123878e+15
2.13457438231213e+15
2.11168159991454e+15
2.0880319360772e+15
2.06363782629691e+15
2.03848625323765e+15
2.01252281310623e+15
1.98576825408121e+15
1.95826708922399e+15
1.93004832664606e+15
1.9011539547553e+15
1.87165248786342e+15
1.84157738619571e+15
1.81102106086391e+15
1.78015494266159e+15
1.74917291316356e+15
1.71824486742148e+15
1.68755000573804e+15
1.6572873556474e+15
1.62769554532985e+15
1.5989302611629e+15
1.5711457726969e+15
1.54448904339777e+15
1.51904157391859e+15
1.49491795337374e+15
1.47211809530967e+15
1.45055210083591e+15
1.43025951289258e+15
1.41118992411752e+15
1.39325756346486e+15
1.37638190910888e+15
1.36046930831454e+15
1.34557135745691e+15
1.33218042062898e+15
1.32537366777027e+15
1.35132701010826e+15
1.41722085917737e+15
1.49698581837434e+15
1.56256653270391e+15
1.62117436979436e+15
1.68168181596728e+15
1.74289043632177e+15
1.80078376200306e+15
1.83077551256527e+15
1.81852637763079e+15
1.77544281946423e+15
1.71935975593042e+15
1.6661126625896e+15
1.6238495736804e+15
1.59364065854934e+15
1.5734147061398e+15
1.5599839398921e+15
1.55164206178087e+15
1.54613226903268e+15
1.5431480185957e+15
1.54074364644541e+15
1.53866252195383e+15
1.53699182257304e+15
1.53533625013021e+15
1.53341405227047e+15
1.53106134940707e+15
1.5281638593013e+15
1.52424579450151e+15
1.51933274762614e+15
1.51362976786065e+15
1.50721680624121e+15
1.50025363546627e+15
1.49278862611275e+15
1.48485411520489e+15
1.47650110285825e+15
1.46778836922686e+15
1.45875306878143e+15
1.44944815989517e+15
1.43993078175237e+15
1.43024015305096e+15
1.42041730284758e+15
1.41051781277643e+15
1.40056220828523e+15
1.39060286785624e+15
1.3806591425044e+15
1.3707687971152e+15
1.36095584704898e+15
1.35123338761975e+15
1.34163520577439e+15
1.33216446088107e+15
1.32284240072355e+15
1.31369728510085e+15
1.30472605654343e+15
1.29594502236498e+15
1.28736353604097e+15
1.27897894950244e+15
1.27080231090104e+15
1.26283254472245e+15
1.25506883970272e+15
1.24751469591752e+15
1.24016130604105e+15
1.2330138635991e+15
1.22607476681962e+15
1.21933040163518e+15
1.21278878054715e+15
1.20643986151616e+15
1.20028411240962e+15
1.19430343604714e+15
1.18850492243352e+15
1.18287973226242e+15
1.17742412897251e+15
1.17213282466477e+15
1.16699664334942e+15
1.1620108630725e+15
1.15716330958087e+15
1.15245815637708e+15
1.1478857833552e+15
1.14344883853542e+15
1.13913172962577e+15
1.1349386793506e+15
1.13085666942064e+15
1.12688332030261e+15
1.12301603980431e+15
1.11925399270104e+15
1.1155983346926e+15
1.11204194560984e+15
1.10858287558265e+15
1.1051800647683e+15
1.1016901069752e+15
1.09809406584411e+15
1.09456098103744e+15
1.09109637286067e+15
1.08770924557287e+15
1.08440278697551e+15
1.0811677951456e+15
1.07761014643633e+15
1.07383090818186e+15
1.07013876329351e+15
1.0665421166888e+15
1.0623880035415e+15
1.05806948564197e+15
1.05365211324137e+15
1.04844643357556e+15
1.04274625657982e+15
1.03615927677018e+15
1.02811885733009e+15
)
;

boundaryField
{
    electrode
    {
        type            zeroGradient;
    }
    ground
    {
        type            zeroGradient;
    }
    otherfaces
    {
        type            empty;
    }
}


// ************************************************************************* //
