/*--------------------------------*- C++ -*----------------------------------*\
| =========                 |                                                 |
| \\      /  F ield         | foam-extend: Open Source CFD                    |
|  \\    /   O peration     | Version:     4.0                                |
|   \\  /    A nd           | Web:         http://www.foam-extend.org         |
|    \\/     M anipulation  |                                                 |
\*---------------------------------------------------------------------------*/
FoamFile
{
    version     2.0;
    format      ascii;
    class       volScalarField;
    location    "8e-06";
    object      Arp1;
}
// * * * * * * * * * * * * * * * * * * * * * * * * * * * * * * * * * * * * * //

dimensions      [0 0 0 1 0 0 0];

internalField   nonuniform List<scalar> 
300
(
6.63821713620531e+16
6.64248115327741e+16
6.639799337534e+16
6.6392438128795e+16
6.63821663756636e+16
6.63676592764235e+16
6.63505820840018e+16
6.63302383140875e+16
6.63067290525441e+16
6.6280068869467e+16
6.62502394868618e+16
6.62172416745233e+16
6.6181071856969e+16
6.61417261823929e+16
6.60992009717475e+16
6.60534922222322e+16
6.6004595748065e+16
6.59525071717767e+16
6.58972219174589e+16
6.58387352155388e+16
6.5777042102853e+16
6.57121374243541e+16
6.56440158344728e+16
6.55726717982219e+16
6.54980995930941e+16
6.54202933108297e+16
6.53392468585907e+16
6.52549539613428e+16
6.51674081637416e+16
6.50766028318764e+16
6.4982531155504e+16
6.48851861506932e+16
6.47845606616287e+16
6.4680647363209e+16
6.45734387639762e+16
6.44629272081919e+16
6.43491048789339e+16
6.42319638011726e+16
6.41114958441739e+16
6.39876927249979e+16
6.38605460118606e+16
6.37300471268611e+16
6.35961873498453e+16
6.34589578219881e+16
6.33183495489865e+16
6.31743534051534e+16
6.3026960137405e+16
6.28761603686861e+16
6.27219446024633e+16
6.25643032270509e+16
6.24032265192558e+16
6.22387046493456e+16
6.20707276854977e+16
6.1899285598024e+16
6.17243682643143e+16
6.15459654738325e+16
6.1364066932656e+16
6.11786622685213e+16
6.09897410363295e+16
6.07972927226906e+16
6.06013067515585e+16
6.04017724897783e+16
6.0198679251987e+16
5.99920163064771e+16
5.97817728809424e+16
5.95679381676363e+16
5.93505013294822e+16
5.91294515059744e+16
5.89047778185671e+16
5.86764693768964e+16
5.84445152849326e+16
5.82089046464822e+16
5.79696265715684e+16
5.77266701826696e+16
5.74800246203125e+16
5.72296790496514e+16
5.69756226666247e+16
5.67178447038344e+16
5.64563344368428e+16
5.61910811906454e+16
5.5922074345462e+16
5.56493033429565e+16
5.53727576927674e+16
5.50924269781378e+16
5.48083008621843e+16
5.45203690942695e+16
5.42286215157887e+16
5.39330480663702e+16
5.36336387885745e+16
5.3330383832321e+16
5.3023273467063e+16
5.27122980987554e+16
5.23974482579611e+16
5.20787145289449e+16
5.17560875427407e+16
5.142955840921e+16
5.10991192332993e+16
5.07647614226108e+16
5.04264711023697e+16
5.0084232532737e+16
4.97380549651737e+16
4.93879662589793e+16
4.90339073050867e+16
4.86758680117242e+16
4.83138395428451e+16
4.79478105752037e+16
4.75777698532461e+16
4.72037063225394e+16
4.68256091888341e+16
4.6443467939547e+16
4.60572723480731e+16
4.56670124752715e+16
4.5272678670631e+16
4.48742615726891e+16
4.4471752109777e+16
4.40651415013751e+16
4.36544212591346e+16
4.32395831884105e+16
4.28206193905739e+16
4.23975222650827e+16
4.19702845126365e+16
4.15388991389058e+16
4.11033594587458e+16
4.06636591015877e+16
4.02197920180716e+16
3.97717524875414e+16
3.93195351273736e+16
3.88631349043292e+16
3.84025471475014e+16
3.79377675643547e+16
3.7468792259695e+16
3.69956177579887e+16
3.65182410301902e+16
3.60366595256975e+16
3.55508712099763e+16
3.50608746096162e+16
3.45666688658448e+16
3.40682537978432e+16
3.3565629978334e+16
3.305879882352e+16
3.2547762699797e+16
3.20325250509927e+16
3.15130905515276e+16
3.09894652838262e+16
3.04616569652659e+16
2.99296751813511e+16
2.93935317607684e+16
2.88532410095032e+16
2.83088204178154e+16
2.77602907843063e+16
2.72076775093134e+16
2.66510103716499e+16
2.60903258729986e+16
2.55256680988839e+16
2.49570833519233e+16
2.43846503906411e+16
2.38084050964538e+16
2.32285183788857e+16
2.26449169121497e+16
2.20581476131797e+16
2.14674407673719e+16
2.08747782982295e+16
2.02773734751366e+16
1.96803175400558e+16
1.90760098558667e+16
1.84753159919462e+16
1.78863858919205e+16
1.72905031303423e+16
1.66903878710389e+16
1.60916135707624e+16
1.54936372302331e+16
1.49092583243266e+16
1.43252739637809e+16
1.3760869593441e+16
1.32025716110393e+16
1.26214117253312e+16
1.20734715174701e+16
1.15610110035e+16
1.10276586906889e+16
1.05149653494205e+16
1.005636775785e+16
9.58015978828502e+15
9.12886004824951e+15
8.74297808214587e+15
8.32434008059961e+15
7.95621725665457e+15
7.63785299266281e+15
7.30019735557829e+15
6.99536779428538e+15
6.75289009313894e+15
6.4918694714935e+15
6.25801370060005e+15
6.05210913715817e+15
5.90078517087065e+15
5.70346407127307e+15
5.555692190863e+15
5.41166116206406e+15
5.32390357979457e+15
5.23148843704364e+15
5.15879377134205e+15
5.09960432834312e+15
5.09704309629317e+15
5.10799643969306e+15
5.14425045387658e+15
5.14458798008752e+15
5.12891985064882e+15
5.09345007064919e+15
5.04585064707594e+15
4.99573342395417e+15
4.94633306962836e+15
4.89990340553332e+15
4.85735425618515e+15
4.81945939691847e+15
4.77005466961774e+15
4.71669443828651e+15
4.66752489080212e+15
4.6231567617834e+15
4.58240798978412e+15
4.54589024953614e+15
4.51241313133531e+15
4.48264644469074e+15
4.45542899440496e+15
4.4314515898068e+15
4.40961038778814e+15
4.39065763247738e+15
4.35902399572953e+15
4.32860169266272e+15
4.29931214930316e+15
4.27283825768815e+15
4.24717643088004e+15
4.22408222963186e+15
4.20153136353076e+15
4.18134477337839e+15
4.16147831533799e+15
4.14381413544676e+15
4.12629106423026e+15
4.11084855785665e+15
4.09540591232419e+15
4.08195480745903e+15
4.06838907747358e+15
4.05674705738986e+15
4.0419466201605e+15
4.02128072937501e+15
4.00048951062396e+15
3.98140432039963e+15
3.9620973176894e+15
3.94443023300152e+15
3.92645694210171e+15
3.91007839945702e+15
3.89331408688114e+15
3.87812373445296e+15
3.86246282568962e+15
3.84838210318638e+15
3.83373342701036e+15
3.82069746044311e+15
3.8069843274547e+15
3.79493592521066e+15
3.78210180306799e+15
3.77098427613768e+15
3.75898549671303e+15
3.7487478454595e+15
3.73754127927807e+15
3.72814517732762e+15
3.71768481761073e+15
3.7090994686373e+15
3.69369287245697e+15
3.67911085271451e+15
3.66317899764867e+15
3.6493982357644e+15
3.63416255897226e+15
3.62114391665388e+15
3.60656146206039e+15
3.59426378566721e+15
3.58029849916305e+15
3.5686861628262e+15
3.55529855344741e+15
3.54434376951772e+15
3.53150140878844e+15
3.52117418253439e+15
3.5088494601251e+15
3.49912491897784e+15
3.48728777582486e+15
3.47813970286099e+15
3.46676511689475e+15
3.45816105791356e+15
3.44721162964558e+15
3.43912730353056e+15
3.42858186173825e+15
3.42099687688384e+15
3.41083674965321e+15
3.40373575372767e+15
3.39392313344002e+15
3.38727279798276e+15
3.37779206876264e+15
3.37156869732215e+15
3.36237111472505e+15
3.35654289163732e+15
3.3475676872668e+15
3.34099386175166e+15
3.32304518166425e+15
)
;

boundaryField
{
    electrode
    {
        type            driftDiffusionPositiveIonDensity;
        seec            0;
        fieldName       Arp1;
        value           uniform 6.61991027138905e+16;
    }
    ground
    {
        type            driftDiffusionPositiveIonDensity;
        seec            0;
        fieldName       Arp1;
        value           uniform 3.32304518166425e+15;
    }
    otherfaces
    {
        type            empty;
    }
}


// ************************************************************************* //
