/*--------------------------------*- C++ -*----------------------------------*\
| =========                 |                                                 |
| \\      /  F ield         | foam-extend: Open Source CFD                    |
|  \\    /   O peration     | Version:     4.0                                |
|   \\  /    A nd           | Web:         http://www.foam-extend.org         |
|    \\/     M anipulation  |                                                 |
\*---------------------------------------------------------------------------*/
FoamFile
{
    version     2.0;
    format      ascii;
    class       volVectorField;
    location    "8e-06";
    object      E;
}
// * * * * * * * * * * * * * * * * * * * * * * * * * * * * * * * * * * * * * //

dimensions      [0 0 0 1 0 0 0];

internalField   nonuniform List<vector> 
300
(
(5.43254606716337 -0 -0)
(11.0146223350482 -0 -0)
(19.4017098470445 -0 -0)
(27.1723667732984 -0 -0)
(34.8983545103702 -0 -0)
(42.692095250652 -0 -0)
(50.479296084816 -0 -0)
(58.2814705163403 -0 -0)
(66.0995048570874 -0 -0)
(73.9337408253722 -0 -0)
(81.7864071758751 -0 -0)
(89.6591017013346 -0 -0)
(97.5535058650455 -0 -0)
(105.471337380478 -0 -0)
(113.414309635408 -0 -0)
(121.384151351157 -0 -0)
(129.382604047154 -0 -0)
(137.411422503066 -0 -0)
(145.472376024415 -0 -0)
(153.567249146222 -0 -0)
(161.697842503141 -0 -0)
(169.865973737028 -0 -0)
(178.073478408755 -0 -0)
(186.322210843361 -0 -0)
(194.614045191668 -0 -0)
(202.950876254655 -0 -0)
(211.334620561778 -0 -0)
(219.767217365943 -0 -0)
(228.250629621946 -0 -0)
(236.786845118911 -0 -0)
(245.377877525236 -0 -0)
(254.025767495951 -0 -0)
(262.732583884732 -0 -0)
(271.50042487964 -0 -0)
(280.331419244494 -0 -0)
(289.227727567928 -0 -0)
(298.191543586542 -0 -0)
(307.225095501288 -0 -0)
(316.330647388873 -0 -0)
(325.510500645586 -0 -0)
(334.766995428658 -0 -0)
(344.102512255009 -0 -0)
(353.519473536602 -0 -0)
(363.02034531331 -0 -0)
(372.607638893276 -0 -0)
(382.283912675515 -0 -0)
(392.051774007672 -0 -0)
(401.913881072119 -0 -0)
(411.872944974842 -0 -0)
(421.93173170743 -0 -0)
(432.093064436967 -0 -0)
(442.359825698944 -0 -0)
(452.734959779842 -0 -0)
(463.221475186007 -0 -0)
(473.822447169582 -0 -0)
(484.541020494183 -0 -0)
(495.380412141081 -0 -0)
(506.343914280555 -0 -0)
(517.434897341526 -0 -0)
(528.656813184088 -0 -0)
(540.0131984829 -0 -0)
(551.507678217433 -0 -0)
(563.143969314957 -0 -0)
(574.925884558375 -0 -0)
(586.857336576256 -0 -0)
(598.942342097733 -0 -0)
(611.185026376596 -0 -0)
(623.589627864059 -0 -0)
(636.160503084186 -0 -0)
(648.902131794642 -0 -0)
(661.819122396581 -0 -0)
(674.916217563512 -0 -0)
(688.198300263854 -0 -0)
(701.670400028578 -0 -0)
(715.337699587554 -0 -0)
(729.205541778811 -0 -0)
(743.279436957041 -0 -0)
(757.565070679049 -0 -0)
(772.06831191203 -0 -0)
(786.795221582708 -0 -0)
(801.752061695226 -0 -0)
(816.945304917077 -0 -0)
(832.381644702398 -0 -0)
(848.068006004204 -0 -0)
(864.011556596462 -0 -0)
(880.219719012572 -0 -0)
(896.700183285292 -0 -0)
(913.460920391829 -0 -0)
(930.510196253488 -0 -0)
(947.85658659872 -0 -0)
(965.508993568218 -0 -0)
(983.476664435743 -0 -0)
(1001.76920846555 -0 -0)
(1020.3966054904 -0 -0)
(1039.36921923682 -0 -0)
(1058.69786774387 -0 -0)
(1078.39393961318 -0 -0)
(1098.46926152601 -0 -0)
(1118.93544809682 -0 -0)
(1139.80399158176 -0 -0)
(1161.08975529138 -0 -0)
(1182.8141881652 -0 -0)
(1204.99856310225 -0 -0)
(1227.65955735796 -0 -0)
(1250.81322833049 -0 -0)
(1274.4763954854 -0 -0)
(1298.6666823087 -0 -0)
(1323.40257150849 -0 -0)
(1348.7034658631 -0 -0)
(1374.5897469189 -0 -0)
(1401.08283736991 -0 -0)
(1428.20526782151 -0 -0)
(1455.98074874462 -0 -0)
(1484.43424814335 -0 -0)
(1513.59207553341 -0 -0)
(1543.48197271112 -0 -0)
(1574.13321220395 -0 -0)
(1605.57670394343 -0 -0)
(1637.84511101434 -0 -0)
(1670.97297554975 -0 -0)
(1704.99685560063 -0 -0)
(1739.9554742583 -0 -0)
(1775.88988224966 -0 -0)
(1812.84363554878 -0 -0)
(1850.86298947997 -0 -0)
(1889.99711122372 -0 -0)
(1930.29831292451 -0 -0)
(1971.82230742516 -0 -0)
(2014.62848955801 -0 -0)
(2058.780245909 -0 -0)
(2104.34529627864 -0 -0)
(2151.39607105137 -0 -0)
(2200.01012859765 -0 -0)
(2250.27061788823 -0 -0)
(2302.26679215931 -0 -0)
(2356.09458018611 -0 -0)
(2411.85722278887 -0 -0)
(2469.66598363873 -0 -0)
(2529.64094407421 -0 -0)
(2591.91189436545 -0 -0)
(2656.61933452227 -0 -0)
(2723.91560110249 -0 -0)
(2793.96613837245 -0 -0)
(2866.95093564996 -0 -0)
(2943.06615684664 -0 -0)
(3022.52599097075 -0 -0)
(3105.5647625972 -0 -0)
(3192.43933629034 -0 -0)
(3283.43187955627 -0 -0)
(3378.85302243605 -0 -0)
(3479.04551236993 -0 -0)
(3584.38839691757 -0 -0)
(3695.30194731689 -0 -0)
(3812.25332340873 -0 -0)
(3935.76283089149 -0 -0)
(4066.41278583905 -0 -0)
(4204.85408098339 -0 -0)
(4351.82126507976 -0 -0)
(4508.13559359127 -0 -0)
(4674.74517621326 -0 -0)
(4852.67868152491 -0 -0)
(5043.20142975852 -0 -0)
(5247.64362326206 -0 -0)
(5467.74406548651 -0 -0)
(5705.1687078847 -0 -0)
(5962.9144081424 -0 -0)
(6247.32085917219 -0 -0)
(6563.2820505015 -0 -0)
(6913.04926987227 -0 -0)
(7300.27889583454 -0 -0)
(7730.59035946075 -0 -0)
(8212.5209749466 -0 -0)
(8755.5040637104 -0 -0)
(9370.71261955342 -0 -0)
(10069.5449085526 -0 -0)
(10855.7794991323 -0 -0)
(11738.9222272916 -0 -0)
(12739.5288480477 -0 -0)
(13867.1387788227 -0 -0)
(15127.142214144 -0 -0)
(16538.2171331723 -0 -0)
(18109.3263278387 -0 -0)
(19840.7041054117 -0 -0)
(21746.4496272948 -0 -0)
(23824.3177507212 -0 -0)
(26064.6864827226 -0 -0)
(28472.7128721572 -0 -0)
(31032.7944675716 -0 -0)
(33721.0449599719 -0 -0)
(36532.065847242 -0 -0)
(39445.4184100196 -0 -0)
(42430.1885264264 -0 -0)
(45468.8744039316 -0 -0)
(48553.7963276503 -0 -0)
(51659.4185221191 -0 -0)
(54760.7519173149 -0 -0)
(57851.1312294254 -0 -0)
(60930.6146135323 -0 -0)
(63999.5536576897 -0 -0)
(67055.1925057611 -0 -0)
(70093.5158592212 -0 -0)
(73126.4358037432 -0 -0)
(76178.3611812282 -0 -0)
(79254.9196661486 -0 -0)
(82347.1294660538 -0 -0)
(85438.7560061503 -0 -0)
(88517.6020394119 -0 -0)
(91573.0682957174 -0 -0)
(94599.9600461334 -0 -0)
(97597.2465236612 -0 -0)
(100565.820471657 -0 -0)
(103507.6594879 -0 -0)
(106425.296126555 -0 -0)
(109316.638250284 -0 -0)
(112177.007655015 -0 -0)
(115006.468516514 -0 -0)
(117807.728227065 -0 -0)
(120583.324206055 -0 -0)
(123335.617846777 -0 -0)
(126066.799234331 -0 -0)
(128778.907597512 -0 -0)
(131473.828683897 -0 -0)
(134153.308676198 -0 -0)
(136818.971609267 -0 -0)
(139472.333087419 -0 -0)
(142110.44086841 -0 -0)
(144729.836966066 -0 -0)
(147331.22929587 -0 -0)
(149915.809655228 -0 -0)
(152484.673083976 -0 -0)
(155038.839762764 -0 -0)
(157579.248760215 -0 -0)
(160106.777741119 -0 -0)
(162622.236976266 -0 -0)
(165126.387797361 -0 -0)
(167619.937459827 -0 -0)
(170103.556447321 -0 -0)
(172577.872511689 -0 -0)
(175043.486531571 -0 -0)
(177500.96486984 -0 -0)
(179950.853207252 -0 -0)
(182392.779237281 -0 -0)
(184824.021641506 -0 -0)
(187242.773696597 -0 -0)
(189649.51205583 -0 -0)
(192044.684253406 -0 -0)
(194428.717846735 -0 -0)
(196802.014905754 -0 -0)
(199164.963850293 -0 -0)
(201517.929076257 -0 -0)
(203861.268692555 -0 -0)
(206195.315216555 -0 -0)
(208520.403030351 -0 -0)
(210836.837137672 -0 -0)
(213144.932290552 -0 -0)
(215444.970529324 -0 -0)
(217737.249151201 -0 -0)
(220022.032979595 -0 -0)
(222299.602683909 -0 -0)
(224570.209708659 -0 -0)
(226834.119183348 -0 -0)
(229091.56973427 -0 -0)
(231342.814886764 -0 -0)
(233588.079412976 -0 -0)
(235827.60754369 -0 -0)
(238059.907308531 -0 -0)
(240283.169956662 -0 -0)
(242497.236830946 -0 -0)
(244702.349341303 -0 -0)
(246898.717217127 -0 -0)
(249086.570050435 -0 -0)
(251266.104652125 -0 -0)
(253437.538280022 -0 -0)
(255601.056819939 -0 -0)
(257756.866786409 -0 -0)
(259905.142250805 -0 -0)
(262046.081336591 -0 -0)
(264179.848320879 -0 -0)
(266306.632300982 -0 -0)
(268426.589233711 -0 -0)
(270539.900723156 -0 -0)
(272646.713687606 -0 -0)
(274747.201798258 -0 -0)
(276841.504392757 -0 -0)
(278929.785467254 -0 -0)
(281012.173085349 -0 -0)
(283088.823841094 -0 -0)
(285159.859551792 -0 -0)
(287225.430610579 -0 -0)
(289285.653042542 -0 -0)
(291340.672814054 -0 -0)
(293390.594492438 -0 -0)
(295435.553830189 -0 -0)
(297475.650866035 -0 -0)
(299511.014057174 -0 -0)
(301541.728473081 -0 -0)
(303567.912502072 -0 -0)
(305589.632514522 -0 -0)
(307606.672773961 -0 -0)
(309616.315220124 -0 -0)
)
;

boundaryField
{
    electrode
    {
        type            calculated;
        value           uniform (4.28950231707859 -0 -0);
    }
    ground
    {
        type            calculated;
        value           uniform (310618.424155159 -0 -0);
    }
    otherfaces
    {
        type            empty;
    }
}


// ************************************************************************* //
