/*--------------------------------*- C++ -*----------------------------------*\
| =========                 |                                                 |
| \\      /  F ield         | foam-extend: Open Source CFD                    |
|  \\    /   O peration     | Version:     4.0                                |
|   \\  /    A nd           | Web:         http://www.foam-extend.org         |
|    \\/     M anipulation  |                                                 |
\*---------------------------------------------------------------------------*/
FoamFile
{
    version     2.0;
    format      ascii;
    class       volScalarField;
    location    "8e-06";
    object      electron;
}
// * * * * * * * * * * * * * * * * * * * * * * * * * * * * * * * * * * * * * //

dimensions      [0 0 0 1 0 0 0];

internalField   nonuniform List<scalar> 
300
(
6.63939112221775e+16
6.63921366892802e+16
6.63875622545841e+16
6.63797976737174e+16
6.63689044420035e+16
6.63548582450283e+16
6.63376533420958e+16
6.63172890503641e+16
6.62937621322347e+16
6.62670698108505e+16
6.62372091149867e+16
6.62041768254941e+16
6.61679695400203e+16
6.61285836528734e+16
6.60860153573647e+16
6.60402606475423e+16
6.59913153184942e+16
6.59391749673515e+16
6.58838349942822e+16
6.58252906035537e+16
6.57635368047023e+16
6.56985684137843e+16
6.56303800547116e+16
6.55589661606868e+16
6.54843209757228e+16
6.54064385562558e+16
6.532531277286e+16
6.52409373120425e+16
6.51533056781453e+16
6.50624111953417e+16
6.49682470097254e+16
6.48708060915076e+16
6.47700812373065e+16
6.46660650725352e+16
6.45587500538965e+16
6.44481284719783e+16
6.43341924539495e+16
6.42169339663606e+16
6.40963448180487e+16
6.39724166631415e+16
6.38451410041713e+16
6.37145091952918e+16
6.35805124455993e+16
6.3443141822555e+16
6.33023882555124e+16
6.31582425393534e+16
6.30106953382197e+16
6.28597371893543e+16
6.27053585070353e+16
6.25475495866173e+16
6.23863006086722e+16
6.22216016432205e+16
6.20534426540653e+16
6.18818135032172e+16
6.1706703955414e+16
6.15281036827256e+16
6.1346002269247e+16
6.11603892158837e+16
6.09712539452094e+16
6.07785858064064e+16
6.05823740802795e+16
6.03826079843382e+16
6.01792766779538e+16
5.99723692675752e+16
5.97618748120002e+16
5.95477823277056e+16
5.9330080794223e+16
5.91087591595594e+16
5.88838063456565e+16
5.86552112538808e+16
5.84229627705357e+16
5.81870497723996e+16
5.79474611322754e+16
5.77041857245413e+16
5.74572124307003e+16
5.7206530144924e+16
5.69521277795781e+16
5.6693994270719e+16
5.64321185835568e+16
5.61664897178745e+16
5.58970967133982e+16
5.56239286550987e+16
5.53469746784236e+16
5.50662239744449e+16
5.47816657949128e+16
5.44932894572069e+16
5.42010843491691e+16
5.39050399337971e+16
5.36051457538201e+16
5.33013914361677e+16
5.29937666962113e+16
5.26822613415664e+16
5.23668652757102e+16
5.20475685027243e+16
5.17243611333975e+16
5.13972333859276e+16
5.10661755720271e+16
5.07311780938046e+16
5.03922315273724e+16
5.00493267414431e+16
4.97024545739404e+16
4.93516047231975e+16
4.89967651316041e+16
4.86379227925572e+16
4.82750646153407e+16
4.79081776491875e+16
4.75372491298159e+16
4.71622664894606e+16
4.67832173548438e+16
4.64000895414987e+16
4.60128710466812e+16
4.56215500414459e+16
4.52261148620259e+16
4.48265540005075e+16
4.44228560947491e+16
4.40150099174892e+16
4.36030043645676e+16
4.3186828442176e+16
4.27664712530642e+16
4.23419219816039e+16
4.19131698776059e+16
4.14802042387888e+16
4.10430143917788e+16
4.06015896715053e+16
4.01559193988536e+16
3.97059928564271e+16
3.92517992622342e+16
3.87933277411185e+16
3.83305672937337e+16
3.78635067628224e+16
3.73921347965639e+16
3.69164398087156e+16
3.64364099352393e+16
3.59520329870967e+16
3.54632963988431e+16
3.49701871726218e+16
3.44726918171317e+16
3.397079628108e+16
3.34644858806072e+16
3.29537452201149e+16
3.24385581058737e+16
3.19189074517523e+16
3.13947751763375e+16
3.08661420906958e+16
3.03329877759322e+16
2.9795290449765e+16
2.92530268211081e+16
2.87061719320516e+16
2.81546989860861e+16
2.75985791621121e+16
2.70377814132753e+16
2.64722722513392e+16
2.59020155158328e+16
2.53269721214463e+16
2.47470998215752e+16
2.41623528951053e+16
2.35726819423186e+16
2.29780334813043e+16
2.2378350017478e+16
2.17735689165669e+16
2.11636238588347e+16
2.05484417376887e+16
1.99279437209389e+16
1.93020383825871e+16
1.86706190805747e+16
1.80335299870958e+16
1.7390402474042e+16
1.67406485393302e+16
1.6083711514999e+16
1.54191692551769e+16
1.4746663140018e+16
1.4065800903903e+16
1.33761391054426e+16
1.26772584234492e+16
1.19688766761357e+16
1.12512314014878e+16
1.05252565668554e+16
9.79226804644572e+15
9.05415320884469e+15
8.31385310627025e+15
7.57519157133571e+15
6.84283208447026e+15
6.12245428187296e+15
5.42051089931147e+15
4.74403270004242e+15
4.10043439675436e+15
3.49685780824271e+15
2.93969309245241e+15
2.43426291042309e+15
1.98424100378957e+15
1.5913535023954e+15
1.25538758781558e+15
974223877697409
744044164857950
559711659685245
415125418844804
304167254117679
220635349432349
158698093699017
112750090672530
78079014887992.2
52889113690706.8
34985571292705.5
22161998134697
13469432792094.2
8050003103184.18
4933308706451.8
3227140432444.3
2301267164365.31
1789341376851.6
1498390203137.26
1329179575266.89
1229563171671.33
1171205821947.36
1138083910498.71
1120580961987.17
1112597907222.54
1110124722941.98
1110505580740.7
1112266171377.77
1114222614546.77
1115498655330.6
1115692396657.92
1114447825328.11
1111554300202.12
1106910905785.85
1100493115153.91
1092330046973.95
1082488585296.15
1071062515397.19
1058164355436.81
1043919043978.63
1028458979325.12
1011920097093.21
994438771875.397
976149344704.154
957182263900.57
937662053563.246
917707006280.972
897417732018.202
876885772689.845
856207319133.981
835474575747.043
814772761373.186
794178945813.909
773761610412.209
753580937020.542
733689198629.932
714131230338.419
694944931797.524
676161786307.69
657807393067.241
639901989189.76
622461093118.126
605496038359.421
589016089975.052
573024143238.445
557516528154.904
542491939991.696
527948174750.038
513878878711.692
500276161679.957
487130854000.584
474432874233.321
462171354449.409
450334994999.089
438912400129.833
427892027331.479
417262080482.006
407010474117.55
397124574958.443
387588746247.053
378378012587.144
369471622480.837
360859697400.954
352533388669.781
344484942742.414
336707163827.737
329193481033.047
321937996343.77
314935532800.102
308181750936.148
301672318192.304
295402934637.597
289349609002.031
283481353720.517
277795324361.812
272305905203.562
267029742561.404
261983894336.377
257133147298.525
252458943014.317
248018226740.174
243836350020.164
239934681943.271
236404961597.155
233381741259.901
231141483778.331
230184164529.94
231344592659.644
)
;

boundaryField
{
    electrode
    {
        type            driftDiffusionElectronDensity;
        seec            0.05;
        Edepend         1;
        field_emission  0;
        field_enhancement_factor 55;
        work_function   5;
        value           uniform 6.63939112221775e+16;
    }
    ground
    {
        type            driftDiffusionElectronDensity;
        seec            0.05;
        Edepend         1;
        field_emission  0;
        field_enhancement_factor 55;
        work_function   5;
        value           uniform 233586628585.937;
    }
    otherfaces
    {
        type            empty;
    }
}


// ************************************************************************* //
