/*--------------------------------*- C++ -*----------------------------------*\
| =========                 |                                                 |
| \\      /  F ield         | foam-extend: Open Source CFD                    |
|  \\    /   O peration     | Version:     4.0                                |
|   \\  /    A nd           | Web:         http://www.foam-extend.org         |
|    \\/     M anipulation  |                                                 |
\*---------------------------------------------------------------------------*/
FoamFile
{
    version     2.0;
    format      ascii;
    class       volVectorField;
    location    "8e-06";
    object      J_Arp1;
}
// * * * * * * * * * * * * * * * * * * * * * * * * * * * * * * * * * * * * * //

dimensions      [1 -1 -1 0 0 0 0];

internalField   nonuniform List<vector> 
300
(
(2.03928774273462e+16 -0 -0)
(7.29414813242555e+16 -0 -0)
(1.30071196004752e+17 -0 -0)
(1.80907969880691e+17 -0 -0)
(2.32442790737849e+17 -0 -0)
(2.84291667888115e+17 -0 -0)
(3.36006204225419e+17 -0 -0)
(3.87779373172463e+17 -0 -0)
(4.39582351153791e+17 -0 -0)
(4.91414520535944e+17 -0 -0)
(5.43283375779085e+17 -0 -0)
(5.95191184251825e+17 -0 -0)
(6.47141405267341e+17 -0 -0)
(6.99137472928168e+17 -0 -0)
(7.51182703444643e+17 -0 -0)
(8.03280425525759e+17 -0 -0)
(8.55433939342731e+17 -0 -0)
(9.07646518368198e+17 -0 -0)
(9.59921410131726e+17 -0 -0)
(1.01226183355695e+18 -0 -0)
(1.06467097758909e+18 -0 -0)
(1.11715199978471e+18 -0 -0)
(1.16970802485374e+18 -0 -0)
(1.22234214256763e+18 -0 -0)
(1.27505740692708e+18 -0 -0)
(1.3278568336701e+18 -0 -0)
(1.38074339919264e+18 -0 -0)
(1.43372003876028e+18 -0 -0)
(1.48678964446395e+18 -0 -0)
(1.53995506392631e+18 -0 -0)
(1.59321909821726e+18 -0 -0)
(1.64658450001216e+18 -0 -0)
(1.70005397215303e+18 -0 -0)
(1.75363016544694e+18 -0 -0)
(1.80731567695957e+18 -0 -0)
(1.86111304803943e+18 -0 -0)
(1.91502476252849e+18 -0 -0)
(1.96905324470159e+18 -0 -0)
(2.02320085743922e+18 -0 -0)
(2.07746990029401e+18 -0 -0)
(2.13186260726983e+18 -0 -0)
(2.18638114517228e+18 -0 -0)
(2.24102761121306e+18 -0 -0)
(2.29580403152032e+18 -0 -0)
(2.35071235860423e+18 -0 -0)
(2.40575446956227e+18 -0 -0)
(2.4609321641124e+18 -0 -0)
(2.51624716227327e+18 -0 -0)
(2.5717011028403e+18 -0 -0)
(2.62729554063102e+18 -0 -0)
(2.68303194513611e+18 -0 -0)
(2.73891169805881e+18 -0 -0)
(2.79493609147426e+18 -0 -0)
(2.85110632584166e+18 -0 -0)
(2.90742350774164e+18 -0 -0)
(2.96388864844088e+18 -0 -0)
(3.02050266134704e+18 -0 -0)
(3.07726636030988e+18 -0 -0)
(3.13418045780666e+18 -0 -0)
(3.19124556285023e+18 -0 -0)
(3.24846217931159e+18 -0 -0)
(3.30583070403125e+18 -0 -0)
(3.36335142480688e+18 -0 -0)
(3.42102451896764e+18 -0 -0)
(3.4788500514248e+18 -0 -0)
(3.53682797308554e+18 -0 -0)
(3.59495811911611e+18 -0 -0)
(3.65324020745731e+18 -0 -0)
(3.71167383713453e+18 -0 -0)
(3.77025848686688e+18 -0 -0)
(3.82899351370334e+18 -0 -0)
(3.88787815129909e+18 -0 -0)
(3.94691150884646e+18 -0 -0)
(4.00609256972812e+18 -0 -0)
(4.06542019034976e+18 -0 -0)
(4.12489309864899e+18 -0 -0)
(4.18450989338651e+18 -0 -0)
(4.24426904277637e+18 -0 -0)
(4.30416888374888e+18 -0 -0)
(4.36420762073941e+18 -0 -0)
(4.42438332498227e+18 -0 -0)
(4.48469393364018e+18 -0 -0)
(4.54513724905403e+18 -0 -0)
(4.6057109380382e+18 -0 -0)
(4.66641253122261e+18 -0 -0)
(4.72723942230649e+18 -0 -0)
(4.78818886784693e+18 -0 -0)
(4.84925798694329e+18 -0 -0)
(4.91044375960789e+18 -0 -0)
(4.97174302489128e+18 -0 -0)
(5.03315248382816e+18 -0 -0)
(5.09466870995243e+18 -0 -0)
(5.15628814462271e+18 -0 -0)
(5.21800703627275e+18 -0 -0)
(5.2798213861935e+18 -0 -0)
(5.34172721383532e+18 -0 -0)
(5.40372114177314e+18 -0 -0)
(5.46579963369783e+18 -0 -0)
(5.52795505651811e+18 -0 -0)
(5.59017524201694e+18 -0 -0)
(5.6524633356681e+18 -0 -0)
(5.71485667764046e+18 -0 -0)
(5.77737654504105e+18 -0 -0)
(5.84002091270781e+18 -0 -0)
(5.90278339629252e+18 -0 -0)
(5.96565721337592e+18 -0 -0)
(6.02863530906673e+18 -0 -0)
(6.0917104893463e+18 -0 -0)
(6.15487546358378e+18 -0 -0)
(6.21812285176786e+18 -0 -0)
(6.28144518484181e+18 -0 -0)
(6.34483490200838e+18 -0 -0)
(6.40828434752275e+18 -0 -0)
(6.47178576710852e+18 -0 -0)
(6.53533130434031e+18 -0 -0)
(6.59891299659436e+18 -0 -0)
(6.66252277133228e+18 -0 -0)
(6.72615244192622e+18 -0 -0)
(6.78979370325163e+18 -0 -0)
(6.85343812742269e+18 -0 -0)
(6.91707715901455e+18 -0 -0)
(6.98070211023637e+18 -0 -0)
(7.04430415568035e+18 -0 -0)
(7.10787432708362e+18 -0 -0)
(7.17140350753051e+18 -0 -0)
(7.23488242525944e+18 -0 -0)
(7.29830164763797e+18 -0 -0)
(7.3616515741855e+18 -0 -0)
(7.42492242950039e+18 -0 -0)
(7.48810425594501e+18 -0 -0)
(7.5511869053697e+18 -0 -0)
(7.61416003094764e+18 -0 -0)
(7.67701307814082e+18 -0 -0)
(7.73973527521507e+18 -0 -0)
(7.8023156233053e+18 -0 -0)
(7.86474288582444e+18 -0 -0)
(7.92700557708974e+18 -0 -0)
(7.9890919508126e+18 -0 -0)
(8.05098998702751e+18 -0 -0)
(8.11268737935644e+18 -0 -0)
(8.17417152056049e+18 -0 -0)
(8.23542948785723e+18 -0 -0)
(8.29644802771745e+18 -0 -0)
(8.35721353784404e+18 -0 -0)
(8.41771205415571e+18 -0 -0)
(8.47792922164768e+18 -0 -0)
(8.53785030208948e+18 -0 -0)
(8.59746009804632e+18 -0 -0)
(8.6567430314525e+18 -0 -0)
(8.71568296892937e+18 -0 -0)
(8.77426343999724e+18 -0 -0)
(8.83246721010901e+18 -0 -0)
(8.89027678978082e+18 -0 -0)
(8.94767463290839e+18 -0 -0)
(9.00463897620937e+18 -0 -0)
(9.06115894282686e+18 -0 -0)
(9.11719599848134e+18 -0 -0)
(9.17276926749144e+18 -0 -0)
(9.22776557583795e+18 -0 -0)
(9.28238401531103e+18 -0 -0)
(9.33611080260764e+18 -0 -0)
(9.38986948511669e+18 -0 -0)
(9.44210577254542e+18 -0 -0)
(9.49542397889053e+18 -0 -0)
(9.54556121872988e+18 -0 -0)
(9.59828105634729e+18 -0 -0)
(9.64847721371949e+18 -0 -0)
(9.69853095102429e+18 -0 -0)
(9.74773281503088e+18 -0 -0)
(9.79684379478605e+18 -0 -0)
(9.84389288222563e+18 -0 -0)
(9.89313330629351e+18 -0 -0)
(9.93707180497248e+18 -0 -0)
(9.98679273643409e+18 -0 -0)
(1.00289692967188e+19 -0 -0)
(1.0072981932294e+19 -0 -0)
(1.01178227404592e+19 -0 -0)
(1.01610254509223e+19 -0 -0)
(1.01975410650253e+19 -0 -0)
(1.02403559911165e+19 -0 -0)
(1.02796445886563e+19 -0 -0)
(1.0311541874102e+19 -0 -0)
(1.03493647039231e+19 -0 -0)
(1.03853903070773e+19 -0 -0)
(1.04077872695426e+19 -0 -0)
(1.04480679248789e+19 -0 -0)
(1.04683619198477e+19 -0 -0)
(1.04980516510998e+19 -0 -0)
(1.05189251690935e+19 -0 -0)
(1.05512649667553e+19 -0 -0)
(1.05622902852211e+19 -0 -0)
(1.05984812367919e+19 -0 -0)
(1.06103277303921e+19 -0 -0)
(1.06534163863203e+19 -0 -0)
(1.06611806948207e+19 -0 -0)
(1.07206126591838e+19 -0 -0)
(1.07369107961577e+19 -0 -0)
(1.08205719925882e+19 -0 -0)
(1.08677519350483e+19 -0 -0)
(1.10092075100852e+19 -0 -0)
(1.11503873310084e+19 -0 -0)
(1.13922682334466e+19 -0 -0)
(1.1647097239608e+19 -0 -0)
(1.19441424269439e+19 -0 -0)
(1.21405578866521e+19 -0 -0)
(1.23574428518949e+19 -0 -0)
(1.25196345076113e+19 -0 -0)
(1.26326474674523e+19 -0 -0)
(1.27197254252058e+19 -0 -0)
(1.27897399314939e+19 -0 -0)
(1.28495681033972e+19 -0 -0)
(1.29028249083266e+19 -0 -0)
(1.29529520005799e+19 -0 -0)
(1.29991172804044e+19 -0 -0)
(1.30460745400645e+19 -0 -0)
(1.30911544180409e+19 -0 -0)
(1.31373533939889e+19 -0 -0)
(1.31824047052793e+19 -0 -0)
(1.32290028782658e+19 -0 -0)
(1.32745371829527e+19 -0 -0)
(1.33217019814302e+19 -0 -0)
(1.33677111797762e+19 -0 -0)
(1.34151949219952e+19 -0 -0)
(1.34613259626898e+19 -0 -0)
(1.35089541986536e+19 -0 -0)
(1.35542307919395e+19 -0 -0)
(1.36021244929855e+19 -0 -0)
(1.36468693853669e+19 -0 -0)
(1.36942168810339e+19 -0 -0)
(1.3738154519463e+19 -0 -0)
(1.37846771420777e+19 -0 -0)
(1.38275167969056e+19 -0 -0)
(1.38729215846364e+19 -0 -0)
(1.39143908383497e+19 -0 -0)
(1.39584249428148e+19 -0 -0)
(1.39983172268528e+19 -0 -0)
(1.40408169451788e+19 -0 -0)
(1.40790178742187e+19 -0 -0)
(1.41199071657968e+19 -0 -0)
(1.41563708284249e+19 -0 -0)
(1.41956400606196e+19 -0 -0)
(1.4230291115969e+19 -0 -0)
(1.4267722406822e+19 -0 -0)
(1.43009135262884e+19 -0 -0)
(1.43365985161777e+19 -0 -0)
(1.43680049143375e+19 -0 -0)
(1.440199549285e+19 -0 -0)
(1.44316151889574e+19 -0 -0)
(1.44639472849676e+19 -0 -0)
(1.44918004926369e+19 -0 -0)
(1.45225533539748e+19 -0 -0)
(1.45486713810346e+19 -0 -0)
(1.45779525409975e+19 -0 -0)
(1.46023700577565e+19 -0 -0)
(1.46302940052417e+19 -0 -0)
(1.46530572285271e+19 -0 -0)
(1.46797291524561e+19 -0 -0)
(1.47009247109148e+19 -0 -0)
(1.47264177977106e+19 -0 -0)
(1.4746150730396e+19 -0 -0)
(1.47705298451722e+19 -0 -0)
(1.47888795557377e+19 -0 -0)
(1.48122322845558e+19 -0 -0)
(1.48292415366079e+19 -0 -0)
(1.48516986171987e+19 -0 -0)
(1.48672416269907e+19 -0 -0)
(1.48891236514908e+19 -0 -0)
(1.49034773351794e+19 -0 -0)
(1.49245817127454e+19 -0 -0)
(1.493778552046e+19 -0 -0)
(1.49582038320242e+19 -0 -0)
(1.49703102388118e+19 -0 -0)
(1.49900964586647e+19 -0 -0)
(1.50011664811257e+19 -0 -0)
(1.50203784305743e+19 -0 -0)
(1.50304406978966e+19 -0 -0)
(1.50491519011159e+19 -0 -0)
(1.50582484048879e+19 -0 -0)
(1.50765078318342e+19 -0 -0)
(1.50846863751888e+19 -0 -0)
(1.51025508847752e+19 -0 -0)
(1.51098355378487e+19 -0 -0)
(1.51273432448351e+19 -0 -0)
(1.51337674322188e+19 -0 -0)
(1.51509171093649e+19 -0 -0)
(1.51564481816591e+19 -0 -0)
(1.51732620726475e+19 -0 -0)
(1.51779273881247e+19 -0 -0)
(1.51944349065138e+19 -0 -0)
(1.51982637503894e+19 -0 -0)
(1.52145078869458e+19 -0 -0)
(1.52174354971245e+19 -0 -0)
(1.52333694748649e+19 -0 -0)
(1.52354208819359e+19 -0 -0)
(1.52510325770408e+19 -0 -0)
(1.52520753827812e+19 -0 -0)
(1.52673069748479e+19 -0 -0)
(1.52671501958637e+19 -0 -0)
(1.52817222610406e+19 -0 -0)
(1.52578843331628e+19 -0 -0)
)
;

boundaryField
{
    electrode
    {
        type            calculated;
        value           uniform (-13982065031.5137 -0 -0);
    }
    ground
    {
        type            calculated;
        value           uniform (1.52866519689516e+19 -0 -0);
    }
    otherfaces
    {
        type            empty;
    }
}


// ************************************************************************* //
