/*--------------------------------*- C++ -*----------------------------------*\
| =========                 |                                                 |
| \\      /  F ield         | foam-extend: Open Source CFD                    |
|  \\    /   O peration     | Version:     4.0                                |
|   \\  /    A nd           | Web:         http://www.foam-extend.org         |
|    \\/     M anipulation  |                                                 |
\*---------------------------------------------------------------------------*/
FoamFile
{
    version     2.0;
    format      ascii;
    class       volVectorField;
    location    "8e-06";
    object      J_electron;
}
// * * * * * * * * * * * * * * * * * * * * * * * * * * * * * * * * * * * * * //

dimensions      [1 -1 -1 0 0 0 0];

internalField   nonuniform List<vector> 
300
(
(-1.33462589389347e+19 0 0)
(-1.36986235468695e+19 0 0)
(-1.6191213358457e+19 0 0)
(-1.56921308262917e+19 0 0)
(-1.56886940478211e+19 0 0)
(-1.56742461192342e+19 0 0)
(-1.56080231074319e+19 0 0)
(-1.55581721563339e+19 0 0)
(-1.55058936096324e+19 0 0)
(-1.54529356606656e+19 0 0)
(-1.54003353777125e+19 0 0)
(-1.5347597829918e+19 0 0)
(-1.52948165792123e+19 0 0)
(-1.52419951662572e+19 0 0)
(-1.51891200066721e+19 0 0)
(-1.51361908375958e+19 0 0)
(-1.50832040291097e+19 0 0)
(-1.50301560560294e+19 0 0)
(-1.49770437045138e+19 0 0)
(-1.49238636676948e+19 0 0)
(-1.48706126657594e+19 0 0)
(-1.4817287449027e+19 0 0)
(-1.47638848769644e+19 0 0)
(-1.47104016638838e+19 0 0)
(-1.46568347947313e+19 0 0)
(-1.46031810805635e+19 0 0)
(-1.45494374674614e+19 0 0)
(-1.44956009657329e+19 0 0)
(-1.44416685105266e+19 0 0)
(-1.43876371970013e+19 0 0)
(-1.43335041259049e+19 0 0)
(-1.42792663731158e+19 0 0)
(-1.42249211556337e+19 0 0)
(-1.41704656736141e+19 0 0)
(-1.4115897212742e+19 0 0)
(-1.4061213062827e+19 0 0)
(-1.4006410606945e+19 0 0)
(-1.395148724598e+19 0 0)
(-1.38964404465688e+19 0 0)
(-1.3841267760744e+19 0 0)
(-1.37859666997952e+19 0 0)
(-1.37305349594735e+19 0 0)
(-1.36749701509389e+19 0 0)
(-1.36192700825815e+19 0 0)
(-1.35634325300555e+19 0 0)
(-1.35074553401078e+19 0 0)
(-1.34513364755318e+19 0 0)
(-1.33950738501825e+19 0 0)
(-1.33386656078488e+19 0 0)
(-1.32821097656867e+19 0 0)
(-1.32254045705339e+19 0 0)
(-1.31685482264262e+19 0 0)
(-1.31115390364499e+19 0 0)
(-1.30543754169213e+19 0 0)
(-1.29970557284938e+19 0 0)
(-1.29395785691179e+19 0 0)
(-1.28819424801558e+19 0 0)
(-1.28241460902804e+19 0 0)
(-1.27661881394966e+19 0 0)
(-1.27080673863328e+19 0 0)
(-1.264978269241e+19 0 0)
(-1.25913330039243e+19 0 0)
(-1.25327172615681e+19 0 0)
(-1.24739345491472e+19 0 0)
(-1.24149839781655e+19 0 0)
(-1.23558647612105e+19 0 0)
(-1.22965761342356e+19 0 0)
(-1.22371174336068e+19 0 0)
(-1.21774880319341e+19 0 0)
(-1.21176873719664e+19 0 0)
(-1.20577150068303e+19 0 0)
(-1.19975704611562e+19 0 0)
(-1.19372533767251e+19 0 0)
(-1.18767634259496e+19 0 0)
(-1.18161003846545e+19 0 0)
(-1.17552639810019e+19 0 0)
(-1.16942540971788e+19 0 0)
(-1.16330705702785e+19 0 0)
(-1.15717133593357e+19 0 0)
(-1.15101823920248e+19 0 0)
(-1.14484776657302e+19 0 0)
(-1.13865991979396e+19 0 0)
(-1.13245470233157e+19 0 0)
(-1.12623212084949e+19 0 0)
(-1.11999218470418e+19 0 0)
(-1.11373489737915e+19 0 0)
(-1.10746026587996e+19 0 0)
(-1.10116831025677e+19 0 0)
(-1.09485904511652e+19 0 0)
(-1.08853243732007e+19 0 0)
(-1.08218840221142e+19 0 0)
(-1.07582702349446e+19 0 0)
(-1.06944882375309e+19 0 0)
(-1.06305399704718e+19 0 0)
(-1.05663993125735e+19 0 0)
(-1.05020251705652e+19 0 0)
(-1.04375081664197e+19 0 0)
(-1.03731601530746e+19 0 0)
(-1.03088370036627e+19 0 0)
(-1.02426400149665e+19 0 0)
(-1.01728044604174e+19 0 0)
(-1.01033176781973e+19 0 0)
(-1.00366939523446e+19 0 0)
(-9.97067671682784e+18 0 0)
(-9.90457305474898e+18 0 0)
(-9.83825833035248e+18 0 0)
(-9.77168948277176e+18 0 0)
(-9.70485354831964e+18 0 0)
(-9.63774539823055e+18 0 0)
(-9.57036148509429e+18 0 0)
(-9.50269840352346e+18 0 0)
(-9.43475226065974e+18 0 0)
(-9.36651850103705e+18 0 0)
(-9.29799179964147e+18 0 0)
(-9.22916606015963e+18 0 0)
(-9.16003418782879e+18 0 0)
(-9.09058813871417e+18 0 0)
(-9.02081880387486e+18 0 0)
(-8.95071582899719e+18 0 0)
(-8.8802676145982e+18 0 0)
(-8.80946110472022e+18 0 0)
(-8.73828171011011e+18 0 0)
(-8.66671308781545e+18 0 0)
(-8.59473705668339e+18 0 0)
(-8.52233337303781e+18 0 0)
(-8.44947944225217e+18 0 0)
(-8.37615024394207e+18 0 0)
(-8.30231792441465e+18 0 0)
(-8.22795155128608e+18 0 0)
(-8.15301686781018e+18 0 0)
(-8.07747576524702e+18 0 0)
(-8.00128601796064e+18 0 0)
(-7.92440074572189e+18 0 0)
(-7.84676789806432e+18 0 0)
(-7.7683296862035e+18 0 0)
(-7.68902193595233e+18 0 0)
(-7.60877323805262e+18 0 0)
(-7.52750431358996e+18 0 0)
(-7.44512677012203e+18 0 0)
(-7.36154231131498e+18 0 0)
(-7.27664127477337e+18 0 0)
(-7.19030135951878e+18 0 0)
(-7.10238605989642e+18 0 0)
(-7.01274260520409e+18 0 0)
(-6.92120062395312e+18 0 0)
(-6.82756814013255e+18 0 0)
(-6.73163239466467e+18 0 0)
(-6.63315076683399e+18 0 0)
(-6.53185608192832e+18 0 0)
(-6.42744117343709e+18 0 0)
(-6.31957231010474e+18 0 0)
(-6.20785828688717e+18 0 0)
(-6.09184099699838e+18 0 0)
(-5.97119266933598e+18 0 0)
(-5.8449066802293e+18 0 0)
(-5.71333795754122e+18 0 0)
(-5.57392959434129e+18 0 0)
(-5.42982718965364e+18 0 0)
(-5.27075223780144e+18 0 0)
(-5.11641361853186e+18 0 0)
(-4.92452763031568e+18 0 0)
(-4.75209228205477e+18 0 0)
(-4.50405081997954e+18 0 0)
(-4.28696481527077e+18 0 0)
(-3.84827115984703e+18 0 0)
(-2.82568218693127e+18 0 0)
(-2.24946269604073e+18 0 0)
(-2.28313483126925e+18 0 0)
(-2.12013486646179e+18 0 0)
(-1.74443788683025e+18 0 0)
(-1.02060888673485e+18 0 0)
(-3.94762978716549e+17 0 0)
(1.78335763606274e+17 0 0)
(5.14345366794011e+17 0 0)
(-4.16094193149018e+17 0 0)
(-7.62360142179074e+17 0 0)
(-6.10242465533788e+16 0 0)
(-9.06887157964079e+17 0 0)
(-2.22947948821794e+18 0 0)
(-2.24669171387151e+18 0 0)
(-3.16955918140336e+18 0 0)
(-4.0324397840749e+18 0 0)
(-4.03906055321734e+18 0 0)
(-4.28953448348647e+18 0 0)
(-4.01035147937317e+18 0 0)
(-2.11589378784258e+18 0 0)
(-3.78795321144115e+17 0 0)
(1.90895183844029e+18 0 0)
(5.16439246181132e+18 0 0)
(7.990331305385e+18 0 0)
(1.03899488946697e+19 0 0)
(1.23827173072112e+19 0 0)
(1.3497099767565e+19 0 0)
(1.37052704326806e+19 0 0)
(1.34751781850508e+19 0 0)
(1.03940764767685e+19 0 0)
(9.99601764528082e+18 0 0)
(6.75410907657188e+18 0 0)
(7.01895948084242e+18 0 0)
(3.76258762325662e+18 0 0)
(-2.9076522432821e+18 0 0)
(1.8656404567951e+18 0 0)
(-1.63592303918345e+18 0 0)
(-2.13582506569763e+18 0 0)
(-2.05503221308625e+18 0 0)
(-2.05280690331345e+18 0 0)
(-2.26361272729742e+18 0 0)
(-2.55544660970558e+18 0 0)
(-2.79104624400224e+18 0 0)
(-2.9202597255635e+18 0 0)
(-2.97640047046737e+18 0 0)
(-2.98437863049749e+18 0 0)
(-2.97193813720747e+18 0 0)
(-2.94375382072118e+18 0 0)
(-2.90898493233198e+18 0 0)
(-2.87317288079586e+18 0 0)
(-2.83179995786382e+18 0 0)
(-2.7868013486741e+18 0 0)
(-2.74062895198015e+18 0 0)
(-2.69419512509899e+18 0 0)
(-2.64801421930387e+18 0 0)
(-2.60090242647782e+18 0 0)
(-2.55411308810354e+18 0 0)
(-2.50671734693374e+18 0 0)
(-2.45917148705268e+18 0 0)
(-2.41161668266908e+18 0 0)
(-2.36416311381848e+18 0 0)
(-2.31692283152039e+18 0 0)
(-2.26998839922758e+18 0 0)
(-2.2234438870306e+18 0 0)
(-2.17736580385702e+18 0 0)
(-2.13182355251188e+18 0 0)
(-2.08687964070676e+18 0 0)
(-2.04258973675543e+18 0 0)
(-1.99900238145405e+18 0 0)
(-1.95616121666486e+18 0 0)
(-1.91409433859398e+18 0 0)
(-1.87285482600431e+18 0 0)
(-1.83231558224262e+18 0 0)
(-1.7928636279106e+18 0 0)
(-1.75421540963405e+18 0 0)
(-1.71642233958886e+18 0 0)
(-1.67951069660231e+18 0 0)
(-1.64348217221845e+18 0 0)
(-1.60834296424294e+18 0 0)
(-1.57408852651207e+18 0 0)
(-1.54071183542672e+18 0 0)
(-1.50820281921421e+18 0 0)
(-1.47654926485452e+18 0 0)
(-1.44573695432379e+18 0 0)
(-1.415750258077e+18 0 0)
(-1.38657187425696e+18 0 0)
(-1.35818541971562e+18 0 0)
(-1.33056912084662e+18 0 0)
(-1.30373041152757e+18 0 0)
(-1.27754742149855e+18 0 0)
(-1.2521440106593e+18 0 0)
(-1.22746612429935e+18 0 0)
(-1.20338223464569e+18 0 0)
(-1.17997776174707e+18 0 0)
(-1.15719677302049e+18 0 0)
(-1.13502545776019e+18 0 0)
(-1.11344330711457e+18 0 0)
(-1.09243199901439e+18 0 0)
(-1.07197498059681e+18 0 0)
(-1.05205197504939e+18 0 0)
(-1.03264296299207e+18 0 0)
(-1.0137324179714e+18 0 0)
(-9.95302861196445e+17 0 0)
(-9.77336325372362e+17 0 0)
(-9.59793842208696e+17 0 0)
(-9.42639284309167e+17 0 0)
(-9.26102564688922e+17 0 0)
(-9.09854011657446e+17 0 0)
(-8.94007882728061e+17 0 0)
(-8.78537615008745e+17 0 0)
(-8.63438968288921e+17 0 0)
(-8.48699600279344e+17 0 0)
(-8.34308920438462e+17 0 0)
(-8.20255386173644e+17 0 0)
(-8.06529574082367e+17 0 0)
(-7.93110276432617e+17 0 0)
(-7.80006474048621e+17 0 0)
(-7.6700041269128e+17 0 0)
(-7.54634265747311e+17 0 0)
(-7.42571583102887e+17 0 0)
(-7.30692767214425e+17 0 0)
(-7.19072847364458e+17 0 0)
(-7.07744364734036e+17 0 0)
(-6.96250734685671e+17 0 0)
(-6.86030756039588e+17 0 0)
(-6.75594285641544e+17 0 0)
(-6.65141862893026e+17 0 0)
(-6.55495904417044e+17 0 0)
(-6.46150645772282e+17 0 0)
(-6.36965358089112e+17 0 0)
(-6.28770782454852e+17 0 0)
(-6.21554662285144e+17 0 0)
(-6.15172081317356e+17 0 0)
(-6.04264348492557e+17 0 0)
)
;

boundaryField
{
    electrode
    {
        type            calculated;
        value           uniform (-1.59547123002361e+19 0 0);
    }
    ground
    {
        type            calculated;
        value           uniform (-6.01615148942963e+17 0 0);
    }
    otherfaces
    {
        type            empty;
    }
}


// ************************************************************************* //
