/*--------------------------------*- C++ -*----------------------------------*\
| =========                 |                                                 |
| \\      /  F ield         | foam-extend: Open Source CFD                    |
|  \\    /   O peration     | Version:     4.0                                |
|   \\  /    A nd           | Web:         http://www.foam-extend.org         |
|    \\/     M anipulation  |                                                 |
\*---------------------------------------------------------------------------*/
FoamFile
{
    version     2.0;
    format      ascii;
    class       volScalarField;
    location    "8e-06";
    object      N_electronMean;
}
// * * * * * * * * * * * * * * * * * * * * * * * * * * * * * * * * * * * * * //

dimensions      [0 0 0 1 0 0 0];

internalField   nonuniform List<scalar> 
300
(
6.14446313497282e+16
6.14431044358463e+16
6.14389504360829e+16
6.14317164724588e+16
6.14214445973599e+16
6.14081012707753e+16
6.13916694792162e+16
6.13721403033527e+16
6.13495047379447e+16
6.13237560514472e+16
6.12948891702692e+16
6.12629004907382e+16
6.12277877893952e+16
6.11895500929242e+16
6.1148187594005e+16
6.11037015673844e+16
6.10560942979988e+16
6.10053690193657e+16
6.09515298536388e+16
6.08945817548526e+16
6.08345304587223e+16
6.07713824350983e+16
6.07051448420866e+16
6.06358254790709e+16
6.05634327523417e+16
6.04879756480678e+16
6.040946368308e+16
6.03279068559174e+16
6.02433156068434e+16
6.01557007640629e+16
6.00650735088115e+16
5.99714453657171e+16
5.98748281538243e+16
5.97752339080105e+16
5.96726748224294e+16
5.95671632051869e+16
5.94587114337385e+16
5.93473319140103e+16
5.92330370357434e+16
5.91158391271793e+16
5.89957504178445e+16
5.88727830006856e+16
5.87469487871275e+16
5.86182594660178e+16
5.8486726468194e+16
5.83523609319961e+16
5.82151736711839e+16
5.80751751464049e+16
5.79323754432959e+16
5.77867842569719e+16
5.76384108919935e+16
5.74872642630829e+16
5.73333528713371e+16
5.71766847598042e+16
5.70172674498126e+16
5.68551078754881e+16
5.66902123277165e+16
5.6522586410332e+16
5.63522350067273e+16
5.61791622475668e+16
5.6003371481886e+16
5.58248652503359e+16
5.56436452554803e+16
5.54597123556762e+16
5.52730665873591e+16
5.50837071370699e+16
5.48916322663463e+16
5.46968392673203e+16
5.4499324441808e+16
5.42990830802488e+16
5.40961094405544e+16
5.38903967394387e+16
5.36819371673294e+16
5.34707218780572e+16
5.32567409494818e+16
5.30399833866617e+16
5.28204371409153e+16
5.25980890910366e+16
5.23729249887398e+16
5.21449294255917e+16
5.19140858303552e+16
5.16803764126108e+16
5.14437821086107e+16
5.12042825643178e+16
5.09618561291289e+16
5.07164798675124e+16
5.0468129535696e+16
5.02167795299133e+16
4.99624028651687e+16
4.97049711761032e+16
4.94444546985344e+16
4.91808222847952e+16
4.89140414284865e+16
4.86440782004292e+16
4.83708971886403e+16
4.80944614856705e+16
4.78147326756167e+16
4.75316708220224e+16
4.72452344559191e+16
4.69553805723201e+16
4.66620646264023e+16
4.63652405181885e+16
4.60648606140288e+16
4.57608757848908e+16
4.54532353854661e+16
4.51418872396422e+16
4.48267776444408e+16
4.45078513630258e+16
4.41850516325642e+16
4.38583201492087e+16
4.35275970448866e+16
4.31928208845997e+16
4.28539286735895e+16
4.25108558796108e+16
4.21635364407918e+16
4.18119027736458e+16
4.14558858227904e+16
4.1095415085664e+16
4.07304185830157e+16
4.03608228373402e+16
3.99865529007023e+16
3.96075323988886e+16
3.92236835683873e+16
3.88349273019904e+16
3.84411831430399e+16
3.80423692435764e+16
3.76384023775994e+16
3.72291979770097e+16
3.68146701355058e+16
3.63947316211835e+16
3.59692939125893e+16
3.55382672337135e+16
3.51015605799893e+16
3.46590817417482e+16
3.42107373820651e+16
3.3756433129484e+16
3.32960735830459e+16
3.28295622784083e+16
3.23568016977955e+16
3.18776933103902e+16
3.13921375855477e+16
3.09000339997351e+16
3.04012810610092e+16
2.98957763439699e+16
2.93834165738556e+16
2.88640976968148e+16
2.83377148705871e+16
2.78041624399211e+16
2.72633339078479e+16
2.67151219622006e+16
2.61594185601631e+16
2.5596114936975e+16
2.50251016267702e+16
2.44462685438096e+16
2.38595049827418e+16
2.32646997156693e+16
2.26617411178933e+16
2.2050517412306e+16
2.14309166000935e+16
2.0802826107938e+16
2.01661304025489e+16
1.95206979301694e+16
1.8866361712173e+16
1.82029112129979e+16
1.75300916572299e+16
1.68475925937801e+16
1.61550450456612e+16
1.54520626932688e+16
1.47382878782924e+16
1.40134056047994e+16
1.32771707540087e+16
1.2529495348959e+16
1.17705865114525e+16
1.10011091215165e+16
1.02224209451537e+16
9.436803604339e+15
8.64756121892429e+15
7.85915773268546e+15
7.07737713612579e+15
6.3092254703955e+15
5.56266131375535e+15
4.84628572550972e+15
4.1687904334555e+15
3.53826467500835e+15
2.96158314283661e+15
2.44379722724914e+15
1.98768829415684e+15
1.59365654805637e+15
1.25982719173845e+15
982371016882483
756023278426127
574655515966977
431803854556004
321122649775763
236373860429202
172226202380422
124299374663847
88867699183634.1
62840132977076.6
43680139262755.6
29826892595935.8
20072817259847
13258829389200.7
8637819912707.86
5692581082818.25
3936314707570.26
2938088381788.61
2378267225923.58
2058523629150.19
1869104329578.5
1752017097853.6
1676473023884.88
1625497432207.17
1589374233018.18
1562295441822.43
1540628527575.7
1521994243669.14
1504806863762.72
1488076859401.15
1471186105516.38
1453675309537.41
1435237874609.17
1415726478902.02
1395067694256.57
1373259828945.81
1350347218537.99
1326406677585.64
1301535606498.13
1275844270329.08
1249450084237.54
1222473334395.65
1195034522622.4
1167251316066.25
1139237001624.76
1111099353703.31
1082939347632.29
1054850435370.46
1026918589878.47
999221473147.232
971828030247.265
944797740318.59
918182313783.107
892028553197.129
866377919439.351
841266166878.868
816723116110.586
792772079742.159
769430806983.861
746712024593.546
724624112317.951
703172439901.531
682359251597.482
662183500246.927
642641151061.816
623725806786.359
605430154623.848
587743606869.665
570651374431.49
554139846655.293
538196408256.533
522806807840.796
507955565066.61
493626753788.138
479804026429.86
466470928431.642
453611205197.572
441207962905.848
429244066963.312
417702797511.341
406567425426.071
395820819539.542
385445280905.403
375424418739.691
365745315039.392
356396931819.06
347369050303.842
338652114452.827
330237111283.08
322115784273.741
314280670841.721
306725006955.39
299442104429.842
292424618135.428
285655808708.849
279109263035.016
272772764415.598
266652612819.142
260759155410.191
255103536076.465
249676801126.277
244453202834.04
239442013434.628
234687244613.99
230192265211.855
225984421208.862
222146426701.801
218803527802.397
216214299935.241
214804889370.135
215333338516.687
)
;

boundaryField
{
    electrode
    {
        type            calculated;
        value           uniform 6.14446313498764e+16;
    }
    ground
    {
        type            calculated;
        value           uniform 217108695333.179;
    }
    otherfaces
    {
        type            empty;
    }
}


// ************************************************************************* //
