/*--------------------------------*- C++ -*----------------------------------*\
| =========                 |                                                 |
| \\      /  F ield         | foam-extend: Open Source CFD                    |
|  \\    /   O peration     | Version:     4.0                                |
|   \\  /    A nd           | Web:         http://www.foam-extend.org         |
|    \\/     M anipulation  |                                                 |
\*---------------------------------------------------------------------------*/
FoamFile
{
    version     2.0;
    format      ascii;
    class       volScalarField;
    location    "8e-06";
    object      Phi;
}
// * * * * * * * * * * * * * * * * * * * * * * * * * * * * * * * * * * * * * //

dimensions      [0 0 0 1 0 0 0];

internalField   nonuniform List<scalar> 
300
(
699.999928508295
699.999709321967
699.999194200139
699.998415874644
699.997382709021
699.996089317677
699.994536569337
699.992724031271
699.99065113797
699.988317397614
699.985722221915
699.982864970469
699.979744948468
699.976361403411
699.972713525976
699.968800449436
699.964621249219
699.960174942499
699.955460487719
699.950476784098
699.945222671109
699.939696927931
699.93389827286
699.927825362704
699.921476792137
699.914851093025
699.90794673372
699.90076211832
699.893295585896
699.885545409679
699.877509796221
699.869186884511
699.860574745054
699.851671378918
699.842474716729
699.832982617635
699.823192868224
699.813103181396
699.802711195191
699.79201447157
699.781010495148
699.769696671875
699.758070327665
699.746128706972
699.733868971311
699.721288197713
699.708383377132
699.695151412779
699.681589118394
699.667693216448
699.65346033628
699.638887012152
699.623969681233
699.6087046815
699.593088249554
699.577116518355
699.560785514855
699.544091157546
699.527029253903
699.509595497723
699.491785466357
699.473594617824
699.455018287809
699.436051686536
699.416689895506
699.396927864098
699.376760406032
699.356182195673
699.335187764175
699.313771495467
699.291927622055
699.269650220641
699.246933207551
699.223770333957
699.200155180882
699.176081153984
699.151541478097
699.126529191521
699.101037140051
699.075057970726
699.048584125279
699.02160783328
698.994121104951
698.966115723633
698.937583237884
698.908514953194
698.878901923283
698.848734940974
698.818004528591
698.786700927891
698.754814089484
698.722333661653
698.689248978522
698.655549047755
698.621222538156
698.586257766473
698.550642680306
698.514364837165
698.477411396204
698.439769140625
698.401424463432
698.36236315694
698.322570184221
698.282029919399
698.240726213731
698.198642370844
698.155761120698
698.112064592023
698.067534282598
698.022151027633
697.975894966137
697.928745505141
697.880681281615
697.831680121892
697.781718998405
697.730773983523
697.678820200225
697.625831769376
697.571781753295
697.516642095308
697.460383554925
697.402975638268
697.344386523308
697.284582979451
697.223530280938
697.161192113486
697.097530473523
697.032505559291
696.966075653028
696.89819699332
696.828823636634
696.757907306902
696.685397231898
696.611239964995
696.535379190705
696.457755512184
696.378306218693
696.296965030665
696.213661819784
696.12832230106
696.040867693493
695.951214345425
695.859273320086
695.7649499362
695.668143257709
695.568745525744
695.466641524978
695.361707874904
695.253812235892
695.142812416267
695.02855536773
694.910876048775
694.789596141269
694.66452258562
694.535445919709
694.402138396894
694.264351733986
694.121814791495
693.974230316314
693.821272418589
693.6625806379
693.497760506488
693.326367209249
693.14791759827
692.961850938217
692.767573017745
692.564323311007
692.351084960467
692.126771174307
691.890215009142
691.640085914585
691.374842318511
691.092584516255
690.791142047597
690.467870341618
690.119839053693
689.744151708343
689.337244238541
688.89484978514
688.412768319953
687.88637363753
687.310220511074
686.679085215674
685.987506904047
685.229321907188
684.399219053998
683.491676141673
682.501038195854
681.422823177168
680.252968531857
678.987352120686
677.623273971188
676.15867288559
674.592015677593
672.921753130413
671.148054442786
669.271036335926
667.291312360824
665.208995361691
663.024675450311
660.73864919464
658.351774393029
655.863553474391
653.273216980947
650.579892163314
647.783408349877
644.883975096237
641.882234880583
638.779103876523
635.575570877507
632.272620774944
628.871182846063
625.372110142418
621.776163104293
618.084334259067
614.297695927292
610.417236357966
606.443847378821
602.378348077562
598.221472855703
593.973894795273
589.636212349202
585.208972883014
580.692658437455
576.087708109063
571.394502898294
566.613678717836
561.745847100555
556.791596764778
551.751459790207
546.625951892512
541.415537139357
536.120668641831
530.741751956614
525.279186176748
519.733326103457
514.104523679425
508.393089006969
502.599332178646
496.723523238197
490.765934520657
484.726799691047
478.606415904838
472.405198248281
466.123564325065
459.761897444558
453.320585374839
446.799982921442
440.200451047788
433.522318664756
426.765922442705
419.931567418585
413.019568094934
406.030207216563
398.963778952422
391.820545063858
384.600780917135
377.304728453777
369.932645385162
362.484754941517
354.96129807125
347.362480329296
339.688526755633
331.939626003511
324.115988128101
316.217785500598
308.245327640865
300.198907503488
292.078845185469
283.8854175474
275.618930704327
267.279646210705
258.867857060851
250.383810325368
241.827786606188
233.200019206275
224.500777122802
215.730280450503
206.888787234745
197.976504963771
188.99368128583
179.940511582226
170.817233706657
161.624031462343
152.361133413805
143.028712431194
133.626988541449
124.15612417512
114.616331237997
105.007762134414
95.3306210351585
85.5850506134787
75.7712480689976
65.8893470247983
55.9395380112628
45.9219460876551
35.8367561130574
25.6840852541828
15.4641139454206
5.17697373591767
)
;

boundaryField
{
    electrode
    {
        type            fixedValue;
        value           uniform 700;
    }
    ground
    {
        type            fixedValue;
        value           uniform 0;
    }
    otherfaces
    {
        type            empty;
    }
}


// ************************************************************************* //
