/*--------------------------------*- C++ -*----------------------------------*\
| =========                 |                                                 |
| \\      /  F ield         | foam-extend: Open Source CFD                    |
|  \\    /   O peration     | Version:     4.0                                |
|   \\  /    A nd           | Web:         http://www.foam-extend.org         |
|    \\/     M anipulation  |                                                 |
\*---------------------------------------------------------------------------*/
FoamFile
{
    version     2.0;
    format      ascii;
    class       volScalarField;
    location    "8e-06";
    object      PhiMean;
}
// * * * * * * * * * * * * * * * * * * * * * * * * * * * * * * * * * * * * * //

dimensions      [0 0 0 1 0 0 0];

internalField   nonuniform List<scalar> 
300
(
699.990774479176
699.989793725238
699.988537864483
699.98703241737
699.985286502893
699.983293715316
699.981053852958
699.978565970073
699.975829097817
699.972842493602
699.969605467933
699.966117417716
699.962377802249
699.958386135097
699.954141976918
699.949644927415
699.944894619112
699.939890712859
699.934632892528
699.929120859759
699.923354330313
699.917333030123
699.911056691687
699.904525050389
699.897737840385
699.890694798171
699.883395654667
699.875840131547
699.868027940171
699.859958775214
699.851632309806
699.843048203412
699.834206095667
699.82510559509
699.815746276133
699.806127675668
699.796249289002
699.786110567631
699.775710915185
699.765049682677
699.754126165958
699.742939603324
699.731489169763
699.719773973694
699.707793053493
699.695545374124
699.683029823595
699.670245210239
699.657190259793
699.643863614998
699.630263834044
699.616389396563
699.602238695761
699.587810037933
699.573101629266
699.55811156989
699.542837844046
699.527278315141
699.511430721133
699.495292669256
699.478861631524
699.46213493981
699.44510978029
699.427783187634
699.410152054237
699.392213123966
699.373962972234
699.355398000863
699.336514432701
699.317308305615
699.297775466169
699.277911562616
699.25771204678
699.23717217018
699.216286966856
699.195051252519
699.173459626934
699.151506461675
699.129185890808
699.106491788799
699.083417783574
699.059957226576
699.036103181288
699.011848415664
698.987185388801
698.962106251943
698.936602833296
698.910666617448
698.884288732094
698.85745994187
698.830170631238
698.80241078903
698.774170020088
698.74543750184
698.716201965622
698.686451680957
698.656174436252
698.625357521242
698.593987704371
698.562051214807
698.529533721237
698.496420305255
698.462695435577
698.428342964284
698.393346082217
698.35768729176
698.321348382536
698.284310388929
698.246553567904
698.208057354224
698.168800316678
698.128760118596
698.087913471537
698.046236094424
698.003702664728
697.960286757453
697.915960804063
697.87069603676
697.824462408185
697.77722851668
697.728961530335
697.679627122086
697.629189372167
697.577610695063
697.524851726587
697.47087119913
697.415625821535
697.359070163644
697.301156501576
697.241834668111
697.181051887611
697.118752599078
697.054878256667
696.989367109867
696.922153972029
696.853169993093
696.782342352044
696.709593935278
696.634842975174
696.55800268058
696.478980798816
696.397679137559
696.313993037156
696.227810776127
696.13901292661
696.047471637341
695.95304977719
695.855599996296
695.754963649197
695.650969581403
695.543432803094
695.432152901246
695.316912245073
695.19747396027
695.073579537649
694.944946050555
694.811263083661
694.672188835733
694.527346120162
694.3763164937
694.218635371055
694.053780571621
693.88115076843
693.700050786917
693.509679689472
693.309106314083
693.097232733733
692.87278208516
692.634288489987
692.380036726355
692.108006978685
691.815835022092
691.500798785406
691.159738811266
690.789050189057
690.384780776738
689.942494177819
689.457196909922
688.923637925028
688.336251194942
687.689105890471
686.976264799422
686.191914701732
685.330219650872
684.385905487559
683.354226644146
682.230874937713
681.012375161304
679.696144171834
678.280102365339
676.762866036779
675.143830320714
673.422896384227
671.600338901977
669.676637231072
667.65246665909
665.528389737126
663.304815088981
660.982099203858
658.560562218149
656.040529054199
653.422149289889
650.705364158981
647.890311229986
644.977337848345
641.967083005174
638.860352800468
635.65805713365
632.361126819171
628.970446975903
625.486856648271
621.911114204051
618.243983658893
614.486296125346
610.638980364843
606.702897425178
602.678856664144
598.567584767383
594.369767847626
590.086017968434
585.716916484275
581.262977995496
576.724695151528
572.102500555033
567.396813233609
562.608070357739
557.736884712307
552.783812891763
547.749408644883
542.634169088805
537.438594122883
532.163129680799
526.808230036817
521.374299323566
515.861754546205
510.270962896659
504.60230787094
498.856123886986
493.032764944115
487.132536490123
481.15576668035
475.102735782794
468.97376430495
462.769249187778
456.489644474364
450.135351475528
443.706799903711
437.204366428766
430.628458600223
423.97943036854
417.257668978314
410.463507255024
403.597313737622
396.659401454223
389.650121609443
382.569768585394
375.418677405862
368.197124831347
360.905430685042
353.543855020567
346.112703292812
338.612219676391
331.042696026829
323.404361260241
315.697494339864
307.92231212518
300.079107760732
292.168143428754
284.189767919146
276.144279434078
268.032040556375
259.853335605945
251.60851552711
243.297850547585
234.921680676084
226.480262612892
217.973926080526
209.402914804719
200.767548814784
192.068059385868
183.304757402713
174.477862138133
165.587675863899
156.634406272973
147.618347620787
138.53969654032
129.39873984412
120.195663469434
110.930747239464
101.604166724372
92.216195152395
82.7669982214758
73.2568432916304
63.6858866167006
54.0543900151281
44.3625009407559
34.6104765744872
24.7984561165313
14.9266932841031
4.99532068706049
)
;

boundaryField
{
    electrode
    {
        type            calculated;
        value           uniform 699.999999999527;
    }
    ground
    {
        type            calculated;
        value           uniform 0;
    }
    otherfaces
    {
        type            empty;
    }
}


// ************************************************************************* //
