/*--------------------------------*- C++ -*----------------------------------*\
| =========                 |                                                 |
| \\      /  F ield         | foam-extend: Open Source CFD                    |
|  \\    /   O peration     | Version:     4.0                                |
|   \\  /    A nd           | Web:         http://www.foam-extend.org         |
|    \\/     M anipulation  |                                                 |
\*---------------------------------------------------------------------------*/
FoamFile
{
    version     2.0;
    format      ascii;
    class       volScalarField;
    location    "8e-06";
    object      Sy_electron;
}
// * * * * * * * * * * * * * * * * * * * * * * * * * * * * * * * * * * * * * //

dimensions      [1 -3 -1 0 0 0 0];

internalField   nonuniform List<scalar> 
300
(
3.19550932953234e-09
3.19621207139683e-09
3.19646707623677e-09
3.19637685544205e-09
3.19630081497867e-09
3.1961683810606e-09
3.19598808190529e-09
3.19576477540408e-09
3.19549613570125e-09
3.19518229073157e-09
3.19482295458587e-09
3.19441774537164e-09
3.19396632326098e-09
3.1934683180567e-09
3.19292334451654e-09
3.19233100284489e-09
3.19169087714166e-09
3.19100253578557e-09
3.19026553126446e-09
3.1894794000363e-09
3.1886436624343e-09
3.18775782254933e-09
3.18682136810483e-09
3.18583377034116e-09
3.18479448386305e-09
3.18370294658984e-09
3.18255857956052e-09
3.18136078681838e-09
3.18010895529723e-09
3.17880245465809e-09
3.17744063713434e-09
3.17602283746288e-09
3.17454837271227e-09
3.17301654209571e-09
3.17142662684979e-09
3.1697778900836e-09
3.16806957660762e-09
3.16630091280146e-09
3.16447110644153e-09
3.16257934652777e-09
3.16062480311178e-09
3.15860662713734e-09
3.15652395026169e-09
3.15437588466284e-09
3.15216152286568e-09
3.14987993754858e-09
3.14753018134106e-09
3.14511128664119e-09
3.14262226538177e-09
3.14006210884865e-09
3.13742978744995e-09
3.13472425053794e-09
3.13194442611006e-09
3.12908922065174e-09
3.12615751883331e-09
3.12314818328836e-09
3.12006005432769e-09
3.11689194968793e-09
3.11364266425811e-09
3.1103109697955e-09
3.10689561463911e-09
3.103395323389e-09
3.09980879659484e-09
3.09613471040738e-09
3.0923717162921e-09
3.08851844068775e-09
3.08457348455632e-09
3.08053542303697e-09
3.07640280505433e-09
3.07217415290096e-09
3.06784796179984e-09
3.06342269944824e-09
3.05889680556456e-09
3.05426869140547e-09
3.04953673920261e-09
3.04469930167596e-09
3.03975470146697e-09
3.03470123052457e-09
3.02953714953712e-09
3.02426068717584e-09
3.01887003959737e-09
3.01336336958923e-09
3.00773880586017e-09
3.00199444228559e-09
2.99612833705361e-09
2.99013851186094e-09
2.9840229509951e-09
2.97777960033596e-09
2.97140636634618e-09
2.96490111514848e-09
2.95826167152791e-09
2.95148581752343e-09
2.94457129036285e-09
2.9375157807951e-09
2.9303169372185e-09
2.92297237147278e-09
2.91547963659768e-09
2.90783616431457e-09
2.90003930724279e-09
2.89208672511574e-09
2.88397665101384e-09
2.87694322676265e-09
2.87056072132937e-09
2.86403269251696e-09
2.85735580232963e-09
2.85052680303197e-09
2.84354240535133e-09
2.83639925321568e-09
2.8290939126813e-09
2.82162286610816e-09
2.81398250769916e-09
2.80616913924563e-09
2.79817896573253e-09
2.79000809075707e-09
2.78165251167603e-09
2.7731081144503e-09
2.76437066822925e-09
2.75543581964132e-09
2.74629908658605e-09
2.73695585176768e-09
2.72740135576534e-09
2.7176306897651e-09
2.70763878764486e-09
2.69742041774161e-09
2.68697017392447e-09
2.67628246611311e-09
2.66535151014427e-09
2.65417131704808e-09
2.64273568140953e-09
2.63103816903677e-09
2.61907210367842e-09
2.60683055286216e-09
2.59430631261772e-09
2.58149189109021e-09
2.56837949097311e-09
2.55496099064456e-09
2.54122792372578e-09
2.52717145711242e-09
2.51278236734712e-09
2.49805101511739e-09
2.48296731760889e-09
2.46752071873471e-09
2.45170015687254e-09
2.43549403003432e-09
2.41889015801603e-09
2.40187574169162e-09
2.3844373181987e-09
2.36656071326352e-09
2.3482309886029e-09
2.32943238567214e-09
2.3101482628367e-09
2.29036102944898e-09
2.27005208363604e-09
2.24920168191194e-09
2.22778898917832e-09
2.20579172986355e-09
2.18318653388763e-09
2.15994787338365e-09
2.1360504300004e-09
2.11146336877819e-09
2.08616093465152e-09
2.06116097498893e-09
2.03624288214332e-09
2.01054443635004e-09
1.98408842189769e-09
1.95714284394034e-09
1.92970066973778e-09
1.90121705597736e-09
1.87138062522358e-09
1.84024058951203e-09
1.80792596806084e-09
1.77442919345947e-09
1.73953450066105e-09
1.70293528616048e-09
1.66367709919755e-09
1.62117290347613e-09
1.57617140946465e-09
1.52835543588345e-09
1.47316670380387e-09
1.41387414259461e-09
1.35149917845175e-09
1.28582714329494e-09
1.21798140409949e-09
1.14923017017636e-09
1.0808888707971e-09
1.01136817892751e-09
9.44847470635635e-10
8.88422771862919e-10
8.46148708785415e-10
8.08073704124538e-10
7.95018289102297e-10
7.95126322354804e-10
8.21401725420483e-10
8.81422891434602e-10
9.88019817603487e-10
1.15293784273261e-09
1.42502979475129e-09
1.88101572483481e-09
2.65800671444812e-09
3.915032599032e-09
5.2454512807828e-09
6.47905488954572e-09
7.43047884648886e-09
7.23029137226389e-09
6.18819832798243e-09
4.84841219760612e-09
3.66484577079149e-09
2.77313395471945e-09
2.18745886256323e-09
1.81603213565555e-09
1.58784851616038e-09
1.45311570397778e-09
1.36746999907994e-09
1.32136423770914e-09
1.29865033404643e-09
1.28624372746727e-09
1.28363908762664e-09
1.28653735137297e-09
1.29207190899849e-09
1.29866569048449e-09
1.30502947578517e-09
1.30892773321487e-09
1.31073584297012e-09
1.31071472759524e-09
1.30863265269827e-09
1.30438286272042e-09
1.29794594403784e-09
1.28936381810801e-09
1.2787215472696e-09
1.26613490771969e-09
1.25174101736766e-09
1.23569107815387e-09
1.21814466022626e-09
1.19926517484311e-09
1.17921629331035e-09
1.15815908326284e-09
1.13624986629042e-09
1.11363781783019e-09
1.09046482687305e-09
1.06685137129855e-09
1.0429070139803e-09
1.01874729091085e-09
9.94482938563374e-10
9.70216374996705e-10
9.46040339386664e-10
9.22037366332091e-10
8.98280136188818e-10
8.74831935389774e-10
8.51747211833685e-10
8.29072167282973e-10
8.06845368989182e-10
7.85098377847535e-10
7.63856361739477e-10
7.43066132469342e-10
7.22814014184781e-10
7.03140994742695e-10
6.84050530221987e-10
6.65538239508009e-10
6.47602564940264e-10
6.30240875451608e-10
6.13445586144359e-10
5.97138548859705e-10
5.81322366234894e-10
5.66019387459819e-10
5.51217382114779e-10
5.36903564648437e-10
5.23064999736043e-10
5.09688536163257e-10
4.96760675763397e-10
4.84267535161941e-10
4.72194568351972e-10
4.60523696756048e-10
4.49225492892807e-10
4.38275625081404e-10
4.27662836552683e-10
4.17376873324495e-10
4.07408732740739e-10
3.97750000889471e-10
3.88392935786093e-10
3.79330515861284e-10
3.70556485933643e-10
3.62065495465825e-10
3.5385208446737e-10
3.45455081369939e-10
3.37092999308097e-10
3.28929078743372e-10
3.20959305977114e-10
3.13198845948985e-10
3.05664381625474e-10
2.98229343168676e-10
2.89846562859091e-10
2.81629594284508e-10
2.73636024686572e-10
2.65056616851717e-10
2.55355004511193e-10
2.45974066444002e-10
2.33653000137422e-10
2.20149538289846e-10
2.02980941274435e-10
1.78271139197432e-10
)
;

boundaryField
{
    electrode
    {
        type            zeroGradient;
    }
    ground
    {
        type            zeroGradient;
    }
    otherfaces
    {
        type            empty;
    }
}


// ************************************************************************* //
