/*--------------------------------*- C++ -*----------------------------------*\
| =========                 |                                                 |
| \\      /  F ield         | foam-extend: Open Source CFD                    |
|  \\    /   O peration     | Version:     4.0                                |
|   \\  /    A nd           | Web:         http://www.foam-extend.org         |
|    \\/     M anipulation  |                                                 |
\*---------------------------------------------------------------------------*/
FoamFile
{
    version     2.0;
    format      ascii;
    class       volScalarField;
    location    "8e-06";
    object      Te;
}
// * * * * * * * * * * * * * * * * * * * * * * * * * * * * * * * * * * * * * //

dimensions      [0 0 0 1 0 0 0];

internalField   nonuniform List<scalar> 
300
(
40116.8748437656
40117.1617999734
40117.334798755
40117.4380508206
40117.6013291888
40117.7993955632
40118.035488103
40118.3114276724
40118.6264720164
40118.9807714888
40119.3743365826
40119.8071546257
40120.2792389657
40120.7906030015
40121.3412657817
40121.9312522202
40122.5605925979
40123.2293227562
40123.937484103
40124.685123631
40125.4722939555
40126.2990533488
40127.1654657735
40128.071600929
40129.0175342924
40130.0033471666
40131.0291267358
40132.0949661161
40133.2009644171
40134.3472268055
40135.5338645682
40136.7609951872
40138.0287424127
40139.3372363409
40140.6866134975
40142.0770169266
40143.5085962809
40144.9815079191
40146.4959150074
40148.0519876239
40149.6499028714
40151.2898449931
40152.9720054948
40154.6965832713
40156.4637847373
40158.2738239697
40160.1269228486
40162.0233112116
40163.9632270076
40165.9469164621
40167.9746342505
40170.0466436722
40172.1632168399
40174.32463487
40176.5311880874
40178.7831762328
40181.08090868
40183.4247046679
40185.8148935348
40188.2518149663
40190.7358192528
40193.267267555
40195.8465321862
40198.473996903
40201.1500572058
40203.8751206563
40206.6496072057
40209.4739495381
40212.3485934284
40215.2739981151
40218.250636687
40221.27899649
40224.3595795518
40227.4929030218
40230.6794996305
40233.9199181726
40237.2147240096
40240.5644995941
40243.9698450181
40247.4313785859
40250.9497374154
40254.5255780644
40258.1595771865
40261.8524322186
40265.6048620985
40269.4176080208
40273.291434229
40277.2271288322
40281.2255046671
40285.2874002404
40289.4136807467
40293.6052389933
40297.8629960477
40302.1879022526
40306.5809404712
40311.043130261
40315.5755213606
40320.1791707687
40324.8551594188
40329.6047466707
40334.4294900456
40339.3308416195
40344.3098520176
40349.3675992782
40354.5054145576
40359.7247364252
40365.0270675617
40370.413969342
40375.8870617018
40381.4480251738
40387.0986036413
40392.8406074229
40398.6759166094
40404.6064846327
40410.6343420734
40416.7616007299
40422.9904579688
40429.323201372
40435.7622137181
40442.3099783222
40448.9690847617
40455.74223503
40462.6322501566
40469.6420773324
40476.7747975889
40484.033634097
40491.4219611299
40498.9433137628
40506.6013983956
40514.4001041633
40522.3435153467
40530.4359248872
40538.6818491171
40547.0860438585
40555.6535220373
40564.3895729876
40573.2997836628
40582.3900619657
40591.6666624787
40601.1362148931
40610.8057554826
40620.6827620404
40630.7751927272
40641.0915294125
40651.6408260675
40662.4327631106
40673.4777082555
40684.7867853879
40696.3719520656
40708.2460876955
40720.42309297
40732.9180043048
40745.7471288078
40758.9281715026
40772.4804665862
40786.4250645881
40800.7851604919
40815.5859337324
40830.8559905051
40846.6251748006
40862.9299497292
40879.8081389543
40897.3081132963
40915.4818927933
40934.4145499114
40954.3223281958
40975.3171780703
40997.2717043446
41020.1788224593
41044.22154548
41069.6484769788
41096.6743834615
41125.4444818703
41156.0932350011
41188.4242831014
41222.4342999059
41258.9009983665
41298.0444120508
41339.4945872626
41383.9417782585
41432.1138531329
41484.2453881945
41541.5701550045
41605.5681272855
41677.9324073384
41762.5087302393
41864.3372145891
41989.382111819
42147.8802205594
42353.8265454043
42625.0409054184
42987.548995757
43478.2368922077
44148.6741048031
45075.513150065
46352.4476612145
48132.9745038656
50661.0705535978
54289.2393253826
59470.3913337692
66113.8341165822
75340.2084633317
89553.7110286465
108828.943068519
135664.844474124
172640.671969643
221275.966564164
280491.34450984
346234.514971361
413323.622864319
477532.787500437
536293.939513912
588538.974998281
634244.593190321
673989.22262859
708441.118442539
738356.272769221
764523.625366807
787590.042209134
808066.46715733
826351.285710156
842786.730248275
857666.840663841
871231.165174557
883685.281548536
895194.463036519
905894.741295662
915898.428149371
925298.371301887
934171.491455643
942581.481298037
950580.954242034
958213.167623489
965513.41574889
972510.170689499
979225.995450955
985678.423021124
991880.277488687
997842.394346086
1003568.07994108
1009056.15483974
1014307.84349344
1019321.04145614
1024090.97709953
1028610.67147381
1032871.12200015
1036861.61729877
1040569.90754467
1043982.36673799
1047084.13375042
1049859.23891349
1052290.72422351
1054360.71395059
1056050.56536735
1057340.24823036
1058209.91488619
1058628.76724207
1058597.70324136
1058083.10559884
1057064.49572898
1055519.10691381
1053424.71032916
1050758.49933486
1047497.26508306
1043617.35999839
1039094.7613375
1033905.21020528
1028024.08483493
1021426.30372919
1014086.38634895
1005979.18352164
997081.153285609
987362.032885176
976792.569102232
965347.895190195
952997.324268943
939708.983759408
925449.045695221
910181.790627454
893869.326607933
876471.244650133
857944.686111757
838243.089123576
817324.591602096
795137.058289571
771616.674133423
746702.230438977
720319.103536998
692376.756832165
662793.287624899
631458.828251309
598237.478791874
562993.883976113
525538.190609662
485636.069177392
442999.273696569
397230.611779272
347762.812497281
293775.210804621
234192.028544435
)
;

boundaryField
{
    electrode
    {
        type            electronTemperature;
        seec            0.05;
        Tse             1000;
        Edepend         1;
        TFN             1000;
        field_emission  0;
        field_enhancement_factor 55;
        work_function   5;
        value           uniform 40116.8748437656;
    }
    ground
    {
        type            electronTemperature;
        seec            0.05;
        Tse             1000;
        Edepend         1;
        TFN             1000;
        field_emission  0;
        field_enhancement_factor 55;
        work_function   5;
        value           uniform 200404.738877828;
    }
    otherfaces
    {
        type            empty;
    }
}


// ************************************************************************* //
