/*--------------------------------*- C++ -*----------------------------------*\
| =========                 |                                                 |
| \\      /  F ield         | foam-extend: Open Source CFD                    |
|  \\    /   O peration     | Version:     4.0                                |
|   \\  /    A nd           | Web:         http://www.foam-extend.org         |
|    \\/     M anipulation  |                                                 |
\*---------------------------------------------------------------------------*/
FoamFile
{
    version     2.0;
    format      ascii;
    class       volScalarField;
    location    "8e-06";
    object      TeMean;
}
// * * * * * * * * * * * * * * * * * * * * * * * * * * * * * * * * * * * * * //

dimensions      [0 0 0 1 0 0 0];

internalField   nonuniform List<scalar> 
300
(
36240.2104279679
36240.5029664436
36240.6402650662
36240.658493106
36240.7035860842
36240.753973189
36240.8126267027
36240.8821560165
36240.9624417306
36241.0540394223
36241.1574034207
36241.2729564859
36241.4011208809
36241.5422932933
36241.696859664
36241.8651940689
36242.0476575534
36242.2446019812
36242.4563696746
36242.6832932696
36242.9256979504
36243.1838997814
36243.4582076292
36243.7489225972
36244.0563377127
36244.380746745
36244.7224383827
36245.0816941365
36245.4587952309
36245.8540133361
36246.2676095561
36246.699854063
36247.1510241732
36247.6213886853
36248.1112123985
36248.6207529318
36249.1502671797
36249.7000184254
36250.2702694158
36250.8612787949
36251.4733027267
36252.1066040083
36252.7614456012
36253.4380884371
36254.1367942897
36254.8578256147
36255.6014452455
36256.3679157165
36257.157496756
36257.9704452829
36258.8070156448
36259.6674714506
36260.5520922841
36261.4611591296
36262.3949583114
36263.3537863598
36264.3379374545
36265.3477051201
36266.3833926974
36267.4453084134
36268.5337642497
36269.6490833201
36270.7915806299
36271.9615713922
36273.1593994009
36274.3854253048
36275.6400119257
36276.9235260132
36278.2363413933
36279.57884307
36280.9514209691
36282.3544631454
36283.7883767611
36285.2535853007
36286.7505116952
36288.2795805651
36289.8412407743
36291.4359717331
36293.0642530056
36294.7265694125
36296.423438797
36298.1553960958
36299.922976184
36301.7267202223
36303.5671838638
36305.4449557798
36307.3606544491
36309.3149064644
36311.3083489098
36313.3416454775
36315.4154693286
36317.5305128766
36319.6875270289
36321.8872729007
36324.1305256799
36326.4181027234
36328.7508410374
36331.129606667
36333.5552915075
36336.0288207187
36338.551163625
36341.1232976158
36343.7462330873
36346.4210474607
36349.1488542656
36351.9308022984
36354.7680791932
36357.6619191273
36360.6136137778
36363.6245024593
36366.6959769989
36369.8294823612
36373.0265144475
36376.2886466366
36379.6175080563
36383.0147841738
36386.4822280261
36390.0216851983
36393.6350982432
36397.3244619543
36401.0918546328
36404.9394588387
36408.8695522713
36412.8845324291
36416.98692838
36421.1793751346
36425.4646150247
36429.8455415573
36434.3252055089
36438.9067935542
36443.5936542114
36448.3893284286
36453.2975576122
36458.3222532043
36463.4675377263
36468.7378248269
36474.1378014001
36479.6724226566
36485.3469474712
36491.1669739388
36497.1384690494
36503.2677936145
36509.5617369119
36516.0275511728
36522.6730314971
36529.5065954891
36536.5373252218
36543.7750430762
36551.2303376293
36558.9146895375
36566.8406570221
36575.0219304795
36583.4734857388
36592.2118457124
36601.255161359
36610.6235533197
36620.3393418923
36630.4277248574
36640.9173086903
36651.8422219605
36663.2510607643
36675.205677945
36687.7655970467
36700.9908808185
36714.9614274861
36729.7651053547
36745.4677904374
36762.1475400275
36779.9362054442
36798.9801313681
36819.3883897419
36841.2583989416
36864.7121820353
36889.788176804
36916.5130199649
36945.1484168041
36975.92894227
37008.9844152072
37044.9258101683
37084.8194893317
37130.0565357603
37183.2177158136
37248.4626765632
37331.7318970248
37442.3214896933
37594.1219234279
37806.9846144116
38110.4129534145
38548.4247710651
39186.8004985805
40126.252575853
41525.1282780489
43637.8707165403
46948.7345957033
51950.9641854949
58995.9864166901
69226.3129672743
83230.1255470286
102097.047462493
126179.580277113
155568.737144831
190016.786060459
228753.462394504
271046.248713452
316585.600104106
364954.0097667
415251.857358334
465849.102624307
514799.633892572
560477.104838572
601916.047188084
638823.085503274
671359.152390446
699944.452220213
725084.491625065
747264.297171457
766961.871577957
784598.782401196
800515.599364973
814989.524935539
828240.378793188
840450.0625376
851780.283454673
862364.265017908
872311.752750575
881712.029065591
890638.813062754
899152.679877668
907303.247242202
915131.009541136
922668.748619608
929942.68267352
936973.398393306
943776.556596803
950363.560310457
956742.132075811
962916.716561607
968888.865376549
974657.665309832
980219.958190461
985569.870258785
990699.624826487
995600.402320558
1000262.06200697
1004673.23055485
1008821.36944765
1012692.70863003
1016272.54782181
1019545.47118672
1022495.14903183
1025104.9764601
1027357.95973616
1029236.39174704
1030722.15212804
1031796.44395968
1032440.24375674
1032628.63969094
1032353.28429534
1031592.59724654
1030324.55160902
1028528.87436382
1026185.22577032
1023273.1645891
1019772.026369
1015660.87910543
1010918.79223719
1005524.23142349
999455.147958948
992689.682722013
985205.448238752
976979.659341843
967988.268122264
958206.379708977
947609.097825631
936170.034001541
923861.06611352
910652.612102225
896513.42596089
881410.436866695
865308.476312192
848170.119386476
829955.512855939
810625.187844398
790135.76259299
768433.337599934
745462.29307412
721161.433047491
695455.601062958
668267.696000458
639512.166480999
609080.748163347
576849.591185491
542682.590517799
506396.272440572
467768.092585364
426518.549215016
382255.26419564
334435.435110871
282267.535061082
224708.479088934
)
;

boundaryField
{
    electrode
    {
        type            calculated;
        value           uniform 36240.2104279693;
    }
    ground
    {
        type            calculated;
        value           uniform 192067.456268082;
    }
    otherfaces
    {
        type            empty;
    }
}


// ************************************************************************* //
