/*--------------------------------*- C++ -*----------------------------------*\
| =========                 |                                                 |
| \\      /  F ield         | foam-extend: Open Source CFD                    |
|  \\    /   O peration     | Version:     4.0                                |
|   \\  /    A nd           | Web:         http://www.foam-extend.org         |
|    \\/     M anipulation  |                                                 |
\*---------------------------------------------------------------------------*/
FoamFile
{
    version     2.0;
    format      ascii;
    class       volScalarField;
    location    "3.9e-06";
    object      electron;
}
// * * * * * * * * * * * * * * * * * * * * * * * * * * * * * * * * * * * * * //

dimensions      [0 0 0 1 0 0 0];

internalField   nonuniform List<scalar> 
300
(
5.9045496607416e+16
5.90439159079158e+16
5.9039802168426e+16
5.90327902209594e+16
5.9022937596882e+16
5.90102240347132e+16
5.89946462719817e+16
5.89762068173226e+16
5.89549062476147e+16
5.89307459909444e+16
5.89037277771275e+16
5.88738535435388e+16
5.88411254890509e+16
5.88055460447133e+16
5.8767117861068e+16
5.87258437958893e+16
5.86817268992581e+16
5.86347703983271e+16
5.85849776812452e+16
5.85323522802463e+16
5.84768978539528e+16
5.84186181688948e+16
5.83575170802597e+16
5.82935985118944e+16
5.82268664355679e+16
5.81573248495084e+16
5.80849777562515e+16
5.80098291397972e+16
5.79318829421079e+16
5.78511430389796e+16
5.77676132152969e+16
5.76812971397085e+16
5.75921983387626e+16
5.75003201705163e+16
5.74056657976776e+16
5.7308238160332e+16
5.72080399482838e+16
5.71050735730955e+16
5.69993411399054e+16
5.68908444191128e+16
5.67795848180618e+16
5.66655633528953e+16
5.65487806207789e+16
5.64292367727958e+16
5.63069314878781e+16
5.61818639482539e+16
5.60540328170165e+16
5.59234362184729e+16
5.57900717218187e+16
5.56539363280724e+16
5.55150264582356e+16
5.53733379355218e+16
5.52288659406655e+16
5.50816049144578e+16
5.49315484510242e+16
5.47786892378087e+16
5.46230190405527e+16
5.44645287016529e+16
5.43032081380159e+16
5.41390463339318e+16
5.39720313288073e+16
5.3802150201166e+16
5.36293890505268e+16
5.34537329784714e+16
5.32751660698795e+16
5.30936713749358e+16
5.2909230892285e+16
5.27218255535808e+16
5.25314352095468e+16
5.23380386176441e+16
5.21416134314444e+16
5.19421361917729e+16
5.17395823196839e+16
5.15339261113572e+16
5.1325140734982e+16
5.11131982296946e+16
5.08980695066629e+16
5.06797243523875e+16
5.04581314342805e+16
5.02332583086134e+16
5.00050714309012e+16
4.97735361687817e+16
4.95386168174633e+16
4.93002766178117e+16
4.90584777771339e+16
4.88131814927195e+16
4.85643479781912e+16
4.83119364927213e+16
4.80559053731606e+16
4.77962120691333e+16
4.7532813181123e+16
4.72656645015927e+16
4.69947210591803e+16
4.67199371659745e+16
4.64412664679001e+16
4.61586619982334e+16
4.5872076234244e+16
4.55814611569637e+16
4.52867683140814e+16
4.49879488859452e+16
4.46849537546415e+16
4.43777335761313e+16
4.40662388553994e+16
4.3750420024558e+16
4.34302275238527e+16
4.3105611885499e+16
4.27765238202648e+16
4.24429143067037e+16
4.21047346829404e+16
4.17619367408833e+16
4.14144728227324e+16
4.10622959196461e+16
4.07053597723958e+16
4.03436189738374e+16
3.99770290730098e+16
3.96055466806512e+16
3.92291295759126e+16
3.88477368140213e+16
3.84613288346295e+16
3.8069867570575e+16
3.76733165567484e+16
3.72716410387448e+16
3.68648080809548e+16
3.6452786673727e+16
3.60355478392099e+16
3.56130647354649e+16
3.51853127583957e+16
3.47522696410362e+16
3.43139155497044e+16
3.38702331764843e+16
3.3421207827501e+16
3.29668275063982e+16
3.25070829923982e+16
3.20419679122984e+16
3.15714788056969e+16
3.10956151826568e+16
3.06143795728217e+16
3.01277775645052e+16
2.96358178308683e+16
2.91385121363145e+16
2.86358753050379e+16
2.81279250977004e+16
2.7614681858459e+16
2.70961680640341e+16
2.65724081436459e+16
2.6043428526555e+16
2.55092576714263e+16
2.49699260058875e+16
2.44254657842569e+16
2.3875910884918e+16
2.33212965705295e+16
2.27616592033458e+16
2.21970359547631e+16
2.16274645778268e+16
2.10529826989343e+16
2.04736286105785e+16
1.98894387015688e+16
1.93004499073859e+16
1.8706695980267e+16
1.81081995736965e+16
1.75049672670885e+16
1.68968753789571e+16
1.62835744222661e+16
1.56646537153403e+16
1.50398195148412e+16
1.44088794366511e+16
1.37716569387482e+16
1.31279227530608e+16
1.24774264940071e+16
1.18199600893304e+16
1.11554919227641e+16
1.04844851919023e+16
9.80796743923231e+15
9.12722182963379e+15
8.44398442530938e+15
7.76094491936657e+15
7.08154147102607e+15
6.40978003952944e+15
5.75052769513033e+15
5.10929148371804e+15
4.49184603851749e+15
3.9042154805854e+15
3.35229260408137e+15
2.84128553015835e+15
2.37551652129409e+15
1.95812063043885e+15
1.59066406920926e+15
1.27313835653606e+15
1.00405982551485e+15
780568470154030
598481724441208
452875007230938
338781744466524
250971791972117
184338718097522
134305844133643
95627333710388.5
66513742374236.1
45650072055412.2
30442196093347
19513974023710.3
12130516745198.7
7506289697610.01
4795848553968.32
3264263709152.69
2402005403304.29
1908162171076.12
1618676921138.79
1445316715726.68
1340328751193.99
1276783655156.98
1238830513038.97
1216995558497.64
1205082291572.57
1199112392439.57
1196435838947.05
1195283009441.22
1194488973101.45
1193240045898.52
1190988372846.58
1187337865862.12
1182026922668.05
1174941912041.43
1166058200869.24
1155409225877.24
1143070642924.44
1129147949181.38
1113766112733.36
1097062094282.92
1079179518126.47
1060264522040.18
1040462534125.2
1019915766202.78
998761290122.325
977129591826.741
955143518849.731
932917556065.452
910557373155.405
888159600668.849
865811789896.62
843592542816.247
821571763794.996
799811309843.868
778365791624.145
757282309667.56
736600252460.627
716344722956.274
696537058918.042
677201490054.92
658356766220.556
640017126504.425
622192309443.267
604888088695.657
588106769036.9
571847862100.813
556109436083.194
540884345122.367
526161273490.937
511931895259.912
498187508509.594
484916513143.811
472106548309.567
459744557749.693
447817071073.188
436310378883.294
425210321436.535
414502694840.212
404166411671.738
394180282797.513
384530937133.904
375206565039.342
366196175430.847
357489246654.49
349075729060.184
340946071855.093
333091269899.505
325502912570.842
318173232872.943
311095163569.516
304262343157.173
297669182290.714
291309783052.853
285177589704.918
279241301544.065
273475688029.987
267887857520.037
262488339227.156
257289206421.089
252302336509.593
247500798645.623
242862116033.271
238418750187.112
234211896903.882
230235926366.259
226531167596.514
223182612178.78
220327858375.072
218252355420.695
217393315814.384
218569091449.708
)
;

boundaryField
{
    electrode
    {
        type            driftDiffusionElectronDensity;
        seec            0.05;
        Edepend         1;
        field_emission  0;
        field_enhancement_factor 55;
        work_function   5;
        value           uniform 5.9045496607416e+16;
    }
    ground
    {
        type            driftDiffusionElectronDensity;
        seec            0.05;
        Edepend         1;
        field_emission  0;
        field_enhancement_factor 55;
        work_function   5;
        value           uniform 220750147281.561;
    }
    otherfaces
    {
        type            empty;
    }
}


// ************************************************************************* //
