/*--------------------------------*- C++ -*----------------------------------*\
| =========                 |                                                 |
| \\      /  F ield         | foam-extend: Open Source CFD                    |
|  \\    /   O peration     | Version:     4.0                                |
|   \\  /    A nd           | Web:         http://www.foam-extend.org         |
|    \\/     M anipulation  |                                                 |
\*---------------------------------------------------------------------------*/
FoamFile
{
    version     2.0;
    format      ascii;
    class       volVectorField;
    location    "3.9e-06";
    object      J_Arp1;
}
// * * * * * * * * * * * * * * * * * * * * * * * * * * * * * * * * * * * * * //

dimensions      [1 -1 -1 0 0 0 0];

internalField   nonuniform List<vector> 
300
(
(1.85033899442255e+16 -0 -0)
(6.63605016518423e+16 -0 -0)
(1.18477677511947e+17 -0 -0)
(1.64792143625386e+17 -0 -0)
(2.1164372057397e+17 -0 -0)
(2.58778621443691e+17 -0 -0)
(3.05737840945177e+17 -0 -0)
(3.52694029218734e+17 -0 -0)
(3.99616669605576e+17 -0 -0)
(4.46495797504315e+17 -0 -0)
(4.93331305071459e+17 -0 -0)
(5.40118238351798e+17 -0 -0)
(5.86852767088687e+17 -0 -0)
(6.3353136651135e+17 -0 -0)
(6.80150618840106e+17 -0 -0)
(7.26707368213391e+17 -0 -0)
(7.73198704155015e+17 -0 -0)
(8.19621973350368e+17 -0 -0)
(8.65974795536628e+17 -0 -0)
(9.12255075415071e+17 -0 -0)
(9.58461015469606e+17 -0 -0)
(1.0045911282159e+18 -0 -0)
(1.05064424851782e+18 -0 -0)
(1.09661954484986e+18 -0 -0)
(1.14251653153351e+18 -0 -0)
(1.18833507940475e+18 -0 -0)
(1.23407542669332e+18 -0 -0)
(1.27973818989075e+18 -0 -0)
(1.32532437341819e+18 -0 -0)
(1.37083537939981e+18 -0 -0)
(1.41627301694537e+18 -0 -0)
(1.46163951065518e+18 -0 -0)
(1.50693750853205e+18 -0 -0)
(1.55217009012643e+18 -0 -0)
(1.5973407722668e+18 -0 -0)
(1.64245351555257e+18 -0 -0)
(1.68751272913325e+18 -0 -0)
(1.73252327433413e+18 -0 -0)
(1.77749046679652e+18 -0 -0)
(1.82242007723641e+18 -0 -0)
(1.86731832923281e+18 -0 -0)
(1.91219189450738e+18 -0 -0)
(1.95704788408264e+18 -0 -0)
(2.00189383393011e+18 -0 -0)
(2.04673768419442e+18 -0 -0)
(2.0915877490279e+18 -0 -0)
(2.13645267546768e+18 -0 -0)
(2.18134139009338e+18 -0 -0)
(2.22626303531732e+18 -0 -0)
(2.27122690663962e+18 -0 -0)
(2.31624242542978e+18 -0 -0)
(2.36131925185508e+18 -0 -0)
(2.40646806029476e+18 -0 -0)
(2.45170184305113e+18 -0 -0)
(2.49703526704848e+18 -0 -0)
(2.54248327018781e+18 -0 -0)
(2.58806071038526e+18 -0 -0)
(2.63378237491911e+18 -0 -0)
(2.67966308003094e+18 -0 -0)
(2.72571777471662e+18 -0 -0)
(2.77196161733473e+18 -0 -0)
(2.8184100196786e+18 -0 -0)
(2.8650786658246e+18 -0 -0)
(2.91198351188269e+18 -0 -0)
(2.95914077307487e+18 -0 -0)
(3.00656690461782e+18 -0 -0)
(3.05427857705867e+18 -0 -0)
(3.10229264950669e+18 -0 -0)
(3.15062614164068e+18 -0 -0)
(3.19929620374925e+18 -0 -0)
(3.24832008525731e+18 -0 -0)
(3.29771510277664e+18 -0 -0)
(3.34749860630526e+18 -0 -0)
(3.397687943927e+18 -0 -0)
(3.44830042601822e+18 -0 -0)
(3.49935328733853e+18 -0 -0)
(3.55086364768502e+18 -0 -0)
(3.60284847198572e+18 -0 -0)
(3.65532452826706e+18 -0 -0)
(3.70830834462632e+18 -0 -0)
(3.76181616477688e+18 -0 -0)
(3.81586390273612e+18 -0 -0)
(3.8704670958215e+18 -0 -0)
(3.92564085664785e+18 -0 -0)
(3.9813998237414e+18 -0 -0)
(4.03775811164727e+18 -0 -0)
(4.09472925927358e+18 -0 -0)
(4.15232617785057e+18 -0 -0)
(4.21056109746934e+18 -0 -0)
(4.26944551292313e+18 -0 -0)
(4.32899012912553e+18 -0 -0)
(4.38920480509238e+18 -0 -0)
(4.45009849765494e+18 -0 -0)
(4.51167920505457e+18 -0 -0)
(4.57395390908532e+18 -0 -0)
(4.63692851766967e+18 -0 -0)
(4.7006078067507e+18 -0 -0)
(4.76499536236607e+18 -0 -0)
(4.83009352210699e+18 -0 -0)
(4.89590331717804e+18 -0 -0)
(4.96242441459201e+18 -0 -0)
(5.02965505907595e+18 -0 -0)
(5.09759201618461e+18 -0 -0)
(5.16623051554665e+18 -0 -0)
(5.23556419499328e+18 -0 -0)
(5.30558504536379e+18 -0 -0)
(5.37628335661017e+18 -0 -0)
(5.44764766503053e+18 -0 -0)
(5.51966470141536e+18 -0 -0)
(5.5923193415958e+18 -0 -0)
(5.66559455773301e+18 -0 -0)
(5.73947137202106e+18 -0 -0)
(5.81392881241305e+18 -0 -0)
(5.8889438705125e+18 -0 -0)
(5.96449146169567e+18 -0 -0)
(6.04054438830035e+18 -0 -0)
(6.11707330514176e+18 -0 -0)
(6.19404668828104e+18 -0 -0)
(6.27143080733151e+18 -0 -0)
(6.34918970044655e+18 -0 -0)
(6.42728515348661e+18 -0 -0)
(6.50567668293963e+18 -0 -0)
(6.58432152259042e+18 -0 -0)
(6.66317461468677e+18 -0 -0)
(6.74218860548914e+18 -0 -0)
(6.82131384495541e+18 -0 -0)
(6.90049839235993e+18 -0 -0)
(6.97968802520698e+18 -0 -0)
(7.05882625509213e+18 -0 -0)
(7.13785434765049e+18 -0 -0)
(7.21671134850423e+18 -0 -0)
(7.29533411513119e+18 -0 -0)
(7.37365735421762e+18 -0 -0)
(7.45161366592921e+18 -0 -0)
(7.52913359401172e+18 -0 -0)
(7.60614568460261e+18 -0 -0)
(7.68257655399582e+18 -0 -0)
(7.75835097327167e+18 -0 -0)
(7.83339198605062e+18 -0 -0)
(7.907621108856e+18 -0 -0)
(7.98095866392834e+18 -0 -0)
(8.05332593715219e+18 -0 -0)
(8.12465578196372e+18 -0 -0)
(8.19488115232971e+18 -0 -0)
(8.26393097272546e+18 -0 -0)
(8.33173083908484e+18 -0 -0)
(8.3982046667828e+18 -0 -0)
(8.46327599239462e+18 -0 -0)
(8.52686892916927e+18 -0 -0)
(8.58890884030914e+18 -0 -0)
(8.64932217314806e+18 -0 -0)
(8.70804009859306e+18 -0 -0)
(8.76499193908653e+18 -0 -0)
(8.82010621185414e+18 -0 -0)
(8.8733782063585e+18 -0 -0)
(8.92454478032245e+18 -0 -0)
(8.97409451685404e+18 -0 -0)
(9.0208880499851e+18 -0 -0)
(9.06662538733801e+18 -0 -0)
(9.10927135981222e+18 -0 -0)
(9.14932639083143e+18 -0 -0)
(9.19092499039271e+18 -0 -0)
(9.22812310974723e+18 -0 -0)
(9.26294852893682e+18 -0 -0)
(9.2964545424803e+18 -0 -0)
(9.3265147082784e+18 -0 -0)
(9.35677958878677e+18 -0 -0)
(9.38457640642996e+18 -0 -0)
(9.40911510501799e+18 -0 -0)
(9.43782772633515e+18 -0 -0)
(9.45535739578295e+18 -0 -0)
(9.47408066293673e+18 -0 -0)
(9.4937026322277e+18 -0 -0)
(9.51716118790695e+18 -0 -0)
(9.53065309257474e+18 -0 -0)
(9.54174500207514e+18 -0 -0)
(9.56238763949168e+18 -0 -0)
(9.56661831238106e+18 -0 -0)
(9.57415762323216e+18 -0 -0)
(9.59610876811613e+18 -0 -0)
(9.59351737484785e+18 -0 -0)
(9.60239578404434e+18 -0 -0)
(9.60932408721483e+18 -0 -0)
(9.61980982224289e+18 -0 -0)
(9.60859430796238e+18 -0 -0)
(9.63429104279908e+18 -0 -0)
(9.62560667208227e+18 -0 -0)
(9.64198434409092e+18 -0 -0)
(9.62994419228942e+18 -0 -0)
(9.66022308504517e+18 -0 -0)
(9.66187078564237e+18 -0 -0)
(9.69735696226492e+18 -0 -0)
(9.70943972591951e+18 -0 -0)
(9.76241590446414e+18 -0 -0)
(9.81138149543591e+18 -0 -0)
(9.91297852186953e+18 -0 -0)
(1.00473386589457e+19 -0 -0)
(1.02348709275954e+19 -0 -0)
(1.04760990031328e+19 -0 -0)
(1.07387951555127e+19 -0 -0)
(1.09984196746106e+19 -0 -0)
(1.12460782714886e+19 -0 -0)
(1.13993559580037e+19 -0 -0)
(1.15645337280943e+19 -0 -0)
(1.1671877319052e+19 -0 -0)
(1.17510388848415e+19 -0 -0)
(1.18180232877479e+19 -0 -0)
(1.18700624848651e+19 -0 -0)
(1.19205893079354e+19 -0 -0)
(1.19621114468957e+19 -0 -0)
(1.20074612458963e+19 -0 -0)
(1.20454812407178e+19 -0 -0)
(1.20875113787731e+19 -0 -0)
(1.21260793907427e+19 -0 -0)
(1.21679746571238e+19 -0 -0)
(1.22066732161461e+19 -0 -0)
(1.22491122966549e+19 -0 -0)
(1.22879313296772e+19 -0 -0)
(1.23306448208062e+19 -0 -0)
(1.23692413875837e+19 -0 -0)
(1.24120578979698e+19 -0 -0)
(1.24505336599909e+19 -0 -0)
(1.24937520613774e+19 -0 -0)
(1.25323315080535e+19 -0 -0)
(1.25756629811883e+19 -0 -0)
(1.26141366533035e+19 -0 -0)
(1.2657881602068e+19 -0 -0)
(1.26957622492798e+19 -0 -0)
(1.27391188261225e+19 -0 -0)
(1.27759755632943e+19 -0 -0)
(1.28185695800515e+19 -0 -0)
(1.28540855096925e+19 -0 -0)
(1.28956412784031e+19 -0 -0)
(1.29295805630241e+19 -0 -0)
(1.29699127636037e+19 -0 -0)
(1.30022059501394e+19 -0 -0)
(1.30412949333489e+19 -0 -0)
(1.30719810318473e+19 -0 -0)
(1.31097953088088e+19 -0 -0)
(1.31389137268956e+19 -0 -0)
(1.31753252227739e+19 -0 -0)
(1.3202797620032e+19 -0 -0)
(1.32374070135631e+19 -0 -0)
(1.32636794774698e+19 -0 -0)
(1.32968144361667e+19 -0 -0)
(1.33211611293237e+19 -0 -0)
(1.33528711121681e+19 -0 -0)
(1.33754149976247e+19 -0 -0)
(1.34057858281654e+19 -0 -0)
(1.34267171219428e+19 -0 -0)
(1.34557975638183e+19 -0 -0)
(1.34751047859679e+19 -0 -0)
(1.35030980955338e+19 -0 -0)
(1.35208460245393e+19 -0 -0)
(1.35477978206454e+19 -0 -0)
(1.35642300206904e+19 -0 -0)
(1.3590226256911e+19 -0 -0)
(1.36054222032136e+19 -0 -0)
(1.36305882320324e+19 -0 -0)
(1.36445883147617e+19 -0 -0)
(1.36687808255306e+19 -0 -0)
(1.36815073443533e+19 -0 -0)
(1.37047459455458e+19 -0 -0)
(1.37160764061618e+19 -0 -0)
(1.37382863037205e+19 -0 -0)
(1.37483030750161e+19 -0 -0)
(1.37696750931351e+19 -0 -0)
(1.37783859376884e+19 -0 -0)
(1.37996644464681e+19 -0 -0)
(1.38074554215407e+19 -0 -0)
(1.38282718649067e+19 -0 -0)
(1.38351541033583e+19 -0 -0)
(1.38555672508926e+19 -0 -0)
(1.38616626026053e+19 -0 -0)
(1.38817822877155e+19 -0 -0)
(1.38871368826091e+19 -0 -0)
(1.39069221035727e+19 -0 -0)
(1.39114829926941e+19 -0 -0)
(1.39309807466798e+19 -0 -0)
(1.39347989016498e+19 -0 -0)
(1.39540466063318e+19 -0 -0)
(1.39570751262457e+19 -0 -0)
(1.39760431478366e+19 -0 -0)
(1.39782677667832e+19 -0 -0)
(1.39970162890226e+19 -0 -0)
(1.39985189369267e+19 -0 -0)
(1.40170923006186e+19 -0 -0)
(1.40178703263278e+19 -0 -0)
(1.40362757528397e+19 -0 -0)
(1.40363836971335e+19 -0 -0)
(1.40546546487745e+19 -0 -0)
(1.40541160069083e+19 -0 -0)
(1.40723498523063e+19 -0 -0)
(1.40712296032791e+19 -0 -0)
(1.4089330466374e+19 -0 -0)
(1.40874889510073e+19 -0 -0)
(1.41053895624137e+19 -0 -0)
(1.41025906249115e+19 -0 -0)
(1.41200026110032e+19 -0 -0)
(1.41055896978444e+19 -0 -0)
)
;

boundaryField
{
    electrode
    {
        type            calculated;
        value           uniform (20266971517.4431 -0 -0);
    }
    ground
    {
        type            calculated;
        value           uniform (1.41238476982679e+19 -0 -0);
    }
    otherfaces
    {
        type            empty;
    }
}


// ************************************************************************* //
