/*--------------------------------*- C++ -*----------------------------------*\
| =========                 |                                                 |
| \\      /  F ield         | foam-extend: Open Source CFD                    |
|  \\    /   O peration     | Version:     4.0                                |
|   \\  /    A nd           | Web:         http://www.foam-extend.org         |
|    \\/     M anipulation  |                                                 |
\*---------------------------------------------------------------------------*/
FoamFile
{
    version     2.0;
    format      ascii;
    class       volScalarField;
    location    "3.9e-06";
    object      N_electronMean;
}
// * * * * * * * * * * * * * * * * * * * * * * * * * * * * * * * * * * * * * //

dimensions      [0 0 0 1 0 0 0];

internalField   nonuniform List<scalar> 
300
(
5.99716615088589e+16
5.99702071987155e+16
5.99660920494167e+16
5.99587883420827e+16
5.99483201592759e+16
5.99346428437005e+16
5.99177266034439e+16
5.989755314623e+16
5.98741064468357e+16
5.98473745832572e+16
5.98173491356634e+16
5.97840248557015e+16
5.97473994223408e+16
5.97074731993313e+16
5.96642490648758e+16
5.96177322427076e+16
5.95679301596821e+16
5.95148523240615e+16
5.94585102075523e+16
5.93989171341588e+16
5.93360881826689e+16
5.92700400948164e+16
5.92007911870462e+16
5.91283612602466e+16
5.90527715354779e+16
5.89740446049635e+16
5.88922043377054e+16
5.8807275785799e+16
5.87192851092762e+16
5.86282594727886e+16
5.85342269810872e+16
5.84372166664933e+16
5.83372583958054e+16
5.82343827165775e+16
5.81286207487238e+16
5.80200040993252e+16
5.79085647790769e+16
5.77943351265496e+16
5.76773477248872e+16
5.75576353172198e+16
5.74352307385857e+16
5.73101668458087e+16
5.71824764319445e+16
5.70521921479463e+16
5.69193464354758e+16
5.67839714614316e+16
5.66460990571671e+16
5.65057606649596e+16
5.63629872981301e+16
5.6217809514571e+16
5.60702574219824e+16
5.59203606842108e+16
5.57681484765605e+16
5.56136493980651e+16
5.54568913435864e+16
5.52979013717304e+16
5.51367055915636e+16
5.4973329073721e+16
5.48077957822495e+16
5.46401285083606e+16
5.4470348811131e+16
5.42984769625209e+16
5.41245318862048e+16
5.39485311443242e+16
5.37704909817976e+16
5.35904262662894e+16
5.34083503303913e+16
5.32242748758853e+16
5.30382099252199e+16
5.28501637713245e+16
5.26601429262772e+16
5.24681520950577e+16
5.22741941973729e+16
5.20782703373018e+16
5.18803797127029e+16
5.16805196112744e+16
5.14786854386503e+16
5.1274870668344e+16
5.10690667178604e+16
5.08612628684206e+16
5.06514462464984e+16
5.04396016945396e+16
5.02257116457237e+16
5.00097560743538e+16
4.9791712467443e+16
4.95715558324921e+16
4.93492586329449e+16
4.91247906640021e+16
4.88981189898284e+16
4.8669207925748e+16
4.84380189806746e+16
4.82045108682185e+16
4.79686395366282e+16
4.77303580164433e+16
4.74896162761752e+16
4.72463611747331e+16
4.70005364124474e+16
4.67520824830464e+16
4.65009366260721e+16
4.62470327987215e+16
4.59903016461491e+16
4.57306704343642e+16
4.54680630399439e+16
4.5202399975615e+16
4.49335983116888e+16
4.46615716209211e+16
4.43862299636345e+16
4.41074798513028e+16
4.38252242412275e+16
4.3539362484878e+16
4.32497902601159e+16
4.29563995462735e+16
4.26590786203782e+16
4.2357712085411e+16
4.20521808701557e+16
4.1742362230697e+16
4.14281298389192e+16
4.11093538213413e+16
4.0785900688521e+16
4.04576332827138e+16
4.01244108290238e+16
3.97860890223717e+16
3.94425201023422e+16
3.90935529485172e+16
3.87390330734718e+16
3.8378802545045e+16
3.80127000252024e+16
3.76405608592711e+16
3.72622171036098e+16
3.68774975756255e+16
3.64862279567155e+16
3.60882308983572e+16
3.56833261151653e+16
3.52713304795248e+16
3.48520582329347e+16
3.44253212407987e+16
3.39909290691341e+16
3.354868902996e+16
3.30984063908788e+16
3.26398845956765e+16
3.21729253714465e+16
3.16973288529357e+16
3.12128937854872e+16
3.07194177687482e+16
3.02166975864019e+16
2.97045295062526e+16
2.91827094400547e+16
2.86510330878802e+16
2.81092960920149e+16
2.75572943264921e+16
2.69948243213759e+16
2.6421683529327e+16
2.58376706428694e+16
2.52425860263714e+16
2.46362320378088e+16
2.40184135004646e+16
2.33889382570798e+16
2.27476180424857e+16
2.2094268434845e+16
2.14287091538254e+16
2.0750760256109e+16
2.00602215084219e+16
1.9356855556879e+16
1.86404001720177e+16
1.79105849847662e+16
1.71671307326634e+16
1.64097372815037e+16
1.56380802519831e+16
1.48518290677601e+16
1.40506928951034e+16
1.32345190244372e+16
1.24034510659212e+16
1.15581001034871e+16
1.0699743307729e+16
9.83066157145515e+15
8.95445580089926e+15
8.07621829553156e+15
7.20278927404433e+15
6.34285600867608e+15
5.50667272109608e+15
4.70564864942855e+15
3.95169059709439e+15
3.25618085817053e+15
2.62892046733675e+15
2.07715153547426e+15
1.60469788898606e+15
1.2115694774501e+15
894094251943945
645463615612493
456659767580309
317540766473637
217917174991176
148414538908621
101021318280494
68667259491363.9
46356580590922.7
31007978975349.8
20614740379381.8
13728721130016.2
9251775060692.62
6439691005892.87
4742852933064.2
3744060139585.41
3156043886840.95
2801337326697.21
2578234351747.02
2430652708223.98
2327671605732.35
2251805337605.72
2192770605748.1
2144330636827.63
2102541752924.56
2064823486482.71
2029454347761.73
1995294724804.36
1961576105988.32
1927788673978.9
1893603377739.81
1858819209850.2
1823329807472.8
1787094195083.97
1750097680339.87
1712370840772.95
1673996776889.07
1635081713225.19
1595746356692
1556118426901.39
1516326219395.81
1476495574248.97
1436747083922.15
1397194185898.94
1357943055631.98
1319090553637.65
1280724364445.32
1242923267628.48
1205756513382.42
1169283872565.57
1133556934452.73
1098618284319.86
1064502558845.26
1031237501080.19
998843641989.081
967336121062.207
936724714629.806
907014216058.491
878204822473.059
850290743906.022
823261901644.076
797104986609.303
771804536406.516
747345141673.525
723710660441.761
700883330435.934
678843780313.944
657571760689.853
637047080543.682
617249003605.353
598154053908.886
579738423210.788
561981062235.557
544861394017.195
528357618165.493
512448218362.071
497111651777.78
482326787324.64
468073288375.345
454329615359.839
441073981486.447
428286333953.044
415947800044.701
404040127452.478
392546849168.325
381453132963.601
370745577876.186
360411554059.467
350439226418.954
340817423337.187
331535466269.823
322583554121.402
313952782210.387
305634894682.094
297621185953.835
289901743618.1
282453525605.131
275253374962.063
268298018296.7
261593240525.329
255145931693.156
248963034329.597
243025177082.922
237311492859.246
231840898161.602
226646894612.995
221725879252.622
217107863289.663
212864616118.451
209109772828.054
206081176488.08
204154371051.471
204013722760.791
)
;

boundaryField
{
    electrode
    {
        type            calculated;
        value           uniform 5.99716615091613e+16;
    }
    ground
    {
        type            calculated;
        value           uniform 205327307031.54;
    }
    otherfaces
    {
        type            empty;
    }
}


// ************************************************************************* //
