/*--------------------------------*- C++ -*----------------------------------*\
| =========                 |                                                 |
| \\      /  F ield         | foam-extend: Open Source CFD                    |
|  \\    /   O peration     | Version:     4.0                                |
|   \\  /    A nd           | Web:         http://www.foam-extend.org         |
|    \\/     M anipulation  |                                                 |
\*---------------------------------------------------------------------------*/
FoamFile
{
    version     2.0;
    format      ascii;
    class       volScalarField;
    location    "3.9e-06";
    object      Phi;
}
// * * * * * * * * * * * * * * * * * * * * * * * * * * * * * * * * * * * * * //

dimensions      [0 0 0 1 0 0 0];

internalField   nonuniform List<scalar> 
300
(
699.999924368548
699.999699862141
699.999172327092
699.998374856573
699.997316860736
699.995992763156
699.994403662293
699.992549437909
699.990429821841
699.988044677565
699.985393813535
699.98247702414
699.979294089696
699.975844771413
699.972128811379
699.968145931129
699.963895830143
699.959378184356
699.954592644542
699.949538834611
699.944216349811
699.938624754835
699.932763581839
699.926632328349
699.920230455091
699.913557383698
699.906612494338
699.899395123227
699.891904560042
699.884140045234
699.876100767232
699.867785859542
699.859194397743
699.85032539637
699.841177805691
699.831750508383
699.822042316091
699.812051965889
699.801778116641
699.791219345255
699.780374142857
699.76924091088
699.757817957086
699.746103491555
699.734095622651
699.721792353032
699.709191575742
699.696291070463
699.683088500008
699.669581407097
699.65576721135
699.641643206152
699.627206553568
699.612454271703
699.597383215216
699.581990067336
699.566271336564
699.550223353673
699.53384226799
699.51712404277
699.500064449753
699.482659063099
699.464903252877
699.446792178219
699.428320780241
699.409483774757
699.390275644812
699.370690633059
699.350722733952
699.330365685763
699.309612962422
699.288457765167
699.266893013984
699.244911338854
699.222505070777
699.199666232568
699.17638652942
699.152657339221
699.1284697026
699.103814312713
699.078681504732
699.053061245029
699.02694312004
699.000316324783
698.973169651021
698.945491475033
698.917269744975
698.888491967813
698.859145195772
698.829216012313
698.798690517552
698.767554313127
698.735792486453
698.703389594314
698.670329645763
698.636596084264
698.602171769027
698.567038955469
698.531179274741
698.494573712241
698.457202585042
698.419045518146
698.38008141947
698.340288453466
698.29964401326
698.258124691198
698.215706247654
698.172363577978
698.1280706774
698.082800603751
698.036525437782
697.989216240901
697.940843010096
697.891374629781
697.840778820328
697.789022082952
697.736069640645
697.681885374784
697.626431757024
697.56966977602
697.511558858509
697.452056784189
697.391119593812
697.328701489811
697.264754728722
697.199229504567
697.132073822286
697.063233360147
696.992651320021
696.920268264175
696.846021937132
696.769847070958
696.691675172085
696.611434287575
696.529048748422
696.444438887169
696.357520726721
696.268205636751
696.176399953475
696.082004557579
695.984914403407
695.885017987923
695.782196710158
695.676324053316
695.567264831194
695.454874396234
695.33899772631
695.219468370012
695.096107237398
694.96872121789
694.837101603692
694.70102228904
694.560237679836
694.414480391467
694.263458411015
694.106851744907
693.94431034095
693.775444291336
693.599832079838
693.416989703277
693.226398063795
693.027450372339
692.81930843236
692.601002883859
692.371532650915
692.129783815056
691.874496470747
691.60415310087
691.316956283905
691.010829705438
690.683280940918
690.331657729849
689.953357078941
689.545086490813
689.102863578872
688.622895006928
688.101148237324
687.532694888725
686.912792032075
686.236787589891
685.499209575037
684.695068086706
683.819789246732
682.868490682622
681.836619859661
680.720947226195
679.517864312292
678.224314440325
676.83851533602
675.359372228854
673.785540430282
672.116223689972
670.351570351712
668.492169352675
666.538272957993
664.490496896075
662.34834963422
660.112328927187
657.782536666922
655.358089122278
652.838278649386
650.222389584644
647.509726358299
644.700354787047
641.79476259671
638.793807788102
635.698456527694
632.50964899839
629.228322698235
625.85531414916
622.391423912404
618.837326357406
615.193732529634
611.461600854762
607.641832280271
603.735229047676
599.742547734397
595.664455549776
591.501586586403
587.254493897705
582.923708050065
578.509683669994
574.0128599506
569.433602503567
564.772268158744
560.02929098443
555.205234029603
550.300590835793
545.315859114233
540.251470771725
535.107868783477
529.885432525227
524.584558251972
519.205579983756
513.748853627224
508.214673461292
502.603359538149
496.915170254018
491.150393004684
485.309253644768
479.392009591057
473.398857563476
467.330028173259
461.1858137803
454.966601474117
448.67272254393
442.304541404427
435.862365807136
429.346539276165
422.757347764004
416.095114923259
409.360106606643
402.552628503579
395.672927014127
388.721291158642
381.697949210682
374.603173694284
367.437175727387
360.200212265586
352.89247786231
345.514214916281
338.065603303903
330.54687232782
322.958188088953
315.29976836683
307.571766754396
299.774389930663
291.907778892469
283.972175514939
275.967823976419
267.895027142648
259.754015194272
251.545079162204
243.268436005085
234.924365216311
226.513070867366
218.034821519386
209.489809354519
200.878293009915
192.200453276922
183.456539312155
174.646721004116
165.771238884983
156.83025269075
147.823994958698
138.752615553448
129.616339167795
120.41530609663
111.149733699533
101.819753157382
92.4255746901339
82.9673206554871
73.4451944590502
63.8593096020386
54.2098627765064
44.4969594616594
34.7207906327895
24.8814544340612
14.9791375258753
5.01393206835663
)
;

boundaryField
{
    electrode
    {
        type            fixedValue;
        value           uniform 700;
    }
    ground
    {
        type            fixedValue;
        value           uniform 0;
    }
    otherfaces
    {
        type            empty;
    }
}


// ************************************************************************* //
