/*--------------------------------*- C++ -*----------------------------------*\
| =========                 |                                                 |
| \\      /  F ield         | foam-extend: Open Source CFD                    |
|  \\    /   O peration     | Version:     4.0                                |
|   \\  /    A nd           | Web:         http://www.foam-extend.org         |
|    \\/     M anipulation  |                                                 |
\*---------------------------------------------------------------------------*/
FoamFile
{
    version     2.0;
    format      ascii;
    class       volScalarField;
    location    "3.9e-06";
    object      PhiMean;
}
// * * * * * * * * * * * * * * * * * * * * * * * * * * * * * * * * * * * * * //

dimensions      [0 0 0 1 0 0 0];

internalField   nonuniform List<scalar> 
300
(
699.981154011012
699.979368277477
699.977326867106
699.975046972538
699.972538272683
699.969793288532
699.966810617089
699.963588708484
699.960126091148
699.95642167031
699.952474551766
699.948284063617
699.943849709914
699.939171157686
699.934248221474
699.929080848085
699.923669104347
699.918013169106
699.912113322948
699.905969938601
699.899583474364
699.89295446726
699.886083526699
699.878971328116
699.871618605752
699.864026161627
699.856194850116
699.848125572411
699.839819275522
699.831276940823
699.822499575834
699.813488231898
699.804243993392
699.794767956396
699.785061224525
699.775124903749
699.764960096182
699.754567897755
699.743949391942
699.733105642526
699.722037690748
699.710746552686
699.699233210021
699.687498605586
699.675543638794
699.663369161163
699.65097597176
699.638364814247
699.625536373727
699.61249127875
699.599230101433
699.58575337276
699.57206156959
699.558155116908
699.544034364279
699.52969957664
699.515150917919
699.50038844435
699.485412098684
699.470221703015
699.454816953585
699.439197414801
699.423362512034
699.40731152418
699.391043607091
699.374557785411
699.35785291636
699.340927684026
699.323780593306
699.306409962544
699.288813916014
699.270990374555
699.252937065341
699.234651519754
699.216131044152
699.197372724533
699.178373438036
699.159129834531
699.139638324799
699.11989504265
699.099895879481
699.079636430923
699.059111981911
699.038317499866
699.017247616716
698.995896640432
698.974258534319
698.952326884779
698.930094885652
698.907555336416
698.884700619528
698.861522681372
698.838013069245
698.814162856678
698.789962619556
698.765402419737
698.740471781782
698.715159674138
698.689454480832
698.663343984052
698.63681534219
698.609855055917
698.582448933409
698.554582101742
698.526238940455
698.497403052593
698.468057243376
698.438183463559
698.407762796134
698.376775398919
698.345200451639
698.313016113785
698.280199471497
698.246726498574
698.212572003753
698.177709556959
698.142111459477
698.105748688765
698.068590796515
698.030605823199
697.991760215187
697.952018769906
697.911344520505
697.869698677268
697.827040494481
697.783327121225
697.738513470417
697.692552107104
697.645393067025
697.596983697107
697.547268477815
697.496188834875
697.443682921536
697.389685375944
697.334127075373
697.276934919131
697.21803147702
697.157334619342
697.094757159936
697.030206467571
696.963583965163
696.894784602093
696.823696280444
696.750199209725
696.674165207734
696.595456923722
696.513926865223
696.429416350053
696.341754283317
696.250755787539
696.156220742567
696.057931960591
695.955653116501
695.849126473005
695.738070038624
695.622174414454
695.501099081601
695.374467967566
695.241864631071
695.102824723218
694.956831804873
694.803297844081
694.641536168256
694.470756737419
694.290057294026
694.098397728701
693.894566849168
693.677133685366
693.444407728832
693.194376453322
692.924660123116
692.632492361264
692.314688578064
691.967485099661
691.586560772101
691.167188954765
690.703986701258
690.190978978055
689.622011351772
688.990448885546
688.289428187801
687.512330627518
686.652699278016
685.70432633459
684.662063090547
683.521425127186
682.27872179174
680.931497424478
679.478351552444
677.918559305518
676.252089820163
674.47960368823
672.602371830169
670.621952242862
668.539650226626
666.356525077832
664.073389767472
661.690804252952
659.209209946502
656.628990057085
653.950605669698
651.174569298774
648.301549579934
645.332496476312
642.268566658444
639.110872972373
635.860469458723
632.518319400647
629.085321875702
625.56228527171
621.949961984917
618.249021539558
614.460221528699
610.584436475015
606.622490348423
602.575133777825
598.443078689445
594.226972727449
589.927435005543
585.545027695662
581.080293146334
576.533722921702
571.905796385678
567.19694812482
562.407608790591
557.538274950211
552.5895422542
547.56196176149
542.456080276473
537.272402642415
532.011433832593
526.673638696231
521.259487533143
515.769415704112
510.203868115202
504.563253542098
498.847992862136
493.058471115551
487.195088270969
481.258208857104
475.248215324699
469.165455801232
463.010303047784
456.783167868774
450.484542376243
444.11487107762
437.674624568737
431.164225156208
424.584123659691
417.934721664578
411.216451780338
404.429696097284
397.574870418531
390.652338348272
383.66250011985
376.605701763141
369.482328976577
362.292711077704
355.037220089731
347.716169477577
340.329918298962
332.878764948069
325.36305624552
317.783075986236
310.139159447487
302.431581692554
294.66068132614
286.826735861883
278.930119365229
270.971168657547
262.950295848209
254.86782450389
246.724156183581
238.519599980961
230.254547577217
221.929294028938
213.544221768935
205.099612290254
196.595839349985
188.03317135023
179.411973910775
170.732502714527
161.995115799457
153.200056491583
144.347675923025
135.438205472849
126.471989916906
117.449248973096
108.37032155816
99.2354159954857
90.0448657664003
80.798868311276
71.4977523798347
62.1417048127361
52.7310500004976
43.2659648225964
33.7467701770786
24.1736334394136
14.5468731506057
4.866648050544
)
;

boundaryField
{
    electrode
    {
        type            calculated;
        value           uniform 700.000000000644;
    }
    ground
    {
        type            calculated;
        value           uniform 0;
    }
    otherfaces
    {
        type            empty;
    }
}


// ************************************************************************* //
