/*--------------------------------*- C++ -*----------------------------------*\
| =========                 |                                                 |
| \\      /  F ield         | foam-extend: Open Source CFD                    |
|  \\    /   O peration     | Version:     4.0                                |
|   \\  /    A nd           | Web:         http://www.foam-extend.org         |
|    \\/     M anipulation  |                                                 |
\*---------------------------------------------------------------------------*/
FoamFile
{
    version     2.0;
    format      ascii;
    class       volScalarField;
    location    "3.9e-06";
    object      Sy_electron;
}
// * * * * * * * * * * * * * * * * * * * * * * * * * * * * * * * * * * * * * //

dimensions      [1 -3 -1 0 0 0 0];

internalField   nonuniform List<scalar> 
300
(
3.24991746239906e-09
3.25068595243086e-09
3.2509983786807e-09
3.25095951018147e-09
3.25095355081747e-09
3.25090700592768e-09
3.25082806184835e-09
3.25072254087732e-09
3.25058815908415e-09
3.25042521307765e-09
3.25023366271377e-09
3.25001335970876e-09
3.24976422728948e-09
3.24948618239328e-09
3.24917914738569e-09
3.24884305182362e-09
3.24847782988908e-09
3.24808342004153e-09
3.24765976420316e-09
3.24720680685657e-09
3.24672449415538e-09
3.24621277297105e-09
3.24567158990345e-09
3.24510089024566e-09
3.24450061687595e-09
3.24387070920963e-09
3.24321110196961e-09
3.24252172398895e-09
3.24180249697452e-09
3.24105333418506e-09
3.24027413906353e-09
3.2394648039188e-09
3.23862520847604e-09
3.23775521835984e-09
3.23685468358182e-09
3.23592343699149e-09
3.23496129265001e-09
3.23396804417556e-09
3.23294346304107e-09
3.23188729680384e-09
3.23079926729185e-09
3.22967906874332e-09
3.2285263658603e-09
3.22734079181562e-09
3.2261219461918e-09
3.22486939286534e-09
3.22358265790222e-09
3.22226122764516e-09
3.22090454735545e-09
3.21951202147231e-09
3.21808301769237e-09
3.21661688123182e-09
3.21598403682873e-09
3.215619204038e-09
3.21523893316786e-09
3.21484247559696e-09
3.21442900915655e-09
3.21399765144829e-09
3.21354746362777e-09
3.21307744947228e-09
3.21258655245028e-09
3.21207365223547e-09
3.21153756126876e-09
3.21097702153073e-09
3.21039070166939e-09
3.20977719425234e-09
3.20913501306887e-09
3.20846259066148e-09
3.20775827584446e-09
3.20702033121435e-09
3.20624693071264e-09
3.20543615718226e-09
3.20458599992796e-09
3.20369435230911e-09
3.20275900929475e-09
3.20177766509393e-09
3.2007479107796e-09
3.19966723191367e-09
3.1985330062532e-09
3.19734250134704e-09
3.19609287243999e-09
3.19478116008664e-09
3.19340428799382e-09
3.19195906086972e-09
3.19044216227849e-09
3.18885015263141e-09
3.18717946713134e-09
3.18542641376798e-09
3.18358717139801e-09
3.18165778793108e-09
3.17963417846085e-09
3.1775121234744e-09
3.17528726736364e-09
3.17295511657078e-09
3.17051103807612e-09
3.16795025791056e-09
3.16526785970282e-09
3.16245878328276e-09
3.15951782335345e-09
3.15643962825837e-09
3.15321869876757e-09
3.14984938690784e-09
3.14632589483679e-09
3.14264227391811e-09
3.13879242358264e-09
3.1347700904255e-09
3.13056886729432e-09
3.12618219230769e-09
3.12160334805179e-09
3.11682546063673e-09
3.11184149880107e-09
3.10664427300589e-09
3.1012264344805e-09
3.09558047422317e-09
3.08969872191631e-09
3.08357334473885e-09
3.07719634609288e-09
3.07055956423502e-09
3.06365467057603e-09
3.05647316787972e-09
3.04900638819493e-09
3.0412454905874e-09
3.03318145836185e-09
3.0248050961047e-09
3.01610702615073e-09
3.00707768458946e-09
2.99770731669419e-09
2.98798597183891e-09
2.97790349752839e-09
2.96744953273047e-09
2.95661350026685e-09
2.94538459826681e-09
2.93375179043618e-09
2.92170379512046e-09
2.9092290731037e-09
2.89631581417183e-09
2.88295192252307e-09
2.86912500246979e-09
2.8548223482685e-09
2.84003094917328e-09
2.82473754872572e-09
2.80976867322341e-09
2.79531451039735e-09
2.78034162150968e-09
2.76483470866373e-09
2.74877784166458e-09
2.73215455906182e-09
2.71494781880096e-09
2.69713991162003e-09
2.67871235988139e-09
2.65964586713073e-09
2.63992017325069e-09
2.61951383531462e-09
2.59840526140798e-09
2.57656859455856e-09
2.55398358478291e-09
2.53061850877339e-09
2.50645258666595e-09
2.48147536748076e-09
2.45566781994079e-09
2.42926980888724e-09
2.40250468559037e-09
2.37493514998199e-09
2.34601069373189e-09
2.31566212879046e-09
2.28276098559558e-09
2.2459448052572e-09
2.20775939286083e-09
2.16796840941349e-09
2.12613445719939e-09
2.08121848342393e-09
2.03283832179203e-09
1.98195648826361e-09
1.92814462126341e-09
1.86968225265528e-09
1.80727072324706e-09
1.73494100420651e-09
1.65658048793125e-09
1.57587715288299e-09
1.49523761258191e-09
1.4158122518902e-09
1.34043835983977e-09
1.25583207259981e-09
1.18273920056905e-09
1.12607802046872e-09
1.07219681045918e-09
1.04252307619829e-09
1.02519602797483e-09
1.03700159924951e-09
1.0809772060564e-09
1.16656617692091e-09
1.30878025288673e-09
1.5403070555714e-09
1.91967080014223e-09
2.53176541016153e-09
3.58531209309101e-09
4.80104218139966e-09
5.84195860262111e-09
7.07907916601781e-09
7.54935529240372e-09
7.03773310415394e-09
5.95327816679747e-09
4.69474900687211e-09
3.60776645114783e-09
2.80478389680618e-09
2.26463702176907e-09
1.91499197790863e-09
1.69719327088075e-09
1.55832600288756e-09
1.47608213390873e-09
1.4244883922704e-09
1.39793263323958e-09
1.38693634388011e-09
1.37990307604511e-09
1.37881371966077e-09
1.38083113772049e-09
1.38405452161918e-09
1.3872346085599e-09
1.38949891972206e-09
1.39026502205699e-09
1.38910993164355e-09
1.38575693320521e-09
1.37871814182614e-09
1.36945795659405e-09
1.35803744390198e-09
1.34455165054418e-09
1.32912964837565e-09
1.31192260536689e-09
1.2930951961367e-09
1.27281949159902e-09
1.25127018582655e-09
1.22862088639384e-09
1.20504122518686e-09
1.18069464063534e-09
1.15573670886034e-09
1.13031392989381e-09
1.10456289219872e-09
1.07860975272839e-09
1.05256998082749e-09
1.02654831650645e-09
1.00063892603812e-09
9.74925695570605e-10
9.49483002343027e-10
9.24376681727708e-10
8.99663692603508e-10
8.75391971286492e-10
8.51592213978399e-10
8.2829071175469e-10
8.05517512603098e-10
7.8329600105543e-10
7.61644219316101e-10
7.40574846659752e-10
7.20095839281247e-10
7.00211011098767e-10
6.80920824122516e-10
6.62223947091083e-10
6.44112592078725e-10
6.26575199113167e-10
6.09602245352673e-10
5.93184341846229e-10
5.77308530129501e-10
5.61960944614136e-10
5.47126848677138e-10
5.32790974748173e-10
5.18937735790613e-10
5.05550958457851e-10
4.92614486612154e-10
4.80103772768648e-10
4.67994107529915e-10
4.56270246566616e-10
4.4491865851121e-10
4.33926735611077e-10
4.23282377683125e-10
4.12973999545266e-10
4.029905603854e-10
3.93321617008365e-10
3.83957377670366e-10
3.7488875568433e-10
3.6610743021209e-10
3.57605844917843e-10
3.4937729225898e-10
3.41293844808137e-10
3.33017938296857e-10
3.24955456055487e-10
3.1707627843906e-10
3.09388496559128e-10
3.0190295365125e-10
2.94631735378878e-10
2.87586808978743e-10
2.79653419381578e-10
2.71817429903956e-10
2.64171022555734e-10
2.5675260881427e-10
2.4773614256299e-10
2.38814183850925e-10
2.29062689041379e-10
2.17800213182724e-10
2.04286125011377e-10
1.87415887794715e-10
1.63846720766412e-10
)
;

boundaryField
{
    electrode
    {
        type            zeroGradient;
    }
    ground
    {
        type            zeroGradient;
    }
    otherfaces
    {
        type            empty;
    }
}


// ************************************************************************* //
