/*--------------------------------*- C++ -*----------------------------------*\
| =========                 |                                                 |
| \\      /  F ield         | foam-extend: Open Source CFD                    |
|  \\    /   O peration     | Version:     4.0                                |
|   \\  /    A nd           | Web:         http://www.foam-extend.org         |
|    \\/     M anipulation  |                                                 |
\*---------------------------------------------------------------------------*/
FoamFile
{
    version     2.0;
    format      ascii;
    class       volScalarField;
    location    "3.9e-06";
    object      Te;
}
// * * * * * * * * * * * * * * * * * * * * * * * * * * * * * * * * * * * * * //

dimensions      [0 0 0 1 0 0 0];

internalField   nonuniform List<scalar> 
300
(
40273.0882241103
40273.3944835697
40273.587376682
40273.7116617184
40273.9037401079
40274.1377342097
40274.416674576
40274.7426395935
40275.1148523928
40275.5334509593
40275.998454775
40276.5098485128
40277.0676452831
40277.6718593682
40278.3225106786
40279.0196256335
40279.7632365527
40280.5533818444
40281.3901060495
40282.2734598767
40283.2035002574
40284.1802903987
40285.2038998414
40286.2744045247
40287.3918868543
40288.5564357689
40289.7681468235
40291.0271222673
40292.3334711263
40293.6873092982
40295.0887596451
40296.5379520916
40298.0350237359
40299.580118953
40301.1733895087
40302.8149946833
40304.5051013887
40306.2438842915
40308.0315259433
40309.8682169016
40311.7541558497
40313.6895497134
40315.6746137569
40317.7095716645
40319.7946555963
40321.930106209
40324.1161726643
40326.3531126649
40328.6411926546
40330.9806885616
40333.3718879744
40335.8150962318
40338.3106438861
40340.858885814
40343.4601775858
40346.1148731761
40348.8233348563
40351.5859378101
40354.4030719091
40357.2751421804
40360.2025688022
40363.1857870447
40366.2252473143
40369.3214153147
40372.4747723398
40375.6858156563
40378.9550589474
40382.2830328173
40385.670285327
40389.1173825522
40392.6249091766
40396.1934691133
40399.8236861443
40403.5162045969
40407.2716900496
40411.0908300605
40414.974334939
40418.9229385518
40422.9373991589
40427.0185002943
40431.1670516911
40435.3838902443
40439.66988102
40444.025918316
40448.4529267731
40452.9518625408
40457.5237144995
40462.1695055446
40466.8902939319
40471.6871746981
40476.5612811485
40481.5137864181
40486.5459051269
40491.6588951107
40496.8540592457
40502.1327473776
40507.4963583515
40512.946342153
40518.4842021705
40524.1114975875
40529.829845904
40535.6409256097
40541.5464790156
40547.5483152467
40553.6483134179
40559.8484260035
40566.1506824152
40572.5571927986
40579.0701520767
40585.6918442493
40592.4246469703
40599.2710364335
40606.2335925823
40613.3150046721
40620.518077221
40627.8457363734
40635.3010367207
40642.8871686163
40650.6074660227
40658.4654149496
40666.4646625333
40674.6090268162
40682.9025072954
40691.3492963165
40699.953791389
40708.7206085331
40717.654596743
40726.7608536958
40736.044742846
40745.5119120322
40755.1683137914
40765.0202275594
40775.0742839773
40785.3374915647
40795.8172660589
40806.5214628053
40817.4584127387
40828.6369629099
40840.0665235657
40851.757126684
40863.7195115564
40875.9652690815
40888.5068692937
40901.3575284934
40914.5312785821
40928.0432055252
40941.909606908
40956.1481182643
40970.7778482655
40985.8195327788
41001.2957338333
41017.2310375703
41033.6522604757
41050.5891499561
41068.0732855408
41086.1420807331
41104.8331327126
41124.1929828448
41144.2779994426
41165.1485858373
41186.9745892785
41209.940453087
41233.9971973331
41259.0625057509
41285.2522112276
41312.7859802119
41341.9077915274
41372.7890607455
41405.589874413
41440.4149708061
41477.1090520911
41515.8223667721
41557.3881699504
41602.0245044892
41649.284461204
41699.9438053349
41755.0787002788
41814.7622885347
41880.186183567
41953.5537986808
42036.4251554026
42131.9022513778
42245.3182722212
42382.4123213852
42551.3999152772
42765.2212864659
43039.857811383
43396.4927705078
43865.9482614209
44494.4619991035
45340.9059657634
46473.4022205206
48019.8415168755
50162.8168412424
53124.2900542509
57410.2603196583
62855.9846854835
69702.1622422105
80505.7649677976
95424.4596976565
115458.273875924
142814.95600344
179335.964604304
225721.067702333
280461.088239781
339979.821342716
400095.850134096
457517.013116526
510150.794282009
557185.022773314
598620.673140219
634847.604690346
666543.956221413
694298.981823926
718687.904006693
740276.537992066
759524.26486355
776809.763357478
792445.847705669
806697.953475321
819774.143414893
831844.139279664
843062.45878029
853554.663059466
863423.772899191
872755.264119198
881620.167856826
890077.293975473
898175.195216531
905953.815010659
913445.759114668
920677.33660521
927669.411950289
934438.108854652
940995.397742742
947349.587458028
953505.742355305
959466.036761835
965230.062222196
970795.088660646
976156.300597775
981306.944908689
986238.546265788
990941.331915633
995404.201971388
999616.208022834
1003561.33977942
1007223.20972504
1010588.8741869
1013642.30725817
1016367.00445119
1018745.67794435
1020760.48200703
1022393.02013414
1023624.25754245
1024433.72114129
1024796.17932715
1024709.51165625
1024143.14655238
1023077.80994812
1021492.34046169
1019366.05214732
1016677.92750765
1013406.72290464
1009531.04554416
1005028.96213829
999880.934816816
994062.889471044
987549.554703896
980320.361183926
972351.633521813
963618.789916094
954096.24497148
943757.438092833
932574.703664644
920519.12873096
907560.382760573
893666.517188095
878803.764119644
862936.222360039
846026.087260876
828032.431449858
808921.601280179
788642.200834574
767137.76879489
744359.257766277
720237.459836065
694695.548249757
667662.632608836
639048.110981208
608739.751331631
576618.792084026
542543.156408846
506326.562037859
467747.688827499
426523.141474436
382255.532632634
334399.539054278
282153.044013682
224466.451016665
)
;

boundaryField
{
    electrode
    {
        type            electronTemperature;
        seec            0.05;
        Tse             1000;
        Edepend         1;
        TFN             1000;
        field_emission  0;
        field_enhancement_factor 55;
        work_function   5;
        value           uniform 40273.0882241103;
    }
    ground
    {
        type            electronTemperature;
        seec            0.05;
        Tse             1000;
        Edepend         1;
        TFN             1000;
        field_emission  0;
        field_enhancement_factor 55;
        work_function   5;
        value           uniform 191721.297250463;
    }
    otherfaces
    {
        type            empty;
    }
}


// ************************************************************************* //
