/*--------------------------------*- C++ -*----------------------------------*\
| =========                 |                                                 |
| \\      /  F ield         | foam-extend: Open Source CFD                    |
|  \\    /   O peration     | Version:     4.0                                |
|   \\  /    A nd           | Web:         http://www.foam-extend.org         |
|    \\/     M anipulation  |                                                 |
\*---------------------------------------------------------------------------*/
FoamFile
{
    version     2.0;
    format      ascii;
    class       volScalarField;
    location    "3.7e-06";
    object      Ar;
}
// * * * * * * * * * * * * * * * * * * * * * * * * * * * * * * * * * * * * * //

dimensions      [0 0 0 1 0 0 0];

internalField   nonuniform List<scalar> 
300
(
3.21880358846804e+22
3.21880358445898e+22
3.21880358708891e+22
3.2188035882228e+22
3.21880359006366e+22
3.21880359263855e+22
3.21880359577803e+22
3.21880359953721e+22
3.21880360390761e+22
3.21880360888394e+22
3.21880361446548e+22
3.21880362065003e+22
3.21880362743569e+22
3.21880363482074e+22
3.21880364280347e+22
3.2188036513822e+22
3.2188036605556e+22
3.21880367032188e+22
3.21880368067925e+22
3.21880369162607e+22
3.21880370316066e+22
3.21880371528138e+22
3.21880372798653e+22
3.21880374127445e+22
3.21880375514506e+22
3.21880376959539e+22
3.21880378462392e+22
3.21880380022923e+22
3.21880381640879e+22
3.21880383316091e+22
3.21880385048578e+22
3.21880386838111e+22
3.21880388684391e+22
3.21880390587254e+22
3.21880392546539e+22
3.21880394562091e+22
3.21880396633808e+22
3.21880398761527e+22
3.21880400945086e+22
3.21880403184365e+22
3.21880405479251e+22
3.21880407829619e+22
3.21880410235367e+22
3.21880412696406e+22
3.21880415212655e+22
3.21880417784046e+22
3.21880420410548e+22
3.21880423092133e+22
3.21880425828878e+22
3.21880428620811e+22
3.21880431468085e+22
3.21880434370613e+22
3.21880437328507e+22
3.21880440341659e+22
3.21880443410077e+22
3.21880446533699e+22
3.21880449712615e+22
3.21880452946936e+22
3.21880456236794e+22
3.21880459582364e+22
3.21880462983799e+22
3.21880466441299e+22
3.21880469955135e+22
3.21880473525749e+22
3.21880477153385e+22
3.21880480838093e+22
3.21880484580181e+22
3.21880488379985e+22
3.21880492237865e+22
3.21880496154209e+22
3.21880500129451e+22
3.21880504164115e+22
3.21880508258691e+22
3.21880512413607e+22
3.21880516629527e+22
3.21880520906992e+22
3.2188052524652e+22
3.21880529648756e+22
3.21880534114133e+22
3.21880538643615e+22
3.21880543237537e+22
3.2188054789659e+22
3.21880552621538e+22
3.21880557413119e+22
3.21880562272268e+22
3.21880567199716e+22
3.21880572196181e+22
3.21880577262518e+22
3.21880582399727e+22
3.21880587608636e+22
3.21880592890229e+22
3.21880598245905e+22
3.21880603676078e+22
3.21880609181719e+22
3.21880614763832e+22
3.21880620423439e+22
3.21880626161583e+22
3.21880631979319e+22
3.21880637877827e+22
3.21880643858186e+22
3.21880649921426e+22
3.21880656068633e+22
3.21880662301234e+22
3.21880668620052e+22
3.21880675026297e+22
3.21880681521187e+22
3.21880688105693e+22
3.21880694781132e+22
3.21880701548521e+22
3.21880708408916e+22
3.21880715363443e+22
3.21880722413221e+22
3.2188072955941e+22
3.21880736803101e+22
3.2188074414537e+22
3.21880751587424e+22
3.21880759130462e+22
3.21880766775222e+22
3.21880774522649e+22
3.2188078237375e+22
3.21880790329681e+22
3.21880798391164e+22
3.21880806559304e+22
3.21880814834745e+22
3.21880823218059e+22
3.21880831709947e+22
3.21880840311324e+22
3.21880849022595e+22
3.21880857844393e+22
3.21880866777204e+22
3.21880875821588e+22
3.21880884977917e+22
3.2188089424651e+22
3.21880903627821e+22
3.21880913122335e+22
3.21880922729901e+22
3.21880932450435e+22
3.21880942284058e+22
3.21880952230737e+22
3.21880962290067e+22
3.21880972461794e+22
3.21880982745569e+22
3.21880993141091e+22
3.21881003647946e+22
3.21881014265528e+22
3.2188102499266e+22
3.21881035828381e+22
3.21881046771607e+22
3.21881057821242e+22
3.21881068976214e+22
3.21881080234658e+22
3.21881091594897e+22
3.21881103055422e+22
3.21881114613744e+22
3.21881126267767e+22
3.21881138014553e+22
3.21881149850144e+22
3.21881161779496e+22
3.21881173770959e+22
3.21881185887054e+22
3.21881198018766e+22
3.21881210110275e+22
3.21881222315258e+22
3.2188123462327e+22
3.21881246985821e+22
3.21881259407314e+22
3.21881271790555e+22
3.21881284213997e+22
3.21881296569892e+22
3.21881308904151e+22
3.21881321382679e+22
3.21881333915394e+22
3.21881346013805e+22
3.21881358024246e+22
3.21881370432113e+22
3.21881382163632e+22
3.21881393379422e+22
3.21881405046365e+22
3.21881415893385e+22
3.21881425992933e+22
3.21881436187463e+22
3.21881445597692e+22
3.21881454034249e+22
3.21881462209004e+22
3.21881469657803e+22
3.21881476054861e+22
3.21881481874178e+22
3.21881487228368e+22
3.21881491785255e+22
3.21881495469209e+22
3.21881498700489e+22
3.21881501638181e+22
3.21881504063646e+22
3.21881505838118e+22
3.2188150694612e+22
3.21881507088823e+22
3.21881507291643e+22
3.21881507162152e+22
3.21881507107334e+22
3.21881507161802e+22
3.21881507124459e+22
3.21881507401235e+22
3.21881507825369e+22
3.21881508399987e+22
3.21881509042327e+22
3.21881509666456e+22
3.21881510236153e+22
3.21881510772002e+22
3.2188151123871e+22
3.21881511671556e+22
3.21881512041164e+22
3.21881512448563e+22
3.21881512947245e+22
3.21881513416386e+22
3.2188151383768e+22
3.21881514236871e+22
3.21881514595061e+22
3.21881514937319e+22
3.21881515242331e+22
3.21881515537028e+22
3.21881515797214e+22
3.21881516051209e+22
3.21881516273097e+22
3.21881516493911e+22
3.21881516755939e+22
3.21881517082719e+22
3.21881517379302e+22
3.2188151767781e+22
3.21881517947633e+22
3.21881518221804e+22
3.21881518467738e+22
3.21881518720168e+22
3.2188151894408e+22
3.21881519176243e+22
3.21881519379838e+22
3.21881519593503e+22
3.21881519778235e+22
3.21881519974852e+22
3.21881520141798e+22
3.21881520322347e+22
3.21881520472384e+22
3.2188152063768e+22
3.21881520819162e+22
3.21881521059758e+22
3.21881521270173e+22
3.21881521497452e+22
3.21881521694328e+22
3.21881521909614e+22
3.21881522093772e+22
3.21881522297482e+22
3.21881522469251e+22
3.21881522661615e+22
3.2188152282135e+22
3.21881523002584e+22
3.21881523150694e+22
3.21881523321259e+22
3.21881523458671e+22
3.21881523619025e+22
3.21881523746753e+22
3.21881523897575e+22
3.21881524015762e+22
3.21881524158093e+22
3.21881524266946e+22
3.21881524401056e+22
3.21881524501505e+22
3.21881524627588e+22
3.21881524719493e+22
3.21881524846097e+22
3.21881524987734e+22
3.21881525157421e+22
3.21881525290411e+22
3.21881525452938e+22
3.21881525577874e+22
3.21881525733305e+22
3.21881525850298e+22
3.21881525998916e+22
3.21881526108695e+22
3.2188152625114e+22
3.21881526354194e+22
3.21881526490794e+22
3.21881526587474e+22
3.21881526718968e+22
3.21881526811036e+22
3.21881526938963e+22
3.21881527025629e+22
3.21881527149096e+22
3.2188152723039e+22
3.2188152734957e+22
3.21881527425657e+22
3.21881527542961e+22
3.2188152761684e+22
3.21881527730771e+22
3.21881527799949e+22
3.21881527913198e+22
3.21881527981607e+22
3.21881528093195e+22
3.21881528161839e+22
3.21881528276384e+22
3.21881528348619e+22
3.21881528493882e+22
)
;

boundaryField
{
    electrode
    {
        type            zeroGradient;
    }
    ground
    {
        type            zeroGradient;
    }
    otherfaces
    {
        type            empty;
    }
}


// ************************************************************************* //
