/*--------------------------------*- C++ -*----------------------------------*\
| =========                 |                                                 |
| \\      /  F ield         | foam-extend: Open Source CFD                    |
|  \\    /   O peration     | Version:     4.0                                |
|   \\  /    A nd           | Web:         http://www.foam-extend.org         |
|    \\/     M anipulation  |                                                 |
\*---------------------------------------------------------------------------*/
FoamFile
{
    version     2.0;
    format      ascii;
    class       volScalarField;
    location    "3.7e-06";
    object      Arm;
}
// * * * * * * * * * * * * * * * * * * * * * * * * * * * * * * * * * * * * * //

dimensions      [0 0 0 1 0 0 0];

internalField   nonuniform List<scalar> 
300
(
3.57414484271232e+15
3.57602275800249e+15
3.57797181440703e+15
3.57927773343619e+15
3.58009393503582e+15
3.58047244062352e+15
3.5804574595967e+15
3.58008042679067e+15
3.57936699957667e+15
3.57833916351183e+15
3.57701269017397e+15
3.57540166589222e+15
3.5735181436116e+15
3.5713727258054e+15
3.56897486938991e+15
3.56633312098272e+15
3.56345229915036e+15
3.560340993155e+15
3.55700754553902e+15
3.55345843480714e+15
3.54969986242146e+15
3.54573775007866e+15
3.54157778780562e+15
3.53722543298091e+15
3.53266998204409e+15
3.52792919941254e+15
3.5230067806476e+15
3.51790473273538e+15
3.51263666119691e+15
3.50720745352921e+15
3.50160332303017e+15
3.49583565581041e+15
3.489922570977e+15
3.48386944377166e+15
3.47768136045372e+15
3.4713631253544e+15
3.46491490536612e+15
3.45834322042209e+15
3.45165514216844e+15
3.44485420379758e+15
3.43794390783962e+15
3.43092953255783e+15
3.42381495809291e+15
3.41660387605032e+15
3.40929978665741e+15
3.40190595496555e+15
3.39442332381716e+15
3.38685334769316e+15
3.3791882531785e+15
3.37142664147742e+15
3.36355588590834e+15
3.35558851943961e+15
3.34751912222812e+15
3.33936543455354e+15
3.33113557828744e+15
3.32284593822372e+15
3.31449980708611e+15
3.30610010102498e+15
3.29764939327185e+15
3.28914809786472e+15
3.28060053422539e+15
3.27200881560556e+15
3.26336960300574e+15
3.25466490931355e+15
3.24589871303629e+15
3.23709662991943e+15
3.22826073799974e+15
3.21939287702274e+15
3.21049463281056e+15
3.20156736622953e+15
3.19261023447504e+15
3.18361607830679e+15
3.17458335857411e+15
3.16551954144386e+15
3.15641106019857e+15
3.14725897991462e+15
3.13806965487516e+15
3.12883893132146e+15
3.11958684026615e+15
3.11028274177837e+15
3.10096128995671e+15
3.09162459230147e+15
3.08226955741942e+15
3.07289846132967e+15
3.06349645705259e+15
3.05407129933112e+15
3.04463470441544e+15
3.03518699321392e+15
3.02571623303011e+15
3.01623020138086e+15
3.0067229009832e+15
2.99714917986051e+15
2.98756441818821e+15
2.97797021813347e+15
2.9683666075408e+15
2.95875361270195e+15
2.94913101529818e+15
2.93949838989602e+15
2.92984478539831e+15
2.92017014391503e+15
2.91048073654246e+15
2.90077786276815e+15
2.89102969124081e+15
2.8812655190443e+15
2.87147609982514e+15
2.8616520711818e+15
2.85180849800021e+15
2.84192572136956e+15
2.83201419041486e+15
2.82207935848999e+15
2.81211935061555e+15
2.80213188384845e+15
2.79210920986688e+15
2.78204912033503e+15
2.77194940552272e+15
2.76179240315741e+15
2.75155919478715e+15
2.74127462821536e+15
2.73093956617999e+15
2.72054593556928e+15
2.71006730695563e+15
2.69951670028691e+15
2.68886506931002e+15
2.67812283546367e+15
2.66730144015192e+15
2.65639869129677e+15
2.64538642679245e+15
2.63428213400434e+15
2.62307495897486e+15
2.61176287647925e+15
2.60033022528336e+15
2.58877314452967e+15
2.57708665041099e+15
2.5652446483015e+15
2.5532106277484e+15
2.54100349360049e+15
2.52862717910164e+15
2.5160566162383e+15
2.50327293128756e+15
2.4902852828391e+15
2.47707766671433e+15
2.46363343820511e+15
2.44992044117168e+15
2.43590657163396e+15
2.42156719069323e+15
2.40692215422227e+15
2.39195657150451e+15
2.37665408754565e+15
2.36098416793996e+15
2.34489786642745e+15
2.32840768199835e+15
2.31148886664378e+15
2.29407908306895e+15
2.27617719849916e+15
2.25776496660939e+15
2.23879263135503e+15
2.21921691665091e+15
2.19903731401616e+15
2.17823468292758e+15
2.15676403836915e+15
2.13458976611178e+15
2.11169680564621e+15
2.08804685228626e+15
2.06365250322234e+15
2.03850077502898e+15
2.01253701598853e+15
1.98578208363221e+15
1.95828057455857e+15
1.93006143639172e+15
1.90116662870454e+15
1.87166479698035e+15
1.84158920158288e+15
1.81103221116189e+15
1.78016537677411e+15
1.74918267870055e+15
1.71825394107478e+15
1.68755834303645e+15
1.65729486883242e+15
1.62770240581477e+15
1.59893646240172e+15
1.57115131229629e+15
1.54449402668872e+15
1.51904588529546e+15
1.49492174523891e+15
1.47212136431754e+15
1.45055420664249e+15
1.43025985191042e+15
1.41118681039302e+15
1.39324668460366e+15
1.37635254821446e+15
1.36039285796529e+15
1.34537067977468e+15
1.33163938242505e+15
1.32387679823125e+15
1.34736399324227e+15
1.40676063928789e+15
1.47167646646895e+15
1.50847154036567e+15
1.51636211156882e+15
1.50321808847798e+15
1.47766753961748e+15
1.44884892391181e+15
1.4228103291283e+15
1.40190676788527e+15
1.38606887830531e+15
1.37441851208793e+15
1.36538043116675e+15
1.35847347387109e+15
1.35319097815175e+15
1.34884347126554e+15
1.34480805173659e+15
1.34082160825152e+15
1.33679398800268e+15
1.33273028639002e+15
1.32863996931188e+15
1.32442844786443e+15
1.32002515219568e+15
1.31543242483867e+15
1.31061880786211e+15
1.30557795583848e+15
1.30032491261092e+15
1.29485334358535e+15
1.289147615374e+15
1.28308831859276e+15
1.27676199985628e+15
1.2703261754509e+15
1.26381644246972e+15
1.25724564861746e+15
1.25064071733386e+15
1.24403320170129e+15
1.2374308688063e+15
1.2308562941402e+15
1.22433588615216e+15
1.21787825176574e+15
1.21149448628836e+15
1.20521138826115e+15
1.19902173971662e+15
1.19295195803964e+15
1.18699682614036e+15
1.18117172805887e+15
1.17548084175643e+15
1.16991913235705e+15
1.16450330298676e+15
1.15922033231567e+15
1.15407676124369e+15
1.14908772810694e+15
1.14423839433701e+15
1.13953490105823e+15
1.13497774281815e+15
1.13055667719551e+15
1.12627652746575e+15
1.12213106315144e+15
1.11811537717893e+15
1.11423268333666e+15
1.11047447574077e+15
1.10683831449227e+15
1.10332275681357e+15
1.09991231122211e+15
1.09661586804345e+15
1.09342571806525e+15
1.09034785103825e+15
1.08736989591253e+15
1.08449501841105e+15
1.08171532610592e+15
1.07902897972156e+15
1.07643268475575e+15
1.07391929057364e+15
1.07148627808817e+15
1.06912377639184e+15
1.06683855556779e+15
1.06462374705964e+15
1.06248550861791e+15
1.06041142222974e+15
1.05840787420709e+15
1.05646331796372e+15
1.054576815606e+15
1.05274708850603e+15
1.05097453590833e+15
1.04926147969443e+15
1.0476018190258e+15
1.0459946438304e+15
1.04440472460561e+15
1.04275696821238e+15
1.04112842579199e+15
1.03954513743696e+15
1.0379976234835e+15
1.03649322815799e+15
1.03503277787278e+15
1.03360532533996e+15
1.03199935060637e+15
1.03038562941026e+15
1.02881466517848e+15
1.02728740379439e+15
1.02549163084059e+15
1.02370187928409e+15
1.02181814536132e+15
1.01969408210118e+15
1.01732354681354e+15
1.01460882139579e+15
1.01132343775436e+15
)
;

boundaryField
{
    electrode
    {
        type            zeroGradient;
    }
    ground
    {
        type            zeroGradient;
    }
    otherfaces
    {
        type            empty;
    }
}


// ************************************************************************* //
