/*--------------------------------*- C++ -*----------------------------------*\
| =========                 |                                                 |
| \\      /  F ield         | foam-extend: Open Source CFD                    |
|  \\    /   O peration     | Version:     4.0                                |
|   \\  /    A nd           | Web:         http://www.foam-extend.org         |
|    \\/     M anipulation  |                                                 |
\*---------------------------------------------------------------------------*/
FoamFile
{
    version     2.0;
    format      ascii;
    class       volVectorField;
    location    "3.7e-06";
    object      E;
}
// * * * * * * * * * * * * * * * * * * * * * * * * * * * * * * * * * * * * * //

dimensions      [0 0 0 1 0 0 0];

internalField   nonuniform List<vector> 
300
(
(5.63560919597528 -0 -0)
(11.3333268769722 -0 -0)
(19.9279845874978 -0 -0)
(27.9102403646928 -0 -0)
(35.8258263513648 -0 -0)
(43.8073351344275 -0 -0)
(51.773779909115 -0 -0)
(59.7436917895698 -0 -0)
(67.7178283364784 -0 -0)
(75.6947976174323 -0 -0)
(83.6754160044012 -0 -0)
(91.6599655426129 -0 -0)
(99.6487666299349 -0 -0)
(107.642219333846 -0 -0)
(115.640746108093 -0 -0)
(123.644810756664 -0 -0)
(131.654920952626 -0 -0)
(139.671629778572 -0 -0)
(147.695538969818 -0 -0)
(155.727301745509 -0 -0)
(163.767625743773 -0 -0)
(171.81727611504 -0 -0)
(179.877078486376 -0 -0)
(187.947922009048 -0 -0)
(196.030762630864 -0 -0)
(204.126626222874 -0 -0)
(212.236611768504 -0 -0)
(220.361894764933 -0 -0)
(228.503730495539 -0 -0)
(236.663457456323 -0 -0)
(244.842500761481 -0 -0)
(253.042375652994 -0 -0)
(261.26469096918 -0 -0)
(269.511152845042 -0 -0)
(277.78356827679 -0 -0)
(286.08384872317 -0 -0)
(294.414013976592 -0 -0)
(302.77619581514 -0 -0)
(311.172641857848 -0 -0)
(319.605719389969 -0 -0)
(328.077919323145 -0 -0)
(336.591860129777 -0 -0)
(345.150291747343 -0 -0)
(353.756099738464 -0 -0)
(362.41230930021 -0 -0)
(371.122089376547 -0 -0)
(379.888756868375 -0 -0)
(388.715780834419 -0 -0)
(397.606786761746 -0 -0)
(406.565560817559 -0 -0)
(415.596054241561 -0 -0)
(424.70238774965 -0 -0)
(433.88885601894 -0 -0)
(443.159932134219 -0 -0)
(452.520272137313 -0 -0)
(461.974719699519 -0 -0)
(471.528310772064 -0 -0)
(481.186278364402 -0 -0)
(490.954057283291 -0 -0)
(500.837289087224 -0 -0)
(510.841827026981 -0 -0)
(520.973741113712 -0 -0)
(531.239323256553 -0 -0)
(541.645092511142 -0 -0)
(552.197800476772 -0 -0)
(562.904436737843 -0 -0)
(573.772234537039 -0 -0)
(584.808676480523 -0 -0)
(596.021500512467 -0 -0)
(607.418706008501 -0 -0)
(619.008560059797 -0 -0)
(630.799603967905 -0 -0)
(642.800660050132 -0 -0)
(655.020838527399 -0 -0)
(667.469544843381 -0 -0)
(680.156487260838 -0 -0)
(693.091684736285 -0 -0)
(706.285475196643 -0 -0)
(719.748524147316 -0 -0)
(733.491833891502 -0 -0)
(747.526753014454 -0 -0)
(761.864986464988 -0 -0)
(776.518606290646 -0 -0)
(791.500062845362 -0 -0)
(806.822196740354 -0 -0)
(822.498251548506 -0 -0)
(838.541887264547 -0 -0)
(854.96719464126 -0 -0)
(871.788710479595 -0 -0)
(889.021433915591 -0 -0)
(906.680843866617 -0 -0)
(924.782917652121 -0 -0)
(943.34415098605 -0 -0)
(962.381579340626 -0 -0)
(981.912800917889 -0 -0)
(1001.95600119267 -0 -0)
(1022.52997955116 -0 -0)
(1043.65417767489 -0 -0)
(1065.34871015817 -0 -0)
(1087.63439759945 -0 -0)
(1110.53280210499 -0 -0)
(1134.06626562908 -0 -0)
(1158.25795139618 -0 -0)
(1183.13188847256 -0 -0)
(1208.71301996101 -0 -0)
(1235.02725511438 -0 -0)
(1262.10152544803 -0 -0)
(1289.96384544123 -0 -0)
(1318.64337815659 -0 -0)
(1348.1705059823 -0 -0)
(1378.5769070422 -0 -0)
(1409.89563753874 -0 -0)
(1442.16122048122 -0 -0)
(1475.40974114749 -0 -0)
(1509.67894943942 -0 -0)
(1545.0083696075 -0 -0)
(1581.43941735733 -0 -0)
(1619.01552474961 -0 -0)
(1657.78227334789 -0 -0)
(1697.78753742068 -0 -0)
(1739.08164298483 -0 -0)
(1781.71755618009 -0 -0)
(1825.75116738373 -0 -0)
(1871.24189380711 -0 -0)
(1918.2535208519 -0 -0)
(1966.85431727733 -0 -0)
(2017.11674235761 -0 -0)
(2069.11764288014 -0 -0)
(2122.93867429985 -0 -0)
(2178.66679842773 -0 -0)
(2236.39483387477 -0 -0)
(2296.22205627242 -0 -0)
(2358.25485419589 -0 -0)
(2422.60745128793 -0 -0)
(2489.4027070943 -0 -0)
(2558.77301053745 -0 -0)
(2630.86128084402 -0 -0)
(2705.82209332295 -0 -0)
(2783.82294922639 -0 -0)
(2865.0457120327 -0 -0)
(2949.68823641464 -0 -0)
(3037.96621968811 -0 -0)
(3130.11531147342 -0 -0)
(3226.39352400602 -0 -0)
(3327.08399293117 -0 -0)
(3432.49814791433 -0 -0)
(3542.97936335826 -0 -0)
(3658.90717458384 -0 -0)
(3780.70215651602 -0 -0)
(3908.83159116265 -0 -0)
(4043.81609450433 -0 -0)
(4186.23721233963 -0 -0)
(4336.74654254408 -0 -0)
(4496.07718004442 -0 -0)
(4665.05183657671 -0 -0)
(4844.60772412398 -0 -0)
(5035.81090392961 -0 -0)
(5239.82045817394 -0 -0)
(5458.17504910062 -0 -0)
(5692.19574983106 -0 -0)
(5944.58913305997 -0 -0)
(6221.02881680583 -0 -0)
(6525.8483564527 -0 -0)
(6860.98993693396 -0 -0)
(7229.42932727479 -0 -0)
(7635.77917713485 -0 -0)
(8086.99696325913 -0 -0)
(8591.11090842459 -0 -0)
(9157.2821228648 -0 -0)
(9795.5111771098 -0 -0)
(10511.3015589333 -0 -0)
(11308.9380081782 -0 -0)
(12204.1816367827 -0 -0)
(13213.8518210797 -0 -0)
(14336.1190741791 -0 -0)
(15579.2442432199 -0 -0)
(16967.2443550293 -0 -0)
(18496.3252687122 -0 -0)
(20164.097704727 -0 -0)
(21989.4754736082 -0 -0)
(23964.9722450509 -0 -0)
(26076.8520953282 -0 -0)
(28331.1966541085 -0 -0)
(30715.771561313 -0 -0)
(33206.6010542994 -0 -0)
(35797.1008121302 -0 -0)
(38475.2817338637 -0 -0)
(41212.6911937798 -0 -0)
(43988.103273427 -0 -0)
(46796.2584303566 -0 -0)
(49627.1749638989 -0 -0)
(52457.8817894674 -0 -0)
(55274.4348247939 -0 -0)
(58077.6997163873 -0 -0)
(60870.5354678338 -0 -0)
(63665.6130502859 -0 -0)
(66457.2219471737 -0 -0)
(69246.6870771625 -0 -0)
(72057.377777319 -0 -0)
(74889.6966226183 -0 -0)
(77744.9759061837 -0 -0)
(80618.3881117638 -0 -0)
(83493.0860931086 -0 -0)
(86355.4388444888 -0 -0)
(89194.2846289426 -0 -0)
(92004.379717798 -0 -0)
(94785.3259100538 -0 -0)
(97538.0834425428 -0 -0)
(100264.483723279 -0 -0)
(102966.7830403 -0 -0)
(105647.485815235 -0 -0)
(108307.219892201 -0 -0)
(110942.072772945 -0 -0)
(113550.194367209 -0 -0)
(116133.92901934 -0 -0)
(118695.426895217 -0 -0)
(121236.68364861 -0 -0)
(123759.530689499 -0 -0)
(126265.695836775 -0 -0)
(128756.749748909 -0 -0)
(131234.178732098 -0 -0)
(133699.341995768 -0 -0)
(136153.532972247 -0 -0)
(138597.931863227 -0 -0)
(141031.517455506 -0 -0)
(143451.209643962 -0 -0)
(145856.023575438 -0 -0)
(148246.854416583 -0 -0)
(150624.539570194 -0 -0)
(152989.825497479 -0 -0)
(155343.433138832 -0 -0)
(157686.009322851 -0 -0)
(160018.194386453 -0 -0)
(162340.565001638 -0 -0)
(164653.693294764 -0 -0)
(166958.084938516 -0 -0)
(169254.250528642 -0 -0)
(171542.640082492 -0 -0)
(173823.719298416 -0 -0)
(176097.898858383 -0 -0)
(178365.608882697 -0 -0)
(180627.229676183 -0 -0)
(182881.729596545 -0 -0)
(185126.75331055 -0 -0)
(187361.345745547 -0 -0)
(189585.819353322 -0 -0)
(191800.493175298 -0 -0)
(194005.642273388 -0 -0)
(196201.561436456 -0 -0)
(198388.513972872 -0 -0)
(200566.789355817 -0 -0)
(202736.645994373 -0 -0)
(204898.366383184 -0 -0)
(207052.20628062 -0 -0)
(209198.437963239 -0 -0)
(211337.308367726 -0 -0)
(213469.066097588 -0 -0)
(215593.950445641 -0 -0)
(217712.186982266 -0 -0)
(219823.995966371 -0 -0)
(221929.598694441 -0 -0)
(224029.186666522 -0 -0)
(226122.979597578 -0 -0)
(228211.165122808 -0 -0)
(230293.939334227 -0 -0)
(232371.488443793 -0 -0)
(234444.017520872 -0 -0)
(236511.461097174 -0 -0)
(238572.273370092 -0 -0)
(240625.1100842 -0 -0)
(242670.187067294 -0 -0)
(244707.675546901 -0 -0)
(246737.77559326 -0 -0)
(248760.66022982 -0 -0)
(250776.52957766 -0 -0)
(252785.553463107 -0 -0)
(254787.914493846 -0 -0)
(256783.764206482 -0 -0)
(258773.269937578 -0 -0)
(260756.573574184 -0 -0)
(262733.835158173 -0 -0)
(264705.187314791 -0 -0)
(266670.781121337 -0 -0)
(268630.735639237 -0 -0)
(270585.193991468 -0 -0)
(272534.266066926 -0 -0)
(274478.089950953 -0 -0)
(276416.768337289 -0 -0)
(278350.434794105 -0 -0)
(280279.189643265 -0 -0)
(282203.155386306 -0 -0)
(284122.422935959 -0 -0)
(286037.107792677 -0 -0)
(287947.297983518 -0 -0)
(289853.09544088 -0 -0)
(291754.576365164 -0 -0)
(293651.833382284 -0 -0)
(295544.923268566 -0 -0)
(297433.918867168 -0 -0)
(299318.167020153 -0 -0)
)
;

boundaryField
{
    electrode
    {
        type            calculated;
        value           uniform (4.46742770691345 -0 -0);
    }
    ground
    {
        type            calculated;
        value           uniform (300258.595296403 -0 -0);
    }
    otherfaces
    {
        type            empty;
    }
}


// ************************************************************************* //
