/*--------------------------------*- C++ -*----------------------------------*\
| =========                 |                                                 |
| \\      /  F ield         | foam-extend: Open Source CFD                    |
|  \\    /   O peration     | Version:     4.0                                |
|   \\  /    A nd           | Web:         http://www.foam-extend.org         |
|    \\/     M anipulation  |                                                 |
\*---------------------------------------------------------------------------*/
FoamFile
{
    version     2.0;
    format      ascii;
    class       volScalarField;
    location    "3.7e-06";
    object      electron;
}
// * * * * * * * * * * * * * * * * * * * * * * * * * * * * * * * * * * * * * //

dimensions      [0 0 0 1 0 0 0];

internalField   nonuniform List<scalar> 
300
(
5.87654771266773e+16
5.87638551515478e+16
5.87596752870587e+16
5.87525753042342e+16
5.87426116558975e+16
5.87297659545446e+16
5.87140351833177e+16
5.86954224874052e+16
5.86739292170523e+16
5.86495575633512e+16
5.86223101096076e+16
5.85921897113303e+16
5.85591995488262e+16
5.85233431010387e+16
5.84846241313827e+16
5.84430466752686e+16
5.8398615024909e+16
5.83513337136007e+16
5.83012074991426e+16
5.82482413463292e+16
5.81924404085704e+16
5.81338100086179e+16
5.80723556184175e+16
5.8008082838122e+16
5.79409973742422e+16
5.78711050169563e+16
5.77984116166182e+16
5.77229230594523e+16
5.76446452424602e+16
5.75635840475671e+16
5.7479745315025e+16
5.73931348160973e+16
5.73037582250541e+16
5.72116210904933e+16
5.71167288060113e+16
5.70190865802857e+16
5.69186994065702e+16
5.68155720316394e+16
5.67097089242363e+16
5.66011142430478e+16
5.6489791804247e+16
5.63757450486394e+16
5.62589770084764e+16
5.61394902739632e+16
5.6017286959506e+16
5.58923686697673e+16
5.57647364655637e+16
5.56343908296606e+16
5.55013316325238e+16
5.53655580980889e+16
5.52270687696068e+16
5.50858614756167e+16
5.4941933296112e+16
5.47952805289721e+16
5.46458986567331e+16
5.44937823137507e+16
5.43389252538297e+16
5.41813203183953e+16
5.40209594052856e+16
5.3857833438239e+16
5.36919323371472e+16
5.35232449891607e+16
5.33517592207267e+16
5.31774617706424e+16
5.30003382642025e+16
5.2820373188533e+16
5.26375498691928e+16
5.24518504481338e+16
5.22632558631089e+16
5.20717458286107e+16
5.18772988184362e+16
5.16798920499723e+16
5.14795014702803e+16
5.12761017440832e+16
5.10696662437494e+16
5.08601670413483e+16
5.06475749028808e+16
5.04318592847755e+16
5.02129883327453e+16
4.99909288830799e+16
4.97656464664673e+16
4.95371053144477e+16
4.93052683685645e+16
4.90700972923034e+16
4.88315524859093e+16
4.85895931041511e+16
4.83441770771133e+16
4.80952611340916e+16
4.78428008306622e+16
4.75867505789948e+16
4.73270636814704e+16
4.70636923676641e+16
4.67965878347488e+16
4.65257002913678e+16
4.62509790050252e+16
4.59723723530434e+16
4.56898278771042e+16
4.54032923414044e+16
4.51127117944696e+16
4.48180316346213e+16
4.45191966791096e+16
4.42161512369286e+16
4.39088391852957e+16
4.35972040497933e+16
4.32811890881689e+16
4.2960737377759e+16
4.26357919065284e+16
4.23062956677167e+16
4.19721917580603e+16
4.16334234795909e+16
4.12899344450246e+16
4.09416686867728e+16
4.05885707696464e+16
4.02305859073666e+16
3.98676600830728e+16
3.94997401741e+16
3.91267740813953e+16
3.87487108640436e+16
3.83655008793967e+16
3.79770959290906e+16
3.75834494102448e+16
3.71845164681824e+16
3.67802541389281e+16
3.63706214447164e+16
3.59555793965591e+16
3.5535090989481e+16
3.51091212778907e+16
3.46776375202048e+16
3.42406093381405e+16
3.37980088701717e+16
3.33498109128353e+16
3.28959930492537e+16
3.24365357659973e+16
3.19714225595483e+16
3.1500640033191e+16
3.10241779846215e+16
3.05420294841415e+16
3.00541909429756e+16
2.9560662170984e+16
2.90614464228934e+16
2.85565504320349e+16
2.80459844305335e+16
2.75297621549151e+16
2.70079008360877e+16
2.64804211727115e+16
2.59473472871083e+16
2.54087066631106e+16
2.48645300655449e+16
2.43148514416544e+16
2.37597078056406e+16
2.31991391068851e+16
2.26331880883513e+16
2.20619001475337e+16
2.14853231387721e+16
2.09035073335481e+16
2.03165052983594e+16
1.972437076936e+16
1.91271614734224e+16
1.85249294375037e+16
1.79177239158696e+16
1.7305558071722e+16
1.66882589922133e+16
1.60654644218983e+16
1.54368397700816e+16
1.48021743886823e+16
1.41613274065471e+16
1.35141488747817e+16
1.28604513361057e+16
1.22000606136536e+16
1.15328959802278e+16
1.08592054518939e+16
1.01798159785327e+16
9.49596210258058e+15
8.80912342873566e+15
8.12154965486617e+15
7.43645255660968e+15
6.75748989355081e+15
6.0889752057284e+15
5.4361115960727e+15
4.80448592997834e+15
4.19992715572e+15
3.62844257663255e+15
3.0956001939043e+15
2.60612654492047e+15
2.16374833084791e+15
1.77080918408609e+15
1.42804911902683e+15
1.13468434701799e+15
888497230455404
686031343983314
522653880356753
393259212203162
292797135500324
216124770329339
158378585019683
114672554346470
81060442980204.6
56217892461630.3
38276255532535.2
25151128122841.1
15925529279267.3
9882949824856.82
6206090067767.74
4084994452843.26
2886130683138.02
2203876841679.56
1807285622394.62
1571396223456.6
1428758218386.4
1341895609821.93
1289230240506.61
1257930009371.21
1240049934267.53
1230352117305.31
1225435356140.72
1223054706809.24
1221699722445.4
1220335065763.92
1218254759480.99
1214989293472.95
1210210201140.29
1203700609937.71
1195372627890.25
1185227228500.48
1173317671642.46
1159735653705.63
1144599196227.12
1128042996979.58
1110211414032.92
1091253538177.15
1071319355221.4
1050556780585.1
1029109366158.5
1007114559453.35
984702417990.754
961994701600.134
939104274659.454
916134765598.656
893180437373.624
870326231133.421
847647963231.743
825212638185.146
803079101261.178
781298890782.776
759916503487.055
738968995073.978
718485878777.131
698483916959.438
678976929170.633
659981423859.057
641509137319.482
623567912204.861
606161733435.347
589291298993.176
572954464124.058
557148161460.585
541864305218.268
527090001522.823
512815793183.207
499032278357.548
485727042340.051
472887017485.039
460498501013.43
448547458667.365
437019510673.9
425900024190.199
415171046974.373
404810876721.055
394801902636.715
385131442348.217
375787648045.759
366759324375.183
358035732320.532
349606623743.557
341462274577.866
333593530477.923
325991853540.216
318649370042.244
311558917244.298
304714060645.927
298109006767.445
291737754725.164
285590719049.895
279637209889.939
273855792439.827
268253653230.112
262841343840.225
257630612554.772
252633029847.145
247818511238.663
243165246278.988
238709390777.388
234489198130.656
230499688090.125
226785011940.708
223427188566.964
220562104422.579
218480897964.479
217621885898.82
218802701736.282
)
;

boundaryField
{
    electrode
    {
        type            driftDiffusionElectronDensity;
        seec            0.05;
        Edepend         1;
        field_emission  0;
        field_enhancement_factor 55;
        work_function   5;
        value           uniform 5.87654771266773e+16;
    }
    ground
    {
        type            driftDiffusionElectronDensity;
        seec            0.05;
        Edepend         1;
        field_emission  0;
        field_enhancement_factor 55;
        work_function   5;
        value           uniform 220990314349.853;
    }
    otherfaces
    {
        type            empty;
    }
}


// ************************************************************************* //
