/*--------------------------------*- C++ -*----------------------------------*\
| =========                 |                                                 |
| \\      /  F ield         | foam-extend: Open Source CFD                    |
|  \\    /   O peration     | Version:     4.0                                |
|   \\  /    A nd           | Web:         http://www.foam-extend.org         |
|    \\/     M anipulation  |                                                 |
\*---------------------------------------------------------------------------*/
FoamFile
{
    version     2.0;
    format      ascii;
    class       volScalarField;
    location    "3.7e-06";
    object      N_electronMean;
}
// * * * * * * * * * * * * * * * * * * * * * * * * * * * * * * * * * * * * * //

dimensions      [0 0 0 1 0 0 0];

internalField   nonuniform List<scalar> 
300
(
6.00299946627052e+16
6.00285482082483e+16
6.00244346379772e+16
6.0017117374875e+16
6.00066187170147e+16
5.99928926433661e+16
5.99759079215813e+16
5.99556451177828e+16
5.99320872887895e+16
5.99052217704467e+16
5.98750395713232e+16
5.98415350299251e+16
5.98047055544508e+16
5.97645513686576e+16
5.97210753330562e+16
5.96742827675335e+16
5.96241813020627e+16
5.95707807492508e+16
5.95140929808866e+16
5.94541318117188e+16
5.93909128976465e+16
5.93244536399419e+16
5.92547730933129e+16
5.91818918718624e+16
5.91058320824978e+16
5.90266172744658e+16
5.89442723411013e+16
5.88588234223536e+16
5.87702978268817e+16
5.86787239245023e+16
5.85841310795747e+16
5.84865496392153e+16
5.83860108366322e+16
5.82825466305832e+16
5.81761895926456e+16
5.80669728189641e+16
5.79549298437644e+16
5.78400945611189e+16
5.77225011387731e+16
5.76021839306275e+16
5.74791774066524e+16
5.73535160806515e+16
5.72252344217825e+16
5.70943667736933e+16
5.69609472854117e+16
5.68250098440532e+16
5.66865880124655e+16
5.654571497451e+16
5.64024234947243e+16
5.6256745892094e+16
5.61087140472251e+16
5.59583594106585e+16
5.58057129573731e+16
5.56508050959536e+16
5.54936655354522e+16
5.5334323147868e+16
5.51728058504207e+16
5.50091405134836e+16
5.48433528903154e+16
5.46754675487478e+16
5.45055078101379e+16
5.43334956928161e+16
5.41594518489521e+16
5.39833955518772e+16
5.38053447440079e+16
5.36253159747218e+16
5.34433242350943e+16
5.32593828579893e+16
5.30735034678413e+16
5.28856959285988e+16
5.26959682903698e+16
5.25043267624142e+16
5.23107757367087e+16
5.21153177564105e+16
5.19179534207148e+16
5.17186813809392e+16
5.15174983702598e+16
5.13143991509458e+16
5.11093763836492e+16
5.09024205425329e+16
5.06935198954149e+16
5.04826603669723e+16
5.02698254060558e+16
5.00549959325799e+16
4.98381503065999e+16
4.96192643353851e+16
4.93983112040989e+16
4.91752613434551e+16
4.89500823619199e+16
4.87227390251646e+16
4.8493193193435e+16
4.82614038311368e+16
4.80273270360943e+16
4.77909158764956e+16
4.75521202361151e+16
4.73108867613319e+16
4.70671588064883e+16
4.68208763800716e+16
4.65719760911712e+16
4.63203911162362e+16
4.60660511640216e+16
4.58088824009329e+16
4.55488074360727e+16
4.52857453439189e+16
4.50196115770556e+16
4.4750317903417e+16
4.44777723858075e+16
4.42018793385547e+16
4.39225393167759e+16
4.36396490566532e+16
4.33531013985767e+16
4.30627852553196e+16
4.27685856023738e+16
4.24703835019335e+16
4.21680560968242e+16
4.18614766060763e+16
4.15505144121164e+16
4.12350350955462e+16
4.09149003545262e+16
4.05899679433655e+16
4.026009172019e+16
3.99251217323707e+16
3.95849042891988e+16
3.92392820561842e+16
3.88880940414694e+16
3.85311755076657e+16
3.8168358006612e+16
3.77994694673479e+16
3.74243342193727e+16
3.70427730396731e+16
3.66546032557803e+16
3.62596388524108e+16
3.58576905646799e+16
3.54485659733088e+16
3.50320697232318e+16
3.46080037884186e+16
3.41761675494567e+16
3.37363578386396e+16
3.32883691586997e+16
3.28319939138118e+16
3.23670225217616e+16
3.18932435452888e+16
3.14104439079828e+16
3.09184091555248e+16
3.0416923809298e+16
2.99057716892058e+16
2.93847360888209e+16
2.88535999348238e+16
2.83121459574379e+16
2.77601570049428e+16
2.71974165013223e+16
2.66237087390994e+16
2.60388192250706e+16
2.54425351492483e+16
2.48346457428889e+16
2.4214942755919e+16
2.35832211578102e+16
2.29392798825482e+16
2.2282922184322e+16
2.16139560806189e+16
2.09321913675308e+16
2.02374253206186e+16
1.95294273681078e+16
1.88079411492513e+16
1.80726950084604e+16
1.73234034358453e+16
1.65597589567759e+16
1.57814310884551e+16
1.49880829812691e+16
1.41794159527188e+16
1.33552632356285e+16
1.25157401530037e+16
1.1661429178223e+16
1.07936043989973e+16
9.91456421800573e+15
9.02794377941721e+15
8.13891877323822e+15
7.25447614490123e+15
6.38350018510767e+15
5.53649823071502e+15
4.72518246542599e+15
3.9617785024863e+15
3.25797481301708e+15
2.62383389820795e+15
2.06677152154673e+15
1.59067004071996e+15
1.19547774712986e+15
877345443783137
629196394928042
441695882998246
304392480828782
206816431265227
139355642457168
93846719256401.8
63107493481522.9
42124414730145.7
27902625896649
18408122319744.3
12199095059386.5
8247131566299.79
5828915781729.6
4403951125474.44
3575811636909.78
3086637110069.43
2786545327436.8
2593125304572.15
2461637561997.52
2367297279330.79
2295877842650.05
2238842748150.96
2190929040498.48
2148755395997.86
2110072912770.82
2073376360465.86
2037664180619.88
2002259096903.49
1966711905779.46
1930735582632.12
1894159428108.91
1856898901645.89
1818930456249.01
1780251579037.8
1740899972239.46
1700963895859.81
1660552995525.69
1619789997984.57
1578803499924.32
1537721725095.17
1496669721315.36
1455766695111.22
1415124217366.88
1374846277885.17
1335027251329.09
1295752142820.69
1257096947612.75
1219128046069.6
1181902292278.34
1145468403502.86
1109866102996.97
1075127232475.07
1041276855480.94
1008332906605.77
976308075771.972
945209792514.483
915040630135.856
885798707786.838
857476460945.306
830062249254.929
803540995061.81
777895445515.235
753108652516.399
729163123756.589
706039870295.806
683718389822.823
662177406395.822
641395770534.682
621352034870.666
602022105075.65
583381363894.244
565408111863.616
548081306829.525
531378655672.141
515278200872.548
499757977511.546
484796469985.656
470373021076.316
456465781210.493
443052962621.383
430114490738.395
417631156924.404
405584361994.914
393957347379.836
382735053839.614
371903904621.422
361451108129.086
351364680267.212
341633303548.486
332246144901.85
323193258069.368
314465602946.957
306054785357.193
297951950973.465
290147091729.786
282617594830.72
275340308343.924
268311395832.408
261536385494.071
255021896802.865
248774614777.048
242775667049.152
237004253779.217
231478454675.798
226231439435.159
221259696243.899
216592570264.141
212301201194.947
208497978299.941
205418011412.908
203433482841.279
203221542265.799
)
;

boundaryField
{
    electrode
    {
        type            calculated;
        value           uniform 6.0029994663024e+16;
    }
    ground
    {
        type            calculated;
        value           uniform 204488066010.084;
    }
    otherfaces
    {
        type            empty;
    }
}


// ************************************************************************* //
