/*--------------------------------*- C++ -*----------------------------------*\
| =========                 |                                                 |
| \\      /  F ield         | foam-extend: Open Source CFD                    |
|  \\    /   O peration     | Version:     4.0                                |
|   \\  /    A nd           | Web:         http://www.foam-extend.org         |
|    \\/     M anipulation  |                                                 |
\*---------------------------------------------------------------------------*/
FoamFile
{
    version     2.0;
    format      ascii;
    class       volScalarField;
    location    "3.7e-06";
    object      Phi;
}
// * * * * * * * * * * * * * * * * * * * * * * * * * * * * * * * * * * * * * //

dimensions      [0 0 0 1 0 0 0];

internalField   nonuniform List<scalar> 
300
(
699.999925542872
699.999698749849
699.999169987747
699.998370217543
699.997309305056
699.99598182912
699.994388816047
699.992530243792
699.990405903261
699.988015721903
699.98535958342
699.982437360836
699.97924891905
699.975794109727
699.972072771095
699.968084726654
699.963829783711
699.959307731923
699.954518341725
699.949461362659
699.944136521609
699.938543520942
699.932682036535
699.92655171571
699.920152175068
699.913482998201
699.906543733319
699.89933389075
699.891852940335
699.884100308717
699.876075376505
699.867777475333
699.859205884795
699.850359829268
699.841238474605
699.831840924716
699.822166218023
699.812213323785
699.801981138302
699.791468480994
699.780674090343
699.769596619706
699.758234633001
699.746586600256
699.734650893019
699.722425779636
699.709909420393
699.697099862511
699.683995035004
699.670592743394
699.656890664283
699.642886339778
699.628577171766
699.613960416043
699.599033176291
699.583792397901
699.568234861644
699.552357177182
699.53615577642
699.519626906697
699.502766623814
699.485570784895
699.468035041073
699.450154830011
699.431925368239
699.413341643313
699.39439840579
699.375090161011
699.355411160691
699.33535539431
699.31491658029
699.294088156973
699.272863273359
699.251234779636
699.229195217457
699.20673680998
699.18385145164
699.160530697664
699.136765753294
699.112547462721
699.087866297701
699.062712345853
699.037075298603
699.010944438767
698.984308627747
698.957156292318
698.929475410977
698.901253499833
698.872477598001
698.843134252468
698.813209502406
698.782688862877
698.751557307896
698.719799252812
698.68739853594
698.654338399417
698.620601469194
698.586169734114
698.551024524016
698.51514648677
698.478515564176
698.441110966629
698.402911146467
698.36389376987
698.324035687236
698.283312901872
698.241700536895
698.199172800176
698.155702947198
698.111263241632
698.065824913466
698.019358114496
697.971831870964
697.92321403313
697.873471221554
697.822568769834
697.77047066358
697.717139475344
697.662536295263
697.606620657121
697.549350459435
697.490681880922
697.430569289023
697.36896513643
697.305819829436
697.241081568373
697.174696208284
697.106607118883
697.036755032092
696.965077873929
696.891510578863
696.815984885005
696.738429108445
696.658767894725
696.576921945026
696.492807714252
696.406337077657
696.317416962196
696.225948938102
696.131828765581
696.034945890633
695.935182883153
695.83241480932
695.726508529055
695.61732190772
695.504702929526
695.388488697859
695.268504305302
695.144561552887
695.016457494868
694.883972780143
694.746869755234
694.60489029932
694.457753319064
694.305151820651
694.146749863292
693.982177972376
693.811029136364
693.632856608497
693.447150799757
693.253376891842
693.050844857553
692.838641637388
692.615788300457
692.381242308259
692.133826345305
691.872190363116
691.594693214421
691.299449635888
690.984207739563
690.646415557415
690.283454302301
689.89248635687
689.469842193182
689.011562902131
688.51410092157
687.972946619249
687.382951297902
686.739858268002
686.038678117586
685.273893236428
684.44101330125
683.535436430073
682.552266857643
681.487718325985
680.338493454022
679.10124493851
677.773474671765
676.353732192258
674.840934453537
673.233981630234
671.53245612261
669.736789510936
667.847493800957
665.864942863177
663.789458103101
661.620568659825
659.358976639956
657.004122854681
654.555151454801
652.011476413173
649.372153061055
646.636917205723
643.805947321515
640.879887949424
637.859661679585
634.746262634903
631.540639952248
628.243723738735
624.856341037363
621.379271536047
617.813175316346
614.158790209901
610.417037131484
606.588777252087
602.674775196862
598.675748792406
594.592329620287
590.425113413106
586.174616564503
581.841330096512
577.425671315695
572.928040630128
568.348769117545
563.688178505913
558.946667953845
554.124764529649
549.222933048815
544.241640901877
539.181297077469
534.042319202044
528.825068201548
523.529918580521
518.157188575783
512.707214247079
507.180275689465
501.576675251178
495.896658987556
490.140499245679
484.308411034328
478.400639321787
472.417370442149
466.358824010041
460.225255135713
454.017040456004
447.734498752675
441.37798583245
434.947799207655
428.444276347557
421.867695111892
415.218375416033
408.496575821504
401.702599016407
394.836684729292
387.899118597699
380.890122198408
373.809964706518
366.658851125235
359.437034676809
352.144705326418
344.782101612383
337.349398746791
329.846822501282
322.274533440284
314.632744826428
306.921604151336
299.141312263508
291.292002983278
283.373881523697
275.387184758605
267.332207518084
259.209172287452
251.018362481622
242.759987247899
234.434318466301
226.041551942724
217.581948235428
209.055690976467
200.463030621663
191.804139647296
183.079259050051
174.28855063675
165.432246562398
156.510498561995
147.523530853115
138.471485629231
129.354579781987
120.172946299167
110.926795226169
101.616250646226
92.2415159166152
82.802706953807
73.3000210542195
63.7335664342942
54.1035345219858
44.4100267382371
34.6532294309748
24.8332378460841
14.9502345464018
5.00430992160512
)
;

boundaryField
{
    electrode
    {
        type            fixedValue;
        value           uniform 700;
    }
    ground
    {
        type            fixedValue;
        value           uniform 0;
    }
    otherfaces
    {
        type            empty;
    }
}


// ************************************************************************* //
