/*--------------------------------*- C++ -*----------------------------------*\
| =========                 |                                                 |
| \\      /  F ield         | foam-extend: Open Source CFD                    |
|  \\    /   O peration     | Version:     4.0                                |
|   \\  /    A nd           | Web:         http://www.foam-extend.org         |
|    \\/     M anipulation  |                                                 |
\*---------------------------------------------------------------------------*/
FoamFile
{
    version     2.0;
    format      ascii;
    class       volScalarField;
    location    "3.7e-06";
    object      PhiMean;
}
// * * * * * * * * * * * * * * * * * * * * * * * * * * * * * * * * * * * * * //

dimensions      [0 0 0 1 0 0 0];

internalField   nonuniform List<scalar> 
300
(
699.980139400371
699.978269348273
699.976146172392
699.973786255293
699.971199278327
699.968377656622
699.965319853502
699.962024239255
699.958489275693
699.954713814531
699.950696921559
699.946437897554
699.941936229359
699.937191576477
699.932203754781
699.926972720508
699.921498557436
699.91578146856
699.909821765275
699.903619857425
699.89717624643
699.890491518176
699.883566336467
699.876401436396
699.868997616873
699.861355750216
699.853476765996
699.84536164536
699.837011420114
699.828427160767
699.819609968066
699.81056099175
699.801281419375
699.791772453967
699.78203530984
699.772071207272
699.761881366208
699.751467003953
699.740829328783
699.729969532532
699.718888787794
699.707588245389
699.696069024844
699.684332209957
699.67237884422
699.660209926325
699.64782640565
699.635229179392
699.622419089498
699.609396925076
699.596163422795
699.58271928329
699.56906515776
699.555201650654
699.541129295147
699.526848543802
699.512359751619
699.497663169337
699.482758937701
699.46764708024
699.452327498174
699.436799964467
699.421064116626
699.405119449257
699.388965339144
699.372601037073
699.356025630067
699.339238035795
699.322236996637
699.305021072354
699.287588632631
699.269937847686
699.252066699036
699.233972977769
699.215654254188
699.197107883321
699.178331017494
699.159320587534
699.140073290848
699.120585552059
699.100853560037
699.08087321226
699.060640099714
699.040149500356
699.019396360808
698.998375309226
698.977080634167
698.955506251368
698.933645687955
698.911492081388
698.889038156353
698.86627620556
698.843198129588
698.819795359092
698.796058830604
698.771978970266
698.747545670315
698.722748270387
698.697575528802
698.672015605396
698.646056039652
698.619683716268
698.592884829896
698.565644898615
698.537948695482
698.509780219622
698.481122675498
698.451958415043
698.422268925628
698.392034771576
698.361235540627
698.32984980186
698.297855052226
698.26522767811
698.231942902638
698.197974711036
698.163295822433
698.127877635243
698.09169012354
698.054701751022
698.016879388104
697.978188258855
697.938591824539
697.89805172747
697.856527656661
697.81397719707
697.770355698615
697.725616166053
697.679709076125
697.632582218511
697.58418051854
697.53444584961
697.48331681566
697.430728508466
697.37661226299
697.320895444448
697.263501095168
697.204347563989
697.14334815131
697.080410723258
697.015437210169
696.948323079801
696.87895676545
696.807219023175
696.732982236987
696.656109647127
696.576454377067
696.49385838845
696.408151259452
696.319148817524
696.226651687719
696.130443469026
696.030288667523
695.92593042815
695.817087697566
695.703452064955
695.584684042098
695.460408762127
695.330210687891
695.193627286434
695.050142564598
694.899171889393
694.740039129841
694.571964077444
694.394050798073
694.205264822401
694.004400017753
693.790033598634
693.560483169122
693.313744500883
693.047445602613
692.758812895714
692.444635528354
692.101136280185
691.723976962536
691.308370506943
690.848871223695
690.339455493003
689.773881094852
689.145414228937
688.447116378432
687.672267400211
686.814310477518
685.866966581702
684.825033062415
683.683958065906
682.440040737624
681.09084284888
679.634974890847
678.071732333593
676.401150118078
674.623957312505
672.741476586573
670.755318552975
668.666846384661
666.477146596498
664.187107564357
661.797283840114
659.308154371271
656.720170136457
654.033853173832
651.249789634658
648.368710191918
645.391609642141
642.319676667664
639.154035899221
635.895745119225
632.545768501224
629.105003297573
625.574256729898
621.954279193133
618.245740197154
614.449398754088
610.56612544388
606.59674072264
602.541993032038
598.402592549933
594.179186520525
589.872394037272
585.482778604467
581.010884223622
576.457205480751
571.822225028573
567.10638217694
562.310112569619
557.433917074644
552.47839408577
547.444098534311
542.331580703856
537.141350026255
531.873915552614
526.529747313689
521.10932025964
515.613075728232
510.0414640253
504.394900570194
498.673812206869
492.878591207585
487.009644034783
481.067343020905
475.052077655466
468.964204509381
462.804104224558
456.572195009732
450.268974868158
443.894894791103
437.45043135252
430.936013398075
424.352097787942
417.699092670775
410.977436743505
404.187518657082
397.329760347279
390.404531959976
383.412239908161
376.353236739612
369.22791438346
362.036608648764
354.779697837882
347.457501889134
340.070386176876
332.618655556809
325.102663209299
317.522699370351
309.879105731966
302.172164072439
294.402220245654
286.569559340676
278.674563592324
270.717575050684
262.699011957608
254.61920313565
246.478556337559
238.277385836587
230.016089571558
221.694967693754
213.314408962487
204.874699878901
196.376220599007
187.819244445954
179.20414351215
170.531178309951
161.800713427956
153.012996925369
144.168386566638
135.267118360649
126.309543803042
117.295887131116
108.226494073605
99.1015773567241
89.9214773713697
80.6863958334897
71.3966684969681
62.0524863473503
52.6541808746586
43.2019329573379
33.6960706830434
24.1367652694234
14.5243425330208
4.85896487801721
)
;

boundaryField
{
    electrode
    {
        type            calculated;
        value           uniform 700.000000000667;
    }
    ground
    {
        type            calculated;
        value           uniform 0;
    }
    otherfaces
    {
        type            empty;
    }
}


// ************************************************************************* //
