/*--------------------------------*- C++ -*----------------------------------*\
| =========                 |                                                 |
| \\      /  F ield         | foam-extend: Open Source CFD                    |
|  \\    /   O peration     | Version:     4.0                                |
|   \\  /    A nd           | Web:         http://www.foam-extend.org         |
|    \\/     M anipulation  |                                                 |
\*---------------------------------------------------------------------------*/
FoamFile
{
    version     2.0;
    format      ascii;
    class       volScalarField;
    location    "3.7e-06";
    object      Sy_electron;
}
// * * * * * * * * * * * * * * * * * * * * * * * * * * * * * * * * * * * * * //

dimensions      [1 -3 -1 0 0 0 0];

internalField   nonuniform List<scalar> 
300
(
2.35599117039635e-09
2.35654074213126e-09
2.3567729375887e-09
2.35675813439077e-09
2.35676973157056e-09
2.35675727559604e-09
2.35672556765245e-09
2.35667897055056e-09
2.35661594269273e-09
2.35653666748135e-09
2.3564411581739e-09
2.35632933857648e-09
2.35620118367533e-09
2.35605666866042e-09
2.35589577409128e-09
2.35571848789011e-09
2.35552480358384e-09
2.35531471995397e-09
2.35508824046486e-09
2.35484537261637e-09
2.35458612730223e-09
2.35431051810579e-09
2.35401856056626e-09
2.35371027142311e-09
2.35338566779188e-09
2.35304476639423e-09
2.35268758262483e-09
2.35231412966097e-09
2.35192441754384e-09
2.35151845216438e-09
2.35109623423033e-09
2.35065775828219e-09
2.35020301158423e-09
2.34973197296344e-09
2.3492446116537e-09
2.34874088611425e-09
2.3482207427827e-09
2.34768411481032e-09
2.34713092075156e-09
2.34656106321593e-09
2.34597442749025e-09
2.34537088011461e-09
2.34475026743504e-09
2.34411241412604e-09
2.34345712164888e-09
2.3427841667073e-09
2.34209329965966e-09
2.34138424289511e-09
2.34065668916003e-09
2.3399102999001e-09
2.33914470352159e-09
2.33835949370105e-09
2.33755422753334e-09
2.33672842379959e-09
2.33588156107808e-09
2.33501307592822e-09
2.33412236096785e-09
2.33320876298643e-09
2.33227158101917e-09
2.33131006439754e-09
2.33032341079457e-09
2.3293107642298e-09
2.32827121305934e-09
2.32720378795391e-09
2.32610745992314e-09
2.32498113827455e-09
2.32382366850246e-09
2.32263383026509e-09
2.32141033532784e-09
2.32015182550019e-09
2.31885687056513e-09
2.31752396622739e-09
2.31615153205762e-09
2.31473790945102e-09
2.31328135955114e-09
2.31178006126452e-09
2.3102321092316e-09
2.30863551179809e-09
2.30698818909196e-09
2.30528797095017e-09
2.30353259515458e-09
2.3017197053773e-09
2.29984684934345e-09
2.29791147699417e-09
2.29591093864567e-09
2.2938424832754e-09
2.2917032567539e-09
2.28949030012389e-09
2.28720054795713e-09
2.28483082679717e-09
2.28237785356038e-09
2.27983823399859e-09
2.27720846145269e-09
2.2744849152333e-09
2.27166385935738e-09
2.26874144128127e-09
2.26571369067996e-09
2.26257651828244e-09
2.25932571476073e-09
2.25595694972315e-09
2.25246577071998e-09
2.24884760232214e-09
2.24509774520928e-09
2.2412113754951e-09
2.23718354384721e-09
2.23300917482159e-09
2.22868306623576e-09
2.22419988847852e-09
2.21955418400598e-09
2.21474036673235e-09
2.20975272147109e-09
2.20458540340723e-09
2.1992324375399e-09
2.19368771811246e-09
2.18794500799065e-09
2.18199793798086e-09
2.1758400061523e-09
2.16946457721181e-09
2.16286488192982e-09
2.15603401744549e-09
2.1489649497392e-09
2.14165052212042e-09
2.1340834816805e-09
2.12833476717124e-09
2.12295245526741e-09
2.11732715871671e-09
2.11145104399668e-09
2.10531607922623e-09
2.09891405267394e-09
2.09223657651188e-09
2.08527508349806e-09
2.0780208205039e-09
2.07046484046547e-09
2.06259799345966e-09
2.05441091705571e-09
2.04589402588713e-09
2.03703750001988e-09
2.02783127221518e-09
2.01826501382778e-09
2.00832811912423e-09
1.99800968767205e-09
1.98729850476024e-09
1.97618301958315e-09
1.96465132100513e-09
1.95269111058812e-09
1.94028967267913e-09
1.92743384115237e-09
1.91410996262011e-09
1.90030385556278e-09
1.88600076739472e-09
1.87118532148936e-09
1.85584145354132e-09
1.83995244489464e-09
1.82350058659772e-09
1.8064674392662e-09
1.78883513869552e-09
1.77057933053378e-09
1.75169262525168e-09
1.73214975982911e-09
1.71197738454445e-09
1.69139262534426e-09
1.67109988210145e-09
1.65148398585567e-09
1.6308501657785e-09
1.60923046471493e-09
1.58672488065261e-09
1.56336225115198e-09
1.53901584993943e-09
1.51349125648817e-09
1.48624876973131e-09
1.45663756508048e-09
1.42497234489491e-09
1.39175910711845e-09
1.35581811498731e-09
1.31406159382405e-09
1.26886045978172e-09
1.22172392965677e-09
1.17212691643093e-09
1.1220183051495e-09
1.0727146717284e-09
1.02181551308842e-09
9.69675397142428e-10
9.25965363292551e-10
8.9424434528478e-10
8.60094155041809e-10
8.48967069045179e-10
8.43208500799462e-10
8.6113978142459e-10
9.03439009702026e-10
9.77937816914104e-10
1.10027499876638e-09
1.28657140828865e-09
1.585533430151e-09
2.05984814720243e-09
2.86258301857496e-09
4.08192474019247e-09
5.30961804441294e-09
6.49573428485398e-09
7.48034412117584e-09
7.47443405454014e-09
6.65952302336128e-09
5.45461211704769e-09
4.22795578949878e-09
3.27406121707832e-09
2.59825833609918e-09
2.1434012713481e-09
1.84798950420128e-09
1.66452580958626e-09
1.55371150803817e-09
1.48388193895644e-09
1.44301413795271e-09
1.42297736949286e-09
1.41460475101938e-09
1.40980408765769e-09
1.40969510957315e-09
1.4118743299894e-09
1.41472090612769e-09
1.41712456879416e-09
1.418330696538e-09
1.41784249419071e-09
1.41531290454869e-09
1.41051487790791e-09
1.40234993282287e-09
1.39159975538403e-09
1.37869358473083e-09
1.36374481638114e-09
1.346896825111e-09
1.32831187046771e-09
1.30816303159366e-09
1.28662855765781e-09
1.26388745341576e-09
1.240116066617e-09
1.215485445122e-09
1.1901593303892e-09
1.16429267446489e-09
1.13803059416709e-09
1.11150768237571e-09
1.0848476181786e-09
1.05816302050324e-09
1.0315555036232e-09
1.00511591039776e-09
9.78924677531993e-10
9.53052606172775e-10
9.27561881219226e-10
9.02506383359331e-10
8.77931192596015e-10
8.5387254145263e-10
8.30351276592877e-10
8.07384818572133e-10
7.84994057364135e-10
7.631940700159e-10
7.41995316055647e-10
7.21403648951444e-10
7.01421000648041e-10
6.8204587871642e-10
6.63275683223152e-10
6.45101373931838e-10
6.27509702734248e-10
6.10489755717053e-10
5.94031340476514e-10
5.78120544769034e-10
5.62742681067698e-10
5.47882260402234e-10
5.3352336356333e-10
5.19649616644016e-10
5.06244351677539e-10
4.93286887869376e-10
4.80751950837432e-10
4.68619200923873e-10
4.56874176379404e-10
4.45503299242973e-10
4.34493723959617e-10
4.23833098988339e-10
4.13509610325933e-10
4.03512018076154e-10
3.93829708234074e-10
3.84452743956779e-10
3.75371917687094e-10
3.665788005624e-10
3.58065756763328e-10
3.49825840197164e-10
3.41659227040833e-10
3.33371373220152e-10
3.25294039401405e-10
3.17401646927032e-10
3.09702265981955e-10
3.02206765135256e-10
2.94926839303257e-10
2.8786013417953e-10
2.79860153303715e-10
2.72016037399439e-10
2.64363828382644e-10
2.56938481903873e-10
2.47839694441412e-10
2.38920617634192e-10
2.29086451211584e-10
2.1783540700905e-10
2.04246657162315e-10
1.87307842082364e-10
1.63689374884222e-10
)
;

boundaryField
{
    electrode
    {
        type            zeroGradient;
    }
    ground
    {
        type            zeroGradient;
    }
    otherfaces
    {
        type            empty;
    }
}


// ************************************************************************* //
