/*--------------------------------*- C++ -*----------------------------------*\
| =========                 |                                                 |
| \\      /  F ield         | foam-extend: Open Source CFD                    |
|  \\    /   O peration     | Version:     4.0                                |
|   \\  /    A nd           | Web:         http://www.foam-extend.org         |
|    \\/     M anipulation  |                                                 |
\*---------------------------------------------------------------------------*/
FoamFile
{
    version     2.0;
    format      ascii;
    class       volScalarField;
    location    "3.7e-06";
    object      TeMean;
}
// * * * * * * * * * * * * * * * * * * * * * * * * * * * * * * * * * * * * * //

dimensions      [0 0 0 1 0 0 0];

internalField   nonuniform List<scalar> 
300
(
31599.9870170942
31600.2730098696
31600.3577737052
31600.2671812356
31600.1611251165
31600.0227968576
31599.8547433407
31599.6604747787
31599.4406004572
31599.1961449682
31598.9280770463
31598.6373241436
31598.324781994
31597.9912905657
31597.6376596939
31597.264666366
31596.8730527647
31596.4635343696
31596.0367991496
31595.5935072257
31595.1342956478
31594.6597747241
31594.1705321362
31593.6671316399
31593.1501123379
31592.6200076567
31592.0773326849
31591.5225795576
31590.9562322748
31590.3787465559
31589.7905475563
31589.1920722147
31588.5837649599
31587.9660437504
31587.3393096938
31586.703940034
31586.060301959
31585.4087678427
31584.7497001325
31584.0834435314
31583.4103284904
31582.7306908261
31582.0448574742
31581.3531414802
31580.6558479619
31579.953273561
31579.2457055401
31578.5334200477
31577.8166764241
31577.0957170167
31576.3707675878
31575.6420626895
31574.9098599277
31574.1744081047
31573.4359554253
31572.6947597313
31571.9510610874
31571.2050851072
31570.4570651633
31569.7072312748
31568.9558072923
31568.2030264998
31567.4490896609
31566.6941826877
31565.9385376559
31565.1824070078
31564.4260312226
31563.669642181
31562.9134695529
31562.1577490391
31561.4027081432
31560.6485508625
31559.8955024663
31559.1438029166
31558.3936697111
31557.6453020248
31556.8989287498
31556.1548213552
31555.413227364
31554.6743806222
31553.9385604715
31553.2060563739
31552.4771299091
31551.7520275497
31551.0309972861
31550.3143276405
31549.6023397928
31548.8953394709
31548.1936205481
31547.4974985486
31546.8072723421
31546.1232438241
31545.4458011244
31544.7753126223
31544.1121336922
31543.4566657722
31542.8093058692
31542.1704645492
31541.5405563312
31540.9200144804
31540.3093167068
31539.7089065516
31539.1192381585
31538.5408419622
31537.9742572252
31537.4200298809
31536.8787175595
31536.3509029136
31535.8372137094
31535.3382976037
31534.8548285765
31534.3875038316
31533.9370343852
31533.504197407
31533.0897839043
31532.6945942784
31532.319456474
31531.9652734387
31531.6330256532
31531.3236668709
31531.0381836279
31530.7776313786
31530.5431054173
31530.3357840605
31530.1569432337
31530.0078892221
31529.889948846
31529.8045503835
31529.7532216819
31529.7375275874
31529.7591081554
31529.8197254501
31529.9212591984
31530.0656187721
31530.254802631
31530.4910492663
31530.7767426401
31531.1143503279
31531.5065290227
31531.9561680199
31532.4663580511
31533.0403848032
31533.6817580128
31534.3942419502
31535.1819501823
31536.0494219407
31537.0016247363
31538.044012873
31539.1824620704
31540.4234103529
31541.7741167953
31543.2425854851
31544.8377150852
31546.5695791618
31548.4494324314
31550.4899495039
31552.7056067295
31555.1133425295
31557.7327181424
31560.5895541207
31563.7243200704
31567.185261421
31571.0116306808
31575.2411692183
31579.9291815939
31585.1547733999
31591.0123664299
31597.6048714589
31605.0367845382
31613.3876793041
31622.7024192872
31633.0564362018
31644.5534074485
31657.1428694941
31670.7644733736
31685.5819298956
31701.612223262
31718.9677236722
31738.4734841812
31761.3403004161
31789.6182566575
31827.4000704697
31880.9741295349
31959.8772583095
32079.4194606305
32262.3014714317
32541.8130097562
32968.3563638876
33618.0347794877
34606.9968671361
36116.7868527695
38440.026546053
42056.4224902145
47911.6410593625
56929.2487248738
69649.1248143504
88282.5924066724
113783.685828633
147929.178931637
190897.018648967
241834.454138115
298297.849238632
357208.924149448
415183.722900261
469501.978938123
518576.718177998
561912.50793829
599712.095390906
632567.199322926
661184.520483062
686222.075851313
708257.958010607
727789.142741311
745240.578264895
760967.996276405
775262.790006871
788363.075544343
800464.245774564
811726.697495299
822280.657030449
832234.085127432
841673.322326998
850670.64738363
859290.418301072
867583.872135448
875592.589614806
883350.287305509
890883.962012173
898214.870077838
905359.351584531
912329.486878448
919133.648898754
925776.960476164
932261.550496793
938586.956390042
944750.513658273
950747.499642771
956571.375998076
962213.975391955
967665.68671376
972915.598847426
977951.618646733
982760.64875422
987328.799065911
991641.505790373
995683.667169125
999439.260663399
1002891.7722399
1006024.40320177
1008819.65318634
1011260.58248515
1013330.39845988
1015011.66626895
1016286.8251105
1017138.00897328
1017547.39733117
1017494.31669088
1016961.12397462
1015938.88114657
1014403.31727491
1012336.47029503
1009719.68118451
1006534.56203749
1002762.54315065
998384.864246466
993383.168034067
987737.980010193
981429.135259614
974437.323650865
966742.27260288
958322.755057151
949157.108954405
939223.082580621
928497.148497168
916954.500934032
904569.032619157
891313.217142713
877157.907054854
862072.189834778
846023.10487477
828975.536181337
810892.125842903
791737.241569531
771465.981872415
750026.530241359
727368.067770829
703428.805563376
678136.528537863
651420.45799772
623194.910145269
593354.34704933
561782.247892379
528342.934816299
492858.632446824
455114.942402987
414839.0162336
371645.283814104
325008.955074201
274163.474590263
218091.430401387
)
;

boundaryField
{
    electrode
    {
        type            calculated;
        value           uniform 31599.9870170975;
    }
    ground
    {
        type            calculated;
        value           uniform 186305.612384219;
    }
    otherfaces
    {
        type            empty;
    }
}


// ************************************************************************* //
