/*--------------------------------*- C++ -*----------------------------------*\
| =========                 |                                                 |
| \\      /  F ield         | foam-extend: Open Source CFD                    |
|  \\    /   O peration     | Version:     4.0                                |
|   \\  /    A nd           | Web:         http://www.foam-extend.org         |
|    \\/     M anipulation  |                                                 |
\*---------------------------------------------------------------------------*/
FoamFile
{
    version     2.0;
    format      ascii;
    class       volScalarField;
    location    "6e-06";
    object      Ar;
}
// * * * * * * * * * * * * * * * * * * * * * * * * * * * * * * * * * * * * * //

dimensions      [0 0 0 1 0 0 0];

internalField   nonuniform List<scalar> 
300
(
3.21880274057164e+22
3.21880273629516e+22
3.21880273910453e+22
3.21880274017475e+22
3.21880274203103e+22
3.21880274461494e+22
3.21880274776673e+22
3.21880275154938e+22
3.21880275595076e+22
3.21880276096762e+22
3.21880276660033e+22
3.21880277284764e+22
3.21880277970898e+22
3.21880278718393e+22
3.21880279527219e+22
3.21880280397362e+22
3.21880281328847e+22
3.21880282321666e+22
3.21880283375817e+22
3.2188028449132e+22
3.21880285668204e+22
3.21880286906502e+22
3.21880288206256e+22
3.21880289567512e+22
3.21880290990483e+22
3.21880292475103e+22
3.21880294021449e+22
3.2188029562962e+22
3.21880297299604e+22
3.2188029903148e+22
3.21880300825518e+22
3.21880302681743e+22
3.21880304600115e+22
3.21880306580727e+22
3.21880308623682e+22
3.21880310729086e+22
3.218803128971e+22
3.21880315127825e+22
3.21880317421363e+22
3.21880319777855e+22
3.21880322197447e+22
3.21880324680274e+22
3.21880327226489e+22
3.21880329836251e+22
3.21880332509729e+22
3.21880335247098e+22
3.21880338048559e+22
3.21880340914318e+22
3.21880343844674e+22
3.2188034683987e+22
3.21880349900265e+22
3.21880353025972e+22
3.21880356217288e+22
3.21880359474285e+22
3.21880362797134e+22
3.2188036618593e+22
3.21880369640902e+22
3.21880373162289e+22
3.21880376750337e+22
3.21880380405318e+22
3.21880384127469e+22
3.2188038791705e+22
3.21880391774386e+22
3.21880395699966e+22
3.21880399694077e+22
3.21880403756735e+22
3.21880407888045e+22
3.21880412088376e+22
3.21880416358232e+22
3.21880420697934e+22
3.21880425107856e+22
3.21880429588442e+22
3.21880434140083e+22
3.2188043876308e+22
3.21880443457943e+22
3.2188044822504e+22
3.21880453064682e+22
3.2188045797729e+22
3.21880462963039e+22
3.2188046802261e+22
3.21880473156035e+22
3.21880478363666e+22
3.21880483645908e+22
3.2188048900311e+22
3.21880494435792e+22
3.21880499944245e+22
3.21880505528719e+22
3.21880511189575e+22
3.21880516927294e+22
3.21880522742158e+22
3.21880528634582e+22
3.21880534605368e+22
3.21880540654314e+22
3.21880546781746e+22
3.21880552988003e+22
3.21880559273422e+22
3.21880565638334e+22
3.21880572083068e+22
3.21880578608053e+22
3.21880585213603e+22
3.21880591899963e+22
3.2188059866742e+22
3.21880605516587e+22
3.21880612447458e+22
3.21880619460406e+22
3.21880626555796e+22
3.21880633733743e+22
3.21880640994701e+22
3.21880648338814e+22
3.21880655766268e+22
3.21880663277315e+22
3.21880670872199e+22
3.21880678551215e+22
3.21880686314589e+22
3.21880694162542e+22
3.21880702095436e+22
3.21880710113641e+22
3.21880718217077e+22
3.21880726405895e+22
3.21880734680329e+22
3.21880743040782e+22
3.21880751487259e+22
3.21880760020173e+22
3.21880768639533e+22
3.21880777345332e+22
3.21880786137687e+22
3.21880795016968e+22
3.2188080398308e+22
3.21880813036202e+22
3.21880822176417e+22
3.21880831403936e+22
3.21880840718846e+22
3.21880850121235e+22
3.21880859611397e+22
3.21880869189721e+22
3.21880878856037e+22
3.21880888610315e+22
3.21880898452811e+22
3.2188090838371e+22
3.21880918402911e+22
3.21880928510557e+22
3.21880938706793e+22
3.21880948991901e+22
3.21880959366159e+22
3.21880969829786e+22
3.21880980382503e+22
3.21880991024276e+22
3.21881001755455e+22
3.21881012576274e+22
3.21881023486066e+22
3.21881034485287e+22
3.21881045574161e+22
3.21881056753188e+22
3.21881068021911e+22
3.21881079380633e+22
3.21881090828774e+22
3.21881102367201e+22
3.21881113994175e+22
3.21881125709842e+22
3.21881137514221e+22
3.21881149401666e+22
3.21881161385275e+22
3.21881173428729e+22
3.21881185607495e+22
3.21881197777294e+22
3.21881209910701e+22
3.21881222212045e+22
3.21881234604222e+22
3.21881247077178e+22
3.21881259588611e+22
3.2188127207133e+22
3.21881284624577e+22
3.2188129706574e+22
3.2188130957999e+22
3.2188132241467e+22
3.21881334909784e+22
3.21881347151727e+22
3.21881359711899e+22
3.21881371985876e+22
3.21881383713533e+22
3.21881395600763e+22
3.21881407062194e+22
3.21881417701345e+22
3.21881428419616e+22
3.21881438333585e+22
3.21881447353933e+22
3.21881456068553e+22
3.21881464038451e+22
3.21881470849141e+22
3.21881477225635e+22
3.2188148288011e+22
3.21881487740721e+22
3.21881491575972e+22
3.21881495229955e+22
3.21881497839294e+22
3.21881499674178e+22
3.21881500581442e+22
3.21881501430721e+22
3.21881502045536e+22
3.21881502631998e+22
3.21881502652567e+22
3.21881502664638e+22
3.21881502689722e+22
3.21881502908386e+22
3.21881503459809e+22
3.21881504139159e+22
3.2188150490933e+22
3.21881505625846e+22
3.21881506274313e+22
3.21881506843304e+22
3.21881507346801e+22
3.21881507787251e+22
3.21881508178362e+22
3.21881508755081e+22
3.21881509275731e+22
3.21881509763068e+22
3.21881510199286e+22
3.21881510612368e+22
3.21881510981781e+22
3.21881511335643e+22
3.21881511650697e+22
3.21881511957218e+22
3.21881512231092e+22
3.21881512500674e+22
3.21881512748053e+22
3.21881513141267e+22
3.21881513496294e+22
3.2188151385603e+22
3.21881514179208e+22
3.21881514509689e+22
3.21881514804707e+22
3.2188151510934e+22
3.21881515379204e+22
3.21881515660411e+22
3.21881515907497e+22
3.21881516167168e+22
3.21881516392897e+22
3.2188151663259e+22
3.21881516837905e+22
3.21881517058738e+22
3.21881517244599e+22
3.21881517460939e+22
3.21881517731525e+22
3.21881518017925e+22
3.21881518270564e+22
3.2188151854017e+22
3.21881518775737e+22
3.21881519029555e+22
3.21881519249074e+22
3.21881519487912e+22
3.21881519692159e+22
3.21881519917069e+22
3.21881520106907e+22
3.21881520318652e+22
3.21881520494904e+22
3.21881520694376e+22
3.21881520857662e+22
3.21881521045626e+22
3.21881521196885e+22
3.21881521373935e+22
3.21881521513544e+22
3.21881521680305e+22
3.21881521809004e+22
3.21881521965985e+22
3.21881522084183e+22
3.21881522245096e+22
3.21881522419034e+22
3.2188152262304e+22
3.21881522786869e+22
3.2188152298205e+22
3.21881523136414e+22
3.21881523323323e+22
3.21881523468707e+22
3.21881523647884e+22
3.21881523784952e+22
3.21881523957044e+22
3.21881524086304e+22
3.21881524251526e+22
3.21881524373188e+22
3.21881524531864e+22
3.21881524646325e+22
3.21881524799182e+22
3.21881524908761e+22
3.21881525058283e+22
3.21881525162074e+22
3.21881525306215e+22
3.21881525403796e+22
3.21881525542724e+22
3.21881525634278e+22
3.21881525771869e+22
3.21881525862607e+22
3.21881525996911e+22
3.21881526082186e+22
3.21881526217165e+22
3.21881526303687e+22
3.21881526437614e+22
3.21881526526795e+22
3.21881526667446e+22
3.21881526764165e+22
3.21881526960368e+22
)
;

boundaryField
{
    electrode
    {
        type            zeroGradient;
    }
    ground
    {
        type            zeroGradient;
    }
    otherfaces
    {
        type            empty;
    }
}


// ************************************************************************* //
