/*--------------------------------*- C++ -*----------------------------------*\
| =========                 |                                                 |
| \\      /  F ield         | foam-extend: Open Source CFD                    |
|  \\    /   O peration     | Version:     4.0                                |
|   \\  /    A nd           | Web:         http://www.foam-extend.org         |
|    \\/     M anipulation  |                                                 |
\*---------------------------------------------------------------------------*/
FoamFile
{
    version     2.0;
    format      ascii;
    class       volScalarField;
    location    "6e-06";
    object      Arm;
}
// * * * * * * * * * * * * * * * * * * * * * * * * * * * * * * * * * * * * * //

dimensions      [0 0 0 1 0 0 0];

internalField   nonuniform List<scalar> 
300
(
3.57412789024397e+15
3.57600374981738e+15
3.57795198668739e+15
3.57925807303778e+15
3.58007433080007e+15
3.58045288646635e+15
3.58043794361454e+15
3.58006094482861e+15
3.57934754975559e+15
3.57831974093266e+15
3.57699329497205e+15
3.57538229776962e+15
3.57349880282931e+15
3.57135341291235e+15
3.56895558517982e+15
3.56631386298159e+15
3.56343307334535e+15
3.56032180096356e+15
3.55698838647876e+15
3.55343931014623e+15
3.54968077342279e+15
3.54571869798179e+15
3.54155877383929e+15
3.53720644033857e+15
3.5326510444318e+15
3.5279103023312e+15
3.52298792359208e+15
3.51788593019472e+15
3.51261790459226e+15
3.50718872301668e+15
3.50158464842187e+15
3.49581704602944e+15
3.48990401277207e+15
3.4838509379453e+15
3.47766290780711e+15
3.47134472171623e+15
3.46489655901399e+15
3.45832493302347e+15
3.45163691070795e+15
3.44483602922756e+15
3.4379257931232e+15
3.43091147703107e+15
3.42379696245259e+15
3.41658594095068e+15
3.40928191268913e+15
3.40188814033484e+15
3.39440556991469e+15
3.38683564489846e+15
3.37917060954336e+15
3.37140904517328e+15
3.36353836631363e+15
3.35557105712283e+15
3.34750174425274e+15
3.33934813083354e+15
3.33111835889999e+15
3.32282878898778e+15
3.31448272820467e+15
3.30608309270699e+15
3.29763245366661e+15
3.28913123198386e+15
3.28058374012792e+15
3.27199208765644e+15
3.26335292519878e+15
3.2546483071714e+15
3.24588221168281e+15
3.23708020322046e+15
3.22824438615046e+15
3.21937660021432e+15
3.21047843125193e+15
3.2015512378714e+15
3.19259417261803e+15
3.18360008981951e+15
3.17456745413347e+15
3.16550369771184e+15
3.15639529425198e+15
3.14724329827053e+15
3.13805404612527e+15
3.12882342332185e+15
3.11957137610068e+15
3.11026739586816e+15
3.10094602586746e+15
3.09160940449337e+15
3.08225445233683e+15
3.07288341997821e+15
3.06348150544414e+15
3.05405644235937e+15
3.04461992950891e+15
3.03517228684528e+15
3.02570161788951e+15
3.01621566221831e+15
3.00670839390704e+15
2.99713481922861e+15
2.98755014350251e+15
2.97795602789982e+15
2.96835250207042e+15
2.95873959204276e+15
2.94911707952106e+15
2.93948452741047e+15
2.92983100889539e+15
2.92015646093127e+15
2.91046714176134e+15
2.9007643190532e+15
2.89101626821763e+15
2.88125217344269e+15
2.87146283188186e+15
2.86163890894295e+15
2.85179540252776e+15
2.84191272714837e+15
2.83200129217586e+15
2.82206654828222e+15
2.81210662832518e+15
2.80211924364645e+15
2.79209665840736e+15
2.78203665800322e+15
2.77193701522318e+15
2.76178008396092e+15
2.75154699678325e+15
2.74126252469155e+15
2.7309275474261e+15
2.72053398127092e+15
2.71005546229894e+15
2.69950491819121e+15
2.68885339503882e+15
2.67811127075663e+15
2.66728997004402e+15
2.65638728691206e+15
2.64537514038042e+15
2.63427093404153e+15
2.62306385597677e+15
2.61175185558526e+15
2.60031930044457e+15
2.58876231508016e+15
2.57707589306493e+15
2.56523395199038e+15
2.55320005603847e+15
2.5409930303014e+15
2.52861679209774e+15
2.51604631333766e+15
2.50326274506598e+15
2.4902751856247e+15
2.47706765859684e+15
2.46362350251009e+15
2.44991057894036e+15
2.43589679243664e+15
2.42155754604277e+15
2.40691260585824e+15
2.39194711882155e+15
2.37664471560386e+15
2.36097485711927e+15
2.34488868762095e+15
2.32839859432379e+15
2.31147982889749e+15
2.29407016604648e+15
2.27616838433537e+15
2.2577562211685e+15
2.23878396364743e+15
2.21920837688733e+15
2.19902888287729e+15
2.17822633293879e+15
2.15675578206925e+15
2.13458162878234e+15
2.11168876308949e+15
2.08803896430925e+15
2.06364474306364e+15
2.03849309774818e+15
2.01252950944207e+15
1.98577477713163e+15
1.95827345274811e+15
1.93005451638565e+15
1.90115994316568e+15
1.87165830837915e+15
1.8415829795192e+15
1.81102634818654e+15
1.78015990140512e+15
1.749177567042e+15
1.71824920761566e+15
1.68755401328855e+15
1.65729099243337e+15
1.62769889447595e+15
1.59893332481581e+15
1.57114855831516e+15
1.544491615267e+15
1.51904389793925e+15
1.49492013826631e+15
1.47212021849972e+15
1.45055400605173e+15
1.43026122901076e+15
1.41119137632345e+15
1.39325847113354e+15
1.37638165483894e+15
1.36046608926972e+15
1.34556022989702e+15
1.33214391820541e+15
1.32525232711337e+15
1.35102381004266e+15
1.41642566938801e+15
1.49467063634671e+15
1.5557221222842e+15
1.60155998710474e+15
1.63654634907696e+15
1.6614008058359e+15
1.66729509843323e+15
1.64990582727212e+15
1.61657905813421e+15
1.57740454992277e+15
1.54145679957032e+15
1.51215885368457e+15
1.49074412023659e+15
1.47589266710906e+15
1.46588689532034e+15
1.45899353646586e+15
1.45370661407078e+15
1.4500034018234e+15
1.44695997416843e+15
1.44384739074353e+15
1.44095491420599e+15
1.43804016610438e+15
1.43494604347242e+15
1.43154443107046e+15
1.42776197313538e+15
1.42356217435006e+15
1.41875656281159e+15
1.41326528311069e+15
1.40718091522267e+15
1.40059333628316e+15
1.39366524972236e+15
1.38644197547595e+15
1.37894889624315e+15
1.37122732541526e+15
1.36332441824478e+15
1.35526431810272e+15
1.3470861993685e+15
1.33883300324471e+15
1.33052960107007e+15
1.32220282475378e+15
1.31389446258456e+15
1.30561162782764e+15
1.29739404439038e+15
1.28924900758372e+15
1.28120334568726e+15
1.27327175758025e+15
1.26545850358199e+15
1.25778829839448e+15
1.25025563179166e+15
1.24287392221835e+15
1.23566446260142e+15
1.22861795188533e+15
1.2217453024924e+15
1.21505117823747e+15
1.20852888795438e+15
1.20218611392299e+15
1.19601895168088e+15
1.1900242920956e+15
1.18420665628286e+15
1.17855848878047e+15
1.17307805361543e+15
1.16776378103314e+15
1.16260023002258e+15
1.15759575016363e+15
1.15274242334361e+15
1.14804551894004e+15
1.14349190505909e+15
1.13908379009853e+15
1.13481228702162e+15
1.13067446671631e+15
1.1266658988753e+15
1.12277827265923e+15
1.1190077655543e+15
1.11534309337674e+15
1.11178943637658e+15
1.10833815166511e+15
1.10499373992492e+15
1.10174274155561e+15
1.09859062683673e+15
1.09552506404062e+15
1.09254433352896e+15
1.08964643285913e+15
1.08683108236901e+15
1.08409996414065e+15
1.08144641717063e+15
1.07886896479842e+15
1.07632698052909e+15
1.07367804158341e+15
1.07101065137173e+15
1.06840659806989e+15
1.06585558926551e+15
1.06336613538402e+15
1.06094022294904e+15
1.05856780139058e+15
1.05589676960705e+15
1.05315259150176e+15
1.05047501043253e+15
1.04786863251483e+15
1.04480382989528e+15
1.04169799150894e+15
1.0384580780408e+15
1.03473332433568e+15
1.03059949020388e+15
1.02584426678613e+15
1.02006677913418e+15
)
;

boundaryField
{
    electrode
    {
        type            zeroGradient;
    }
    ground
    {
        type            zeroGradient;
    }
    otherfaces
    {
        type            empty;
    }
}


// ************************************************************************* //
