/*--------------------------------*- C++ -*----------------------------------*\
| =========                 |                                                 |
| \\      /  F ield         | foam-extend: Open Source CFD                    |
|  \\    /   O peration     | Version:     4.0                                |
|   \\  /    A nd           | Web:         http://www.foam-extend.org         |
|    \\/     M anipulation  |                                                 |
\*---------------------------------------------------------------------------*/
FoamFile
{
    version     2.0;
    format      ascii;
    class       volScalarField;
    location    "6e-06";
    object      Arp1;
}
// * * * * * * * * * * * * * * * * * * * * * * * * * * * * * * * * * * * * * //

dimensions      [0 0 0 1 0 0 0];

internalField   nonuniform List<scalar> 
300
(
6.29938696650024e+16
6.30363213806208e+16
6.30104099235016e+16
6.30054839417446e+16
6.29960799685329e+16
6.29827533920466e+16
6.29670627364787e+16
6.29483472640776e+16
6.29267053077674e+16
6.29021499135253e+16
6.28746642364855e+16
6.28442492669329e+16
6.28109018669367e+16
6.27746186778278e+16
6.27353964987678e+16
6.26932318264996e+16
6.2648120984293e+16
6.26000601094332e+16
6.25490451436054e+16
6.24950718334767e+16
6.24381357267738e+16
6.23782321697596e+16
6.23153563041858e+16
6.22495030639074e+16
6.2180667172097e+16
6.21088431382356e+16
6.20340252544441e+16
6.19562075928476e+16
6.18753840024231e+16
6.17915481056382e+16
6.17046932955222e+16
6.16148127330859e+16
6.15218993439141e+16
6.14259458155633e+16
6.13269445952475e+16
6.1224887886746e+16
6.11197676483585e+16
6.10115755908874e+16
6.09003031750734e+16
6.07859416101622e+16
6.06684818524685e+16
6.05479146034648e+16
6.04242303091165e+16
6.02974191590762e+16
6.01674710857529e+16
6.00343757644043e+16
5.98981226132882e+16
5.97587007937032e+16
5.96160992110522e+16
5.94703065160223e+16
5.93213111060571e+16
5.9169101126711e+16
5.90136644750471e+16
5.8854988800953e+16
5.86930615124453e+16
5.85278697802146e+16
5.83594005395941e+16
5.81876404814197e+16
5.80125760472982e+16
5.78341934749151e+16
5.76524789582535e+16
5.74674186725048e+16
5.72789981219369e+16
5.70872009304926e+16
5.68920093618505e+16
5.66934110677961e+16
5.64914092338775e+16
5.62859821361589e+16
5.60770957609272e+16
5.58647352326897e+16
5.56488827422793e+16
5.54295198685398e+16
5.52066280474449e+16
5.49801886475625e+16
5.47501830059758e+16
5.45165924447113e+16
5.42793982817053e+16
5.40385818405414e+16
5.37941244607541e+16
5.35460075087437e+16
5.32942123886578e+16
5.30387205541636e+16
5.27795135210793e+16
5.25165728797729e+16
5.22498803085077e+16
5.19794175874051e+16
5.17051666121629e+16
5.14271094086587e+16
5.1145228147942e+16
5.08595051609687e+16
5.05699229541262e+16
5.02764642249489e+16
4.99791118777143e+16
4.9677849039225e+16
4.93726590752531e+16
4.90635256062364e+16
4.8750432523542e+16
4.84333640058005e+16
4.81123045346713e+16
4.77872389109836e+16
4.74581522708212e+16
4.71250301010529e+16
4.6787858254801e+16
4.64466229671527e+16
4.61013108699715e+16
4.57519090066269e+16
4.53984048468101e+16
4.50407863004887e+16
4.46790417315695e+16
4.4313159971721e+16
4.39431303331226e+16
4.35689426210445e+16
4.31905871464275e+16
4.28080547374685e+16
4.24213367510194e+16
4.20304250839966e+16
4.16353121839039e+16
4.12359910592615e+16
4.08324552901506e+16
4.0424699037952e+16
4.0012717055535e+16
3.95965046973911e+16
3.91760579296841e+16
3.87513733409101e+16
3.83224481531928e+16
3.78892802340852e+16
3.745186810948e+16
3.70102109785499e+16
3.65643087294125e+16
3.61141619584343e+16
3.56597719913482e+16
3.52011409085105e+16
3.47382715756477e+16
3.42711676759661e+16
3.37998337562795e+16
3.33242752715682e+16
3.28444986544658e+16
3.23605113630295e+16
3.18723219822964e+16
3.1379940402315e+16
3.0883377722647e+16
3.03826464636978e+16
2.98777613885734e+16
2.93687390635777e+16
2.88555953007955e+16
2.83383526023269e+16
2.78170452969563e+16
2.72916722401145e+16
2.67622597464609e+16
2.62289452615115e+16
2.56916969845493e+16
2.51505473528762e+16
2.46055418532868e+16
2.4056763636698e+16
2.3504240011254e+16
2.29481216843684e+16
2.2388411673211e+16
2.18253351301511e+16
2.12589513673092e+16
2.06893621124489e+16
2.01172322061938e+16
1.95413343091571e+16
1.89654187446284e+16
1.83820180141606e+16
1.78057292316708e+16
1.72397378648806e+16
1.66641601432385e+16
1.60871558985587e+16
1.55100623730109e+16
1.49373827099732e+16
1.43761273466906e+16
1.38167370918307e+16
1.32777415838299e+16
1.2740648836568e+16
1.21801692508756e+16
1.16611185574442e+16
1.11733702735044e+16
1.06577561412012e+16
1.01716002535258e+16
9.73704714316929e+15
9.27887011938626e+15
8.84993673708362e+15
8.48362138978327e+15
8.08305663960885e+15
7.72964995610318e+15
7.42578847543525e+15
7.10676506677509e+15
6.81167101912681e+15
6.57870899241662e+15
6.33393934887452e+15
6.10650853520719e+15
5.90556808425564e+15
5.75734451659506e+15
5.57730799302494e+15
5.43128905142417e+15
5.29093955158715e+15
5.20417646784336e+15
5.1195653418791e+15
5.05810145172032e+15
4.99933155087521e+15
4.99791677377461e+15
5.00901680778403e+15
5.0370336678284e+15
5.05752691493423e+15
5.0472988721056e+15
5.01867908161111e+15
4.97283291930303e+15
4.92362298898377e+15
4.87419861058003e+15
4.82763103859906e+15
4.78436519466936e+15
4.7457201738912e+15
4.71037938219782e+15
4.65578996218132e+15
4.60685917876044e+15
4.56102881230404e+15
4.52032623430055e+15
4.48211314297383e+15
4.44857272887159e+15
4.41696783301911e+15
4.38966147180772e+15
4.36381513136844e+15
4.34192064855053e+15
4.32105002077891e+15
4.30290463894806e+15
4.27051801635152e+15
4.24224702598963e+15
4.21377669498037e+15
4.18919218740966e+15
4.16406020795848e+15
4.14263309816078e+15
4.12036370529609e+15
4.10164743147454e+15
4.08184797738785e+15
4.06548483910542e+15
4.04784544009646e+15
4.03357529087088e+15
4.01784396071741e+15
4.00547815078108e+15
3.99146137041032e+15
3.9808278417698e+15
3.96702812972471e+15
3.94766074842919e+15
3.92657441416673e+15
3.90871295357393e+15
3.88898230927611e+15
3.87249235978203e+15
3.85400304442414e+15
3.83876478578832e+15
3.82142236249063e+15
3.80735905469057e+15
3.79105348009106e+15
3.77808204281448e+15
3.76274239515647e+15
3.75078218863452e+15
3.73633167913621e+15
3.72533313559685e+15
3.7117154659973e+15
3.70160882906005e+15
3.6887715141155e+15
3.67952130355934e+15
3.66741219715875e+15
3.65896336071075e+15
3.64754920383986e+15
3.63987929483867e+15
3.62780809122961e+15
3.61431317655041e+15
3.59769392885607e+15
3.5849860890576e+15
3.56903166142196e+15
3.55705629721274e+15
3.54171918677912e+15
3.53044083299988e+15
3.51568396248182e+15
3.50505114612679e+15
3.4908309115453e+15
3.48081076645313e+15
3.46711150456518e+15
3.45768384014768e+15
3.44447686819884e+15
3.43561508108988e+15
3.42287803465504e+15
3.41457541692138e+15
3.40229678203043e+15
3.39452773145741e+15
3.38267035823958e+15
3.37540727828682e+15
3.36394581261737e+15
3.35716806193791e+15
3.34608495879907e+15
3.33976006019283e+15
3.32901191247441e+15
3.32309517602483e+15
3.31266614710823e+15
3.30712364238333e+15
3.29697431640572e+15
3.29178390246613e+15
3.28185487428845e+15
3.27693910943611e+15
3.26309513490243e+15
)
;

boundaryField
{
    electrode
    {
        type            driftDiffusionPositiveIonDensity;
        seec            0;
        fieldName       Arp1;
        value           uniform 6.28133366924212e+16;
    }
    ground
    {
        type            driftDiffusionPositiveIonDensity;
        seec            0;
        fieldName       Arp1;
        value           uniform 3.26309513490243e+15;
    }
    otherfaces
    {
        type            empty;
    }
}


// ************************************************************************* //
