/*--------------------------------*- C++ -*----------------------------------*\
| =========                 |                                                 |
| \\      /  F ield         | foam-extend: Open Source CFD                    |
|  \\    /   O peration     | Version:     4.0                                |
|   \\  /    A nd           | Web:         http://www.foam-extend.org         |
|    \\/     M anipulation  |                                                 |
\*---------------------------------------------------------------------------*/
FoamFile
{
    version     2.0;
    format      ascii;
    class       volVectorField;
    location    "6e-06";
    object      E;
}
// * * * * * * * * * * * * * * * * * * * * * * * * * * * * * * * * * * * * * //

dimensions      [0 0 0 1 0 0 0];

internalField   nonuniform List<vector> 
300
(
(5.40930563674991 -0 -0)
(10.7228474516274 -0 -0)
(18.9444896936397 -0 -0)
(26.5355812364979 -0 -0)
(34.0793563161072 -0 -0)
(41.6897336319448 -0 -0)
(49.2927225287381 -0 -0)
(56.9099161420993 -0 -0)
(64.5419754224948 -0 -0)
(72.1891845342777 -0 -0)
(79.8536750848384 -0 -0)
(87.5369563335679 -0 -0)
(95.2406297868867 -0 -0)
(102.966337831021 -0 -0)
(110.715725624989 -0 -0)
(118.490460913891 -0 -0)
(126.292231943101 -0 -0)
(134.122748486622 -0 -0)
(141.983743520703 -0 -0)
(149.876974452065 -0 -0)
(157.804224429349 -0 -0)
(165.767303662857 -0 -0)
(173.768050736042 -0 -0)
(181.808333929447 -0 -0)
(189.890052527955 -0 -0)
(198.015138157255 -0 -0)
(206.185556124452 -0 -0)
(214.403306691982 -0 -0)
(222.670426472388 -0 -0)
(230.988989731453 -0 -0)
(239.361109703764 -0 -0)
(247.788939999832 -0 -0)
(256.274675913851 -0 -0)
(264.820555817585 -0 -0)
(273.428862505809 -0 -0)
(282.101924591079 -0 -0)
(290.842117914332 -0 -0)
(299.651866923706 -0 -0)
(308.533646115082 -0 -0)
(317.489981534223 -0 -0)
(326.523452143169 -0 -0)
(335.636691352372 -0 -0)
(344.832388589378 -0 -0)
(354.113290756894 -0 -0)
(363.482203864819 -0 -0)
(372.941994653026 -0 -0)
(382.495592207633 -0 -0)
(392.145989680553 -0 -0)
(401.896246049512 -0 -0)
(411.749487892661 -0 -0)
(421.708911270457 -0 -0)
(431.777783635498 -0 -0)
(441.959445840379 -0 -0)
(452.257314161088 -0 -0)
(462.67488263978 -0 -0)
(473.215725633932 -0 -0)
(483.883499860552 -0 -0)
(494.681944940339 -0 -0)
(505.614883482175 -0 -0)
(516.686229160063 -0 -0)
(527.900012978251 -0 -0)
(539.260401637045 -0 -0)
(550.771613970552 -0 -0)
(562.437692719408 -0 -0)
(574.262478090943 -0 -0)
(586.250671741397 -0 -0)
(598.409751675979 -0 -0)
(610.748721209408 -0 -0)
(623.274619486527 -0 -0)
(635.99264830411 -0 -0)
(648.907865308118 -0 -0)
(662.025475652101 -0 -0)
(675.350835396892 -0 -0)
(688.889465430414 -0 -0)
(702.647059323896 -0 -0)
(716.629489887277 -0 -0)
(730.842815707542 -0 -0)
(745.293288193019 -0 -0)
(759.987358998978 -0 -0)
(774.93168801885 -0 -0)
(790.13315184848 -0 -0)
(805.598852972404 -0 -0)
(821.336129466614 -0 -0)
(837.352565356912 -0 -0)
(853.656001816111 -0 -0)
(870.254548994241 -0 -0)
(887.156598691861 -0 -0)
(904.370837971712 -0 -0)
(921.90626361214 -0 -0)
(939.772197577995 -0 -0)
(957.978303609094 -0 -0)
(976.534604841905 -0 -0)
(995.451502765295 -0 -0)
(1014.73979739762 -0 -0)
(1034.41070891782 -0 -0)
(1054.47590076368 -0 -0)
(1074.94750443427 -0 -0)
(1095.83814591313 -0 -0)
(1117.16097407077 -0 -0)
(1138.9296910706 -0 -0)
(1161.15858492504 -0 -0)
(1183.86256442601 -0 -0)
(1207.0571966617 -0 -0)
(1230.75874722104 -0 -0)
(1254.98422341315 -0 -0)
(1279.75142073534 -0 -0)
(1305.07897283642 -0 -0)
(1330.98640523201 -0 -0)
(1357.49419326327 -0 -0)
(1384.62382445858 -0 -0)
(1412.39786587573 -0 -0)
(1440.84003673595 -0 -0)
(1469.97528692708 -0 -0)
(1499.82988186956 -0 -0)
(1530.43149444686 -0 -0)
(1561.80930447999 -0 -0)
(1593.99410669548 -0 -0)
(1627.01842791894 -0 -0)
(1660.91665439427 -0 -0)
(1695.7251702936 -0 -0)
(1731.48250867136 -0 -0)
(1768.2295159662 -0 -0)
(1806.00953163259 -0 -0)
(1844.8685845831 -0 -0)
(1884.8556080624 -0 -0)
(1926.02267534724 -0 -0)
(1968.42525829621 -0 -0)
(2012.12251168636 -0 -0)
(2057.17758608746 -0 -0)
(2103.65797291857 -0 -0)
(2151.63588542329 -0 -0)
(2201.18868004983 -0 -0)
(2252.39932342579 -0 -0)
(2305.35691039072 -0 -0)
(2360.15724022374 -0 -0)
(2416.90345846053 -0 -0)
(2475.70677345216 -0 -0)
(2536.68725601647 -0 -0)
(2599.97473680996 -0 -0)
(2665.7098214722 -0 -0)
(2734.04501246628 -0 -0)
(2805.14597213208 -0 -0)
(2879.1930383473 -0 -0)
(2956.38285703508 -0 -0)
(3036.92990444194 -0 -0)
(3121.0690784774 -0 -0)
(3209.05914255076 -0 -0)
(3301.18156519513 -0 -0)
(3397.74506719702 -0 -0)
(3499.10585548984 -0 -0)
(3605.66270639529 -0 -0)
(3717.84464542812 -0 -0)
(3836.12311185035 -0 -0)
(3961.02490465468 -0 -0)
(4093.13709765967 -0 -0)
(4233.12040608902 -0 -0)
(4381.71427752968 -0 -0)
(4539.75504169974 -0 -0)
(4708.18875120175 -0 -0)
(4888.07989968752 -0 -0)
(5080.6730730619 -0 -0)
(5287.30641388057 -0 -0)
(5509.73579679288 -0 -0)
(5749.55537192296 -0 -0)
(6010.28749487098 -0 -0)
(6298.55749560341 -0 -0)
(6618.49073957393 -0 -0)
(6972.10325146469 -0 -0)
(7363.20614284155 -0 -0)
(7797.75406943144 -0 -0)
(8284.4246104586 -0 -0)
(8832.40319538814 -0 -0)
(9452.92186114808 -0 -0)
(10156.3249687114 -0 -0)
(10945.0358498627 -0 -0)
(11829.6473586538 -0 -0)
(12831.233130224 -0 -0)
(13956.5952866197 -0 -0)
(15210.7001078233 -0 -0)
(16613.2906396541 -0 -0)
(18171.1533624777 -0 -0)
(19883.5016537909 -0 -0)
(21764.8934294631 -0 -0)
(23812.0845504838 -0 -0)
(26014.2437975319 -0 -0)
(28376.3742856201 -0 -0)
(30884.7524801537 -0 -0)
(33515.3644046861 -0 -0)
(36261.9407278315 -0 -0)
(39107.4196552437 -0 -0)
(42021.8455271121 -0 -0)
(44986.0181114772 -0 -0)
(47993.3122332334 -0 -0)
(51023.2338122685 -0 -0)
(54051.1817939307 -0 -0)
(57068.0435888118 -0 -0)
(60074.3746784316 -0 -0)
(63072.1437735829 -0 -0)
(66062.1213083968 -0 -0)
(69038.4024019706 -0 -0)
(72009.7622497784 -0 -0)
(75000.6683890947 -0 -0)
(78014.1815750433 -0 -0)
(81047.1508578206 -0 -0)
(84087.4100200882 -0 -0)
(87118.7468033848 -0 -0)
(90129.3930615196 -0 -0)
(93112.3657709138 -0 -0)
(96066.0634741145 -0 -0)
(98991.0344615966 -0 -0)
(101889.029434274 -0 -0)
(104762.386626651 -0 -0)
(107613.471066823 -0 -0)
(110437.458722224 -0 -0)
(113230.24046205 -0 -0)
(115994.452262756 -0 -0)
(118732.573973609 -0 -0)
(121446.899074497 -0 -0)
(124139.583036267 -0 -0)
(126812.619558466 -0 -0)
(129467.888602323 -0 -0)
(132107.126715062 -0 -0)
(134731.967981585 -0 -0)
(137343.913487131 -0 -0)
(139944.094846469 -0 -0)
(142529.040087685 -0 -0)
(145095.696539168 -0 -0)
(147645.246264562 -0 -0)
(150178.802032945 -0 -0)
(152697.371566694 -0 -0)
(155201.907943842 -0 -0)
(157693.275263254 -0 -0)
(160172.291772067 -0 -0)
(162639.702987235 -0 -0)
(165096.219111757 -0 -0)
(167542.492034163 -0 -0)
(169979.15334262 -0 -0)
(172406.778773741 -0 -0)
(174825.942879779 -0 -0)
(177237.162865976 -0 -0)
(179640.961289975 -0 -0)
(182037.403702307 -0 -0)
(184423.856057391 -0 -0)
(186798.120793893 -0 -0)
(189160.652018115 -0 -0)
(191511.858444196 -0 -0)
(193852.153536452 -0 -0)
(196181.911473143 -0 -0)
(198501.509525604 -0 -0)
(200811.29333713 -0 -0)
(203111.617006378 -0 -0)
(205402.79296538 -0 -0)
(207685.15022097 -0 -0)
(209958.97980402 -0 -0)
(212224.586355456 -0 -0)
(214482.237896016 -0 -0)
(216732.223917403 -0 -0)
(218974.795326699 -0 -0)
(221210.221025773 -0 -0)
(223438.735879847 -0 -0)
(225660.597946982 -0 -0)
(227876.026558381 -0 -0)
(230085.263119486 -0 -0)
(232288.516943209 -0 -0)
(234486.022671746 -0 -0)
(236677.581864236 -0 -0)
(238861.437549289 -0 -0)
(241036.217879032 -0 -0)
(243202.159983934 -0 -0)
(245359.464121307 -0 -0)
(247508.3510008 -0 -0)
(249649.006612296 -0 -0)
(251781.640922016 -0 -0)
(253906.428753451 -0 -0)
(256023.564637443 -0 -0)
(258133.210233689 -0 -0)
(260235.55014112 -0 -0)
(262330.741311627 -0 -0)
(264418.962268501 -0 -0)
(266500.361326806 -0 -0)
(268575.108989205 -0 -0)
(270643.346853765 -0 -0)
(272705.243342846 -0 -0)
(274760.936567554 -0 -0)
(276810.587408001 -0 -0)
(278854.322695416 -0 -0)
(280892.294930563 -0 -0)
(282924.623481736 -0 -0)
(284951.454494268 -0 -0)
(286972.901951729 -0 -0)
(288989.102396884 -0 -0)
(291000.156629609 -0 -0)
(293006.187602847 -0 -0)
(295007.291487582 -0 -0)
(297003.580834314 -0 -0)
(298995.139705802 -0 -0)
(300982.073488857 -0 -0)
(302964.44797256 -0 -0)
(304942.353433857 -0 -0)
(306914.600506602 -0 -0)
)
;

boundaryField
{
    electrode
    {
        type            calculated;
        value           uniform (4.45809919710883 -0 -0);
    }
    ground
    {
        type            calculated;
        value           uniform (307898.632326741 -0 -0);
    }
    otherfaces
    {
        type            empty;
    }
}


// ************************************************************************* //
