/*--------------------------------*- C++ -*----------------------------------*\
| =========                 |                                                 |
| \\      /  F ield         | foam-extend: Open Source CFD                    |
|  \\    /   O peration     | Version:     4.0                                |
|   \\  /    A nd           | Web:         http://www.foam-extend.org         |
|    \\/     M anipulation  |                                                 |
\*---------------------------------------------------------------------------*/
FoamFile
{
    version     2.0;
    format      ascii;
    class       volScalarField;
    location    "6e-06";
    object      electron;
}
// * * * * * * * * * * * * * * * * * * * * * * * * * * * * * * * * * * * * * //

dimensions      [0 0 0 1 0 0 0];

internalField   nonuniform List<scalar> 
300
(
6.30058938622573e+16
6.30043310121374e+16
6.30002005325315e+16
6.29931182210897e+16
6.29831431062008e+16
6.29702519286931e+16
6.29544395638448e+16
6.29357055288441e+16
6.29140469621606e+16
6.28894614600625e+16
6.28619464448731e+16
6.28314991181894e+16
6.27981165180951e+16
6.2761795497609e+16
6.27225327241831e+16
6.26803246782445e+16
6.26351676502483e+16
6.25870577381845e+16
6.253599084489e+16
6.24819626752497e+16
6.24249687333209e+16
6.23650043193821e+16
6.23020645269186e+16
6.22361442395581e+16
6.21672381279687e+16
6.20953406467322e+16
6.20204460312032e+16
6.19425482943758e+16
6.18616412237694e+16
6.17777183783419e+16
6.16907730854615e+16
6.16007984379386e+16
6.15077872911363e+16
6.14117322601811e+16
6.13126257172873e+16
6.12104597892152e+16
6.11052263548733e+16
6.09969170430873e+16
6.08855232305564e+16
6.07710360399962e+16
6.06534463385067e+16
6.0532744736181e+16
6.04089215849507e+16
6.02819669777037e+16
6.01518707476895e+16
6.00186224682151e+16
5.98822114526592e+16
5.97426267548197e+16
5.95998571695993e+16
5.94538912340521e+16
5.93047172288024e+16
5.91523231798465e+16
5.89966968607494e+16
5.8837825795251e+16
5.86756972602678e+16
5.85102982892619e+16
5.8341615676069e+16
5.81696359794719e+16
5.79943455286876e+16
5.78157304286509e+16
5.76337765619983e+16
5.74484695877832e+16
5.72597949524317e+16
5.70677379404613e+16
5.68722837423065e+16
5.66734173633817e+16
5.64711231264406e+16
5.62653841022682e+16
5.60561822238058e+16
5.58434988982105e+16
5.56273153676546e+16
5.54076127944399e+16
5.51843722893844e+16
5.49575749244318e+16
5.47272017411168e+16
5.44932337583731e+16
5.42556519806349e+16
5.40144374064606e+16
5.37695710377158e+16
5.35210338893081e+16
5.32688069994518e+16
5.30128714404252e+16
5.2753208329784e+16
5.24897988420106e+16
5.22226242205512e+16
5.19516657902003e+16
5.16769049698075e+16
5.13983232852536e+16
5.11159023826528e+16
5.08296240417497e+16
5.05394701894519e+16
5.02454229134602e+16
4.99474644759467e+16
4.96455773272284e+16
4.93397441193886e+16
4.90299477197954e+16
4.87161712244558e+16
4.83983979711576e+16
4.80766115523431e+16
4.77507958276488e+16
4.74209349360556e+16
4.7087013307592e+16
4.67490156745203e+16
4.64069270819423e+16
4.60607328977659e+16
4.57104188219548e+16
4.53559708949921e+16
4.49973755054942e+16
4.46346193968914e+16
4.42676896731003e+16
4.38965738031113e+16
4.35212596244063e+16
4.31417353451246e+16
4.27579895448897e+16
4.23700111741979e+16
4.19777895522777e+16
4.1581314363324e+16
4.11805756509915e+16
4.07755638110444e+16
4.03662695820477e+16
3.99526840339689e+16
3.95347985545615e+16
3.91126048333969e+16
3.86860948433878e+16
3.82552608196502e+16
3.78200952355331e+16
3.73805907756275e+16
3.69367403055611e+16
3.64885368383626e+16
3.60359734971667e+16
3.55790434740043e+16
3.5117739984411e+16
3.46520562175481e+16
3.41819852815231e+16
3.37075201435596e+16
3.32286535646183e+16
3.27453780280417e+16
3.22576856618494e+16
3.17655681542634e+16
3.12690166613023e+16
3.07680217066299e+16
3.02625730747533e+16
2.97526596917184e+16
2.92382694909921e+16
2.87193892896252e+16
2.81960046497321e+16
2.766809962668e+16
2.71356566577294e+16
2.65986565827811e+16
2.60570774961521e+16
2.55108932334887e+16
2.49600736586653e+16
2.44045855688378e+16
2.38443927400357e+16
2.32794557585252e+16
2.270973172149e+16
2.21351740037527e+16
2.15557320914054e+16
2.09713511206111e+16
2.03819723600597e+16
1.97875313331604e+16
1.91879605471888e+16
1.8583179888843e+16
1.79730976195067e+16
1.73575575571723e+16
1.67361711061328e+16
1.61083686456018e+16
1.54736558811068e+16
1.48316721531513e+16
1.41821025042615e+16
1.35245869287742e+16
1.28587272086748e+16
1.21841623937129e+16
1.15006958594299e+16
1.08086889987262e+16
1.01091556043469e+16
9.40340375033823e+15
8.69326236421753e+15
7.98161103150507e+15
7.27216203856438e+15
6.56939853532354e+15
5.87884296257123e+15
5.20668757539709e+15
4.55954522710814e+15
3.9443507473987e+15
3.36773897374747e+15
2.83558823270844e+15
2.35275726131038e+15
1.92257805309738e+15
1.54657006082858e+15
1.22446418946799e+15
954245020979990
732355952215024
553882359537117
413193110596020
304650019437339
222439926922788
161070296847160
115213889165971
80350489442914.8
54853226891898.6
36651420375666.4
23515084676146.3
14481934162681.9
8742062755851.23
5374497735250.43
3501354098863.58
2474440761827.74
1903486479389.97
1577731382126.54
1387217209308.35
1274167429478.96
1207085901683.03
1168064092022.04
1146414500120.24
1135554666593.15
1131111216552.96
1130138377496.67
1130833233337.57
1132028205341.64
1132780924738.49
1132563104823.82
1130963400564.5
1127753040380.77
1122813210990.78
1116104953810.53
1107648128720.44
1097504505343.72
1085764969882.08
1072540777706.01
1057956743602.71
1042145954281.22
1025245595906.11
1007393661796.34
988726363686.271
969376113358.22
949469971966.992
929128472758.242
908464735553.521
887583502469.991
866579778526.177
845530198200.942
824507980663.086
803590846736.485
782848429026.472
762342623215.698
742127264208.577
722248598162.105
702745749608.592
683651249620.019
664991568344.268
646787654368.812
629055456987.413
611806518663.587
595048449044.947
578786996798.462
563021968567.745
547747330225.462
532959684316.257
518654973564.257
504825387195.049
491461811251.611
478553911608.636
466090500336.216
454059746907.773
442449417473.971
431247212958.348
420440962313.255
410018347879.096
399966570636.935
390269495688.638
380903201044.248
371848129028.864
363093841748.133
354630842347.805
346450607951.179
338545147744.989
330907061143.434
323529573695.913
316406616683.775
309532846379.843
302903774510.317
296514499665.995
290360002508.921
284406556564.497
278626487013.937
273029942304.899
267630841015.393
262444962767.112
257476704769.247
252694597118.401
248094666801.776
243732121897.293
239619512262.027
235780231790.741
232307897309.703
229338511865.551
227150188310.238
226223165153.255
227387230794.194
)
;

boundaryField
{
    electrode
    {
        type            driftDiffusionElectronDensity;
        seec            0.05;
        Edepend         1;
        field_emission  0;
        field_enhancement_factor 55;
        work_function   5;
        value           uniform 6.30058938622573e+16;
    }
    ground
    {
        type            driftDiffusionElectronDensity;
        seec            0.05;
        Edepend         1;
        field_emission  0;
        field_enhancement_factor 55;
        work_function   5;
        value           uniform 229608772960.063;
    }
    otherfaces
    {
        type            empty;
    }
}


// ************************************************************************* //
