/*--------------------------------*- C++ -*----------------------------------*\
| =========                 |                                                 |
| \\      /  F ield         | foam-extend: Open Source CFD                    |
|  \\    /   O peration     | Version:     4.0                                |
|   \\  /    A nd           | Web:         http://www.foam-extend.org         |
|    \\/     M anipulation  |                                                 |
\*---------------------------------------------------------------------------*/
FoamFile
{
    version     2.0;
    format      ascii;
    class       volVectorField;
    location    "6e-06";
    object      J_Arp1;
}
// * * * * * * * * * * * * * * * * * * * * * * * * * * * * * * * * * * * * * //

dimensions      [1 -1 -1 0 0 0 0];

internalField   nonuniform List<vector> 
300
(
(1.85939495946357e+16 -0 -0)
(6.73246239390131e+16 -0 -0)
(1.20594511285951e+17 -0 -0)
(1.67645081196643e+17 -0 -0)
(2.15404294002519e+17 -0 -0)
(2.63453804739884e+17 -0 -0)
(3.11373951576924e+17 -0 -0)
(3.59347843042111e+17 -0 -0)
(4.07347106619885e+17 -0 -0)
(4.55371222190524e+17 -0 -0)
(5.03427023779941e+17 -0 -0)
(5.51516490392461e+17 -0 -0)
(5.99642782067708e+17 -0 -0)
(6.47809071138093e+17 -0 -0)
(6.96018470796907e+17 -0 -0)
(7.44274158529339e+17 -0 -0)
(7.925793406159e+17 -0 -0)
(8.40937257377874e+17 -0 -0)
(8.89351186396043e+17 -0 -0)
(9.37824443168804e+17 -0 -0)
(9.86360382377908e+17 -0 -0)
(1.03496239886235e+18 -0 -0)
(1.08363392838315e+18 -0 -0)
(1.13237844818719e+18 -0 -0)
(1.18119947723441e+18 -0 -0)
(1.23010057640169e+18 -0 -0)
(1.27908534838991e+18 -0 -0)
(1.32815743696385e+18 -0 -0)
(1.37732052669286e+18 -0 -0)
(1.42657834179298e+18 -0 -0)
(1.4759346447306e+18 -0 -0)
(1.52539323512854e+18 -0 -0)
(1.57495794770071e+18 -0 -0)
(1.62463265035051e+18 -0 -0)
(1.67442124169399e+18 -0 -0)
(1.72432764847231e+18 -0 -0)
(1.77435582268203e+18 -0 -0)
(1.82450973819092e+18 -0 -0)
(1.87479338727042e+18 -0 -0)
(1.92521077709664e+18 -0 -0)
(1.97576592507427e+18 -0 -0)
(2.02646285465606e+18 -0 -0)
(2.07730559095081e+18 -0 -0)
(2.12829815525353e+18 -0 -0)
(2.17944456008221e+18 -0 -0)
(2.23074880368638e+18 -0 -0)
(2.28221486405052e+18 -0 -0)
(2.33384669293609e+18 -0 -0)
(2.38564820964023e+18 -0 -0)
(2.43762329430658e+18 -0 -0)
(2.48977578129865e+18 -0 -0)
(2.54210945205451e+18 -0 -0)
(2.59462802804432e+18 -0 -0)
(2.64733516300455e+18 -0 -0)
(2.70023443646299e+18 -0 -0)
(2.75332934795587e+18 -0 -0)
(2.80662330787963e+18 -0 -0)
(2.8601196182606e+18 -0 -0)
(2.91382144814917e+18 -0 -0)
(2.96773185192696e+18 -0 -0)
(3.02185390187954e+18 -0 -0)
(3.07619079678358e+18 -0 -0)
(3.13074537739116e+18 -0 -0)
(3.18551871919457e+18 -0 -0)
(3.24050970350917e+18 -0 -0)
(3.29572091389356e+18 -0 -0)
(3.35117149019203e+18 -0 -0)
(3.40688750108941e+18 -0 -0)
(3.4628805896107e+18 -0 -0)
(3.51915208411534e+18 -0 -0)
(3.57570216215006e+18 -0 -0)
(3.63253068767679e+18 -0 -0)
(3.68963730411278e+18 -0 -0)
(3.74702148945782e+18 -0 -0)
(3.8046825597107e+18 -0 -0)
(3.86261966078177e+18 -0 -0)
(3.92083175726026e+18 -0 -0)
(3.97931762144896e+18 -0 -0)
(4.03807582215365e+18 -0 -0)
(4.09710471415478e+18 -0 -0)
(4.15640242763961e+18 -0 -0)
(4.21596685876342e+18 -0 -0)
(4.27579566016819e+18 -0 -0)
(4.33588623186087e+18 -0 -0)
(4.39623571323157e+18 -0 -0)
(4.45684097498988e+18 -0 -0)
(4.51769861172204e+18 -0 -0)
(4.57880493535313e+18 -0 -0)
(4.64015596877643e+18 -0 -0)
(4.70174744010628e+18 -0 -0)
(4.76357477779957e+18 -0 -0)
(4.82563310587813e+18 -0 -0)
(4.8879172402692e+18 -0 -0)
(4.95042168529063e+18 -0 -0)
(5.01314063106798e+18 -0 -0)
(5.07606795128518e+18 -0 -0)
(5.13919720195243e+18 -0 -0)
(5.2025216202549e+18 -0 -0)
(5.26603412442023e+18 -0 -0)
(5.32972731411941e+18 -0 -0)
(5.39359347136483e+18 -0 -0)
(5.45762456204581e+18 -0 -0)
(5.52181223821486e+18 -0 -0)
(5.58614784074247e+18 -0 -0)
(5.65062240263468e+18 -0 -0)
(5.71522665296865e+18 -0 -0)
(5.77995102140634e+18 -0 -0)
(5.84478564295624e+18 -0 -0)
(5.90972036366852e+18 -0 -0)
(5.97474474649003e+18 -0 -0)
(6.03984807783129e+18 -0 -0)
(6.10501937431606e+18 -0 -0)
(6.17024739014796e+18 -0 -0)
(6.23552062469147e+18 -0 -0)
(6.30082733068957e+18 -0 -0)
(6.36615552240949e+18 -0 -0)
(6.43149298434392e+18 -0 -0)
(6.49682728009226e+18 -0 -0)
(6.56214576137779e+18 -0 -0)
(6.62743557708981e+18 -0 -0)
(6.69268368282808e+18 -0 -0)
(6.75787685012555e+18 -0 -0)
(6.82300167571552e+18 -0 -0)
(6.88804459103248e+18 -0 -0)
(6.95299187110556e+18 -0 -0)
(7.01782964385259e+18 -0 -0)
(7.08254389857884e+18 -0 -0)
(7.14712049480664e+18 -0 -0)
(7.21154517008084e+18 -0 -0)
(7.275803547946e+18 -0 -0)
(7.33988114506923e+18 -0 -0)
(7.40376337781261e+18 -0 -0)
(7.46743556893541e+18 -0 -0)
(7.53088295177082e+18 -0 -0)
(7.59409067618756e+18 -0 -0)
(7.65704381125464e+18 -0 -0)
(7.71972735211321e+18 -0 -0)
(7.78212621269535e+18 -0 -0)
(7.84422522685709e+18 -0 -0)
(7.90600919702297e+18 -0 -0)
(7.96746280552313e+18 -0 -0)
(8.02857055353595e+18 -0 -0)
(8.08931714422969e+18 -0 -0)
(8.14968741631619e+18 -0 -0)
(8.20966440291276e+18 -0 -0)
(8.26923225941183e+18 -0 -0)
(8.32838221011782e+18 -0 -0)
(8.38708672513936e+18 -0 -0)
(8.44531675737548e+18 -0 -0)
(8.50311890352168e+18 -0 -0)
(8.56049741252171e+18 -0 -0)
(8.61743963172428e+18 -0 -0)
(8.67392412785115e+18 -0 -0)
(8.72994471425007e+18 -0 -0)
(8.78546519493598e+18 -0 -0)
(8.84049834937616e+18 -0 -0)
(8.8949864726053e+18 -0 -0)
(8.94895587362633e+18 -0 -0)
(9.00236604926367e+18 -0 -0)
(9.05513971992811e+18 -0 -0)
(9.10755364145525e+18 -0 -0)
(9.158735419796e+18 -0 -0)
(9.2107405125782e+18 -0 -0)
(9.25903933591929e+18 -0 -0)
(9.31153211786854e+18 -0 -0)
(9.36008507637507e+18 -0 -0)
(9.4085291682847e+18 -0 -0)
(9.45684704762627e+18 -0 -0)
(9.50370450961017e+18 -0 -0)
(9.55061775447122e+18 -0 -0)
(9.59781029406986e+18 -0 -0)
(9.64097045874856e+18 -0 -0)
(9.69058955680465e+18 -0 -0)
(9.72994297967588e+18 -0 -0)
(9.77181444644789e+18 -0 -0)
(9.81722687901692e+18 -0 -0)
(9.85925819399934e+18 -0 -0)
(9.89451122902884e+18 -0 -0)
(9.93662622421463e+18 -0 -0)
(9.97599589527099e+18 -0 -0)
(1.00072928895082e+19 -0 -0)
(1.00444781290876e+19 -0 -0)
(1.00810713881956e+19 -0 -0)
(1.0102920886034e+19 -0 -0)
(1.01401671205023e+19 -0 -0)
(1.01619127326974e+19 -0 -0)
(1.01919957473866e+19 -0 -0)
(1.02105577509711e+19 -0 -0)
(1.02446129777844e+19 -0 -0)
(1.02541808452756e+19 -0 -0)
(1.02890347613494e+19 -0 -0)
(1.03005960343545e+19 -0 -0)
(1.03432283802462e+19 -0 -0)
(1.03519259980835e+19 -0 -0)
(1.04081578163833e+19 -0 -0)
(1.04272368514906e+19 -0 -0)
(1.05099472692656e+19 -0 -0)
(1.05603279768326e+19 -0 -0)
(1.07030338343014e+19 -0 -0)
(1.08419448970127e+19 -0 -0)
(1.10832559506172e+19 -0 -0)
(1.13364389502486e+19 -0 -0)
(1.16128255119683e+19 -0 -0)
(1.18566498250246e+19 -0 -0)
(1.20488578839386e+19 -0 -0)
(1.22267151676862e+19 -0 -0)
(1.23444256093191e+19 -0 -0)
(1.24347748952576e+19 -0 -0)
(1.25061962348157e+19 -0 -0)
(1.25675009997209e+19 -0 -0)
(1.26210307371783e+19 -0 -0)
(1.26714540986096e+19 -0 -0)
(1.27185123772791e+19 -0 -0)
(1.27630261722545e+19 -0 -0)
(1.28096018163094e+19 -0 -0)
(1.28525917977889e+19 -0 -0)
(1.28987315410548e+19 -0 -0)
(1.2941476236943e+19 -0 -0)
(1.29879262871277e+19 -0 -0)
(1.30308690018496e+19 -0 -0)
(1.30778940846456e+19 -0 -0)
(1.31211623760608e+19 -0 -0)
(1.31686427859559e+19 -0 -0)
(1.32119483013338e+19 -0 -0)
(1.32596089159952e+19 -0 -0)
(1.33017445877072e+19 -0 -0)
(1.33499593439419e+19 -0 -0)
(1.3391287737161e+19 -0 -0)
(1.34390319227269e+19 -0 -0)
(1.34793787691804e+19 -0 -0)
(1.35263446438169e+19 -0 -0)
(1.35654269715487e+19 -0 -0)
(1.36112938099518e+19 -0 -0)
(1.36488521323196e+19 -0 -0)
(1.36933695853402e+19 -0 -0)
(1.37292238440918e+19 -0 -0)
(1.37722955841928e+19 -0 -0)
(1.3806307899445e+19 -0 -0)
(1.3847946662861e+19 -0 -0)
(1.38800574352938e+19 -0 -0)
(1.39202355617294e+19 -0 -0)
(1.39504635998755e+19 -0 -0)
(1.39888556040468e+19 -0 -0)
(1.4017529452359e+19 -0 -0)
(1.40542805113018e+19 -0 -0)
(1.40809904986965e+19 -0 -0)
(1.41162254117064e+19 -0 -0)
(1.41410659320983e+19 -0 -0)
(1.41748277807387e+19 -0 -0)
(1.41979043254056e+19 -0 -0)
(1.42303377130429e+19 -0 -0)
(1.42516453020268e+19 -0 -0)
(1.42828221104589e+19 -0 -0)
(1.43024543795947e+19 -0 -0)
(1.43324125584607e+19 -0 -0)
(1.43504005999635e+19 -0 -0)
(1.43792583217762e+19 -0 -0)
(1.43956770814368e+19 -0 -0)
(1.44234425613895e+19 -0 -0)
(1.4438350554107e+19 -0 -0)
(1.44651355870332e+19 -0 -0)
(1.44785661663833e+19 -0 -0)
(1.45043802103062e+19 -0 -0)
(1.45164162874851e+19 -0 -0)
(1.45413836365903e+19 -0 -0)
(1.45520996273159e+19 -0 -0)
(1.45763974465139e+19 -0 -0)
(1.45860809628707e+19 -0 -0)
(1.46096971527765e+19 -0 -0)
(1.46182057281838e+19 -0 -0)
(1.46411844256041e+19 -0 -0)
(1.46485425603934e+19 -0 -0)
(1.46709502995478e+19 -0 -0)
(1.46772062782109e+19 -0 -0)
(1.46990245775318e+19 -0 -0)
(1.47041811308963e+19 -0 -0)
(1.47254509036472e+19 -0 -0)
(1.47296128986955e+19 -0 -0)
(1.47504151363331e+19 -0 -0)
(1.47536202274703e+19 -0 -0)
(1.47739959290976e+19 -0 -0)
(1.47762961629772e+19 -0 -0)
(1.47963605180001e+19 -0 -0)
(1.47978449176978e+19 -0 -0)
(1.48176221249351e+19 -0 -0)
(1.48182579001885e+19 -0 -0)
(1.48377518792424e+19 -0 -0)
(1.48375464853161e+19 -0 -0)
(1.48567815816834e+19 -0 -0)
(1.4855767830198e+19 -0 -0)
(1.48747070043326e+19 -0 -0)
(1.48727936309068e+19 -0 -0)
(1.48913344566733e+19 -0 -0)
(1.48885432603783e+19 -0 -0)
(1.49066221098539e+19 -0 -0)
(1.49028611673805e+19 -0 -0)
(1.49204589932642e+19 -0 -0)
(1.49155372473388e+19 -0 -0)
(1.49323987579942e+19 -0 -0)
(1.4907442683922e+19 -0 -0)
)
;

boundaryField
{
    electrode
    {
        type            calculated;
        value           uniform (-12250169178.2688 -0 -0);
    }
    ground
    {
        type            calculated;
        value           uniform (1.49336239884945e+19 -0 -0);
    }
    otherfaces
    {
        type            empty;
    }
}


// ************************************************************************* //
