/*--------------------------------*- C++ -*----------------------------------*\
| =========                 |                                                 |
| \\      /  F ield         | foam-extend: Open Source CFD                    |
|  \\    /   O peration     | Version:     4.0                                |
|   \\  /    A nd           | Web:         http://www.foam-extend.org         |
|    \\/     M anipulation  |                                                 |
\*---------------------------------------------------------------------------*/
FoamFile
{
    version     2.0;
    format      ascii;
    class       volVectorField;
    location    "6e-06";
    object      J_electron;
}
// * * * * * * * * * * * * * * * * * * * * * * * * * * * * * * * * * * * * * //

dimensions      [1 -1 -1 0 0 0 0];

internalField   nonuniform List<vector> 
300
(
(-1.31102477742348e+19 0 0)
(-1.3453323816885e+19 0 0)
(-1.58901635958942e+19 0 0)
(-1.54112867252914e+19 0 0)
(-1.54123237599385e+19 0 0)
(-1.53988618602097e+19 0 0)
(-1.5337337596524e+19 0 0)
(-1.52912874723872e+19 0 0)
(-1.52428615347851e+19 0 0)
(-1.51938275176916e+19 0 0)
(-1.51451220031919e+19 0 0)
(-1.5096284147015e+19 0 0)
(-1.50474030804985e+19 0 0)
(-1.49984806045876e+19 0 0)
(-1.49495037761837e+19 0 0)
(-1.49004718522209e+19 0 0)
(-1.48513808436366e+19 0 0)
(-1.48022269133762e+19 0 0)
(-1.47530063623684e+19 0 0)
(-1.47037154278096e+19 0 0)
(-1.46543503444577e+19 0 0)
(-1.46049073136989e+19 0 0)
(-1.45553825077811e+19 0 0)
(-1.45057721130007e+19 0 0)
(-1.44560722613797e+19 0 0)
(-1.44062790639975e+19 0 0)
(-1.43563886800659e+19 0 0)
(-1.43063971535289e+19 0 0)
(-1.42563005929203e+19 0 0)
(-1.42060950887042e+19 0 0)
(-1.41557766484184e+19 0 0)
(-1.41053413563134e+19 0 0)
(-1.40547852307336e+19 0 0)
(-1.40041043246698e+19 0 0)
(-1.39532946557703e+19 0 0)
(-1.39023522456576e+19 0 0)
(-1.38512731547157e+19 0 0)
(-1.38000534064945e+19 0 0)
(-1.37486889915824e+19 0 0)
(-1.36971760503533e+19 0 0)
(-1.36455106150922e+19 0 0)
(-1.35936887240618e+19 0 0)
(-1.35417065616967e+19 0 0)
(-1.34895602151913e+19 0 0)
(-1.34372458360356e+19 0 0)
(-1.3384759648105e+19 0 0)
(-1.33320978673896e+19 0 0)
(-1.32792567628379e+19 0 0)
(-1.32262326736202e+19 0 0)
(-1.31730219441159e+19 0 0)
(-1.3119621004777e+19 0 0)
(-1.3066026316726e+19 0 0)
(-1.30122344553537e+19 0 0)
(-1.29582419129283e+19 0 0)
(-1.2904045216251e+19 0 0)
(-1.28496413942376e+19 0 0)
(-1.27950284270356e+19 0 0)
(-1.27402042781797e+19 0 0)
(-1.26851619183198e+19 0 0)
(-1.26298850860741e+19 0 0)
(-1.25743669563645e+19 0 0)
(-1.25186632296765e+19 0 0)
(-1.24628953235663e+19 0 0)
(-1.24070154750908e+19 0 0)
(-1.23503304941696e+19 0 0)
(-1.22916375759075e+19 0 0)
(-1.22317820383823e+19 0 0)
(-1.21730626365974e+19 0 0)
(-1.21153973011661e+19 0 0)
(-1.20577164595597e+19 0 0)
(-1.19998139781459e+19 0 0)
(-1.19416318376246e+19 0 0)
(-1.18831530846047e+19 0 0)
(-1.18243735559563e+19 0 0)
(-1.17652926022384e+19 0 0)
(-1.17059106533679e+19 0 0)
(-1.1646228351422e+19 0 0)
(-1.15862465284905e+19 0 0)
(-1.15259660614773e+19 0 0)
(-1.14653879581653e+19 0 0)
(-1.14045132024678e+19 0 0)
(-1.13433429284225e+19 0 0)
(-1.12818783497502e+19 0 0)
(-1.12201206746374e+19 0 0)
(-1.11580712698983e+19 0 0)
(-1.10957315505736e+19 0 0)
(-1.10331029618415e+19 0 0)
(-1.09701870644751e+19 0 0)
(-1.09069854715035e+19 0 0)
(-1.08434998146394e+19 0 0)
(-1.07797318404428e+19 0 0)
(-1.07156832688412e+19 0 0)
(-1.06513559115294e+19 0 0)
(-1.05867515528479e+19 0 0)
(-1.05218720301958e+19 0 0)
(-1.04567191174691e+19 0 0)
(-1.03912946442143e+19 0 0)
(-1.03256003399417e+19 0 0)
(-1.02596378894601e+19 0 0)
(-1.01934089272238e+19 0 0)
(-1.01269149669015e+19 0 0)
(-1.00601573704949e+19 0 0)
(-9.99313739188168e+18 0 0)
(-9.92585606989349e+18 0 0)
(-9.85831422337588e+18 0 0)
(-9.79051241203145e+18 0 0)
(-9.72245092843179e+18 0 0)
(-9.65412966818172e+18 0 0)
(-9.58554819199028e+18 0 0)
(-9.51670557100527e+18 0 0)
(-9.44760042123742e+18 0 0)
(-9.37823077882973e+18 0 0)
(-9.30859406812145e+18 0 0)
(-9.23868696294457e+18 0 0)
(-9.16850541972423e+18 0 0)
(-9.09804447365438e+18 0 0)
(-9.02729820154941e+18 0 0)
(-8.95625962698886e+18 0 0)
(-8.88492057619386e+18 0 0)
(-8.81327150955286e+18 0 0)
(-8.74130148285324e+18 0 0)
(-8.66899791632715e+18 0 0)
(-8.59634640555554e+18 0 0)
(-8.52333064357937e+18 0 0)
(-8.44993203838701e+18 0 0)
(-8.37612965914634e+18 0 0)
(-8.30189982886448e+18 0 0)
(-8.2272159568374e+18 0 0)
(-8.15204810217436e+18 0 0)
(-8.07636271104315e+18 0 0)
(-8.00012218600679e+18 0 0)
(-7.92328437048069e+18 0 0)
(-7.84580221753308e+18 0 0)
(-7.76762300091807e+18 0 0)
(-7.68868784294802e+18 0 0)
(-7.60893083614708e+18 0 0)
(-7.52827883039752e+18 0 0)
(-7.44664987688868e+18 0 0)
(-7.36394962495708e+18 0 0)
(-7.28007900099196e+18 0 0)
(-7.19492860283034e+18 0 0)
(-7.10834977723331e+18 0 0)
(-7.02019587214986e+18 0 0)
(-6.93040399400776e+18 0 0)
(-6.8386826642973e+18 0 0)
(-6.74447358459956e+18 0 0)
(-6.64859348438614e+18 0 0)
(-6.55043488366199e+18 0 0)
(-6.44476883721676e+18 0 0)
(-6.33440818292274e+18 0 0)
(-6.22400831353573e+18 0 0)
(-6.11111065242042e+18 0 0)
(-5.9934607766989e+18 0 0)
(-5.87136411849405e+18 0 0)
(-5.74284290552916e+18 0 0)
(-5.60886779762809e+18 0 0)
(-5.46734061623706e+18 0 0)
(-5.31726753215912e+18 0 0)
(-5.16192814053091e+18 0 0)
(-4.98508617945186e+18 0 0)
(-4.82065545600015e+18 0 0)
(-4.57639260340617e+18 0 0)
(-4.38497896205753e+18 0 0)
(-3.8668693636949e+18 0 0)
(-2.84736921119123e+18 0 0)
(-2.45724019805913e+18 0 0)
(-2.53162013063329e+18 0 0)
(-2.35458686072914e+18 0 0)
(-1.94578773974503e+18 0 0)
(-1.2395605925403e+18 0 0)
(-6.97754988503368e+17 0 0)
(-1.55908442372964e+17 0 0)
(2.2172585295872e+16 0 0)
(-1.01489913695935e+18 0 0)
(-1.17412141557141e+18 0 0)
(-3.84169328773169e+17 0 0)
(-1.21408703563196e+18 0 0)
(-2.66462018700155e+18 0 0)
(-2.51619842514538e+18 0 0)
(-3.4824539376179e+18 0 0)
(-4.62759088928116e+18 0 0)
(-4.22398747338605e+18 0 0)
(-4.42594039022748e+18 0 0)
(-4.14407763619322e+18 0 0)
(-2.32198188893523e+18 0 0)
(-6.30588077699498e+17 0 0)
(1.4524464219428e+18 0 0)
(4.41368530772768e+18 0 0)
(7.04215644288844e+18 0 0)
(9.186014999958e+18 0 0)
(1.09989679902564e+19 0 0)
(1.19191425923956e+19 0 0)
(1.2779110995173e+19 0 0)
(1.15234179788547e+19 0 0)
(9.4186235950912e+18 0 0)
(8.85858702222374e+18 0 0)
(6.10201796131042e+18 0 0)
(6.37187733336293e+18 0 0)
(3.46956029382571e+18 0 0)
(-3.35435619984979e+18 0 0)
(1.70128460091908e+18 0 0)
(-1.61374837569035e+18 0 0)
(-2.27070974888392e+18 0 0)
(-2.16612339162745e+18 0 0)
(-2.14744177910009e+18 0 0)
(-2.30092094362544e+18 0 0)
(-2.56810059611885e+18 0 0)
(-2.79593710616371e+18 0 0)
(-2.93034137033686e+18 0 0)
(-2.98827642091822e+18 0 0)
(-3.0032756154015e+18 0 0)
(-2.98781961605424e+18 0 0)
(-2.96287326201939e+18 0 0)
(-2.92579767054409e+18 0 0)
(-2.88896776649648e+18 0 0)
(-2.84834134905596e+18 0 0)
(-2.80393857578896e+18 0 0)
(-2.75726536352382e+18 0 0)
(-2.71051718387668e+18 0 0)
(-2.66249557666131e+18 0 0)
(-2.61561373919521e+18 0 0)
(-2.56806079561941e+18 0 0)
(-2.51998936006147e+18 0 0)
(-2.47180661681322e+18 0 0)
(-2.42364032610716e+18 0 0)
(-2.37559579183419e+18 0 0)
(-2.32776035789151e+18 0 0)
(-2.28024048422199e+18 0 0)
(-2.23311994320835e+18 0 0)
(-2.18647672319953e+18 0 0)
(-2.14038115635382e+18 0 0)
(-2.0948963817771e+18 0 0)
(-2.05007879475738e+18 0 0)
(-2.00597776768192e+18 0 0)
(-1.96263625765901e+18 0 0)
(-1.92009065467082e+18 0 0)
(-1.87837132431164e+18 0 0)
(-1.83750265105475e+18 0 0)
(-1.79750028936852e+18 0 0)
(-1.75837488178985e+18 0 0)
(-1.72005445744758e+18 0 0)
(-1.68288650013909e+18 0 0)
(-1.64646610534955e+18 0 0)
(-1.61095706246622e+18 0 0)
(-1.57633649277829e+18 0 0)
(-1.54260650022245e+18 0 0)
(-1.50975614341413e+18 0 0)
(-1.47777355333439e+18 0 0)
(-1.44664448190051e+18 0 0)
(-1.41635293038432e+18 0 0)
(-1.3868817712852e+18 0 0)
(-1.3582123564812e+18 0 0)
(-1.33032667383003e+18 0 0)
(-1.30320246466759e+18 0 0)
(-1.27684077599632e+18 0 0)
(-1.25112828931861e+18 0 0)
(-1.22618219318725e+18 0 0)
(-1.20194662026297e+18 0 0)
(-1.17829903773089e+18 0 0)
(-1.15531980664524e+18 0 0)
(-1.1329552309829e+18 0 0)
(-1.11119098243604e+18 0 0)
(-1.09000572912951e+18 0 0)
(-1.06938071092657e+18 0 0)
(-1.04929768563613e+18 0 0)
(-1.02973969939799e+18 0 0)
(-1.0106867301694e+18 0 0)
(-9.92119020457236e+17 0 0)
(-9.74022226463108e+17 0 0)
(-9.5634975401493e+17 0 0)
(-9.39098223698418e+17 0 0)
(-9.22428028714619e+17 0 0)
(-9.06072064840191e+17 0 0)
(-8.90122156891926e+17 0 0)
(-8.74554369663861e+17 0 0)
(-8.59362783365441e+17 0 0)
(-8.44535161713482e+17 0 0)
(-8.30060434081462e+17 0 0)
(-8.15927704607867e+17 0 0)
(-8.02125390563307e+17 0 0)
(-7.88644851342417e+17 0 0)
(-7.75460038247457e+17 0 0)
(-7.62592014753889e+17 0 0)
(-7.49730283212704e+17 0 0)
(-7.37807031451146e+17 0 0)
(-7.25844277388378e+17 0 0)
(-7.14182912771281e+17 0 0)
(-7.02774414663789e+17 0 0)
(-6.91558422758083e+17 0 0)
(-6.80500197636103e+17 0 0)
(-6.70349626632655e+17 0 0)
(-6.60117009653757e+17 0 0)
(-6.49780545730663e+17 0 0)
(-6.40505167558026e+17 0 0)
(-6.31176480833074e+17 0 0)
(-6.22338948447591e+17 0 0)
(-6.14169427526966e+17 0 0)
(-6.07187322279648e+17 0 0)
(-6.00890225796042e+17 0 0)
(-5.90304300231808e+17 0 0)
)
;

boundaryField
{
    electrode
    {
        type            calculated;
        value           uniform (-1.5658288108193e+19 0 0);
    }
    ground
    {
        type            calculated;
        value           uniform (-5.87689498509216e+17 0 0);
    }
    otherfaces
    {
        type            empty;
    }
}


// ************************************************************************* //
