/*--------------------------------*- C++ -*----------------------------------*\
| =========                 |                                                 |
| \\      /  F ield         | foam-extend: Open Source CFD                    |
|  \\    /   O peration     | Version:     4.0                                |
|   \\  /    A nd           | Web:         http://www.foam-extend.org         |
|    \\/     M anipulation  |                                                 |
\*---------------------------------------------------------------------------*/
FoamFile
{
    version     2.0;
    format      ascii;
    class       volScalarField;
    location    "6e-06";
    object      N_electronMean;
}
// * * * * * * * * * * * * * * * * * * * * * * * * * * * * * * * * * * * * * //

dimensions      [0 0 0 1 0 0 0];

internalField   nonuniform List<scalar> 
300
(
6.03457169326715e+16
6.0344235710072e+16
6.03401451356708e+16
6.03329706159236e+16
6.0322748134415e+16
6.03094409237848e+16
6.02930281314849e+16
6.02734980923465e+16
6.02508398532718e+16
6.02250453446074e+16
6.01961087737581e+16
6.01640263908994e+16
6.01287963489586e+16
6.00904185370002e+16
6.00488944675674e+16
6.00042271645596e+16
5.99564210676728e+16
5.99054819503026e+16
5.9851416839707e+16
5.97942339414109e+16
5.97339425723332e+16
5.96705530974482e+16
5.96040768686388e+16
5.95345261620964e+16
5.94619141324802e+16
5.93862547768699e+16
5.9307562869106e+16
5.92258538944454e+16
5.91411439961678e+16
5.90534499037504e+16
5.89627888861618e+16
5.88691787388399e+16
5.87726377181722e+16
5.86731844364695e+16
5.85708377862587e+16
5.84656168795293e+16
5.83575409878843e+16
5.82466294876123e+16
5.81329017996857e+16
5.80163773288166e+16
5.78970754132765e+16
5.77750152737796e+16
5.76502159528898e+16
5.75226962595454e+16
5.73924747210142e+16
5.72595695360679e+16
5.71239985312744e+16
5.69857791219954e+16
5.68449282821175e+16
5.67014625222827e+16
5.65553978886493e+16
5.6406749962609e+16
5.6255533827744e+16
5.61017640092173e+16
5.59454543874122e+16
5.5786618109097e+16
5.5625267511107e+16
5.54614140602517e+16
5.52950683070553e+16
5.51262398408685e+16
5.49549372494612e+16
5.47811680814376e+16
5.46049388046941e+16
5.4426254796053e+16
5.42451203682148e+16
5.40615387295717e+16
5.38755118835513e+16
5.36870405740713e+16
5.34961242646129e+16
5.33027611130452e+16
5.31069479418514e+16
5.2908680223578e+16
5.27079520975991e+16
5.25047563533091e+16
5.22990843745968e+16
5.20909261411093e+16
5.18802702508084e+16
5.16671038922115e+16
5.14514127691178e+16
5.12331810541628e+16
5.10123913830435e+16
5.07890247771751e+16
5.0563060569468e+16
5.03344763797351e+16
5.01032481043458e+16
4.98693499298789e+16
4.96327543002175e+16
4.93934318453368e+16
4.91513513504402e+16
4.89064797547718e+16
4.86587821250081e+16
4.84082216736914e+16
4.81547597903166e+16
4.78983559542919e+16
4.76389676534984e+16
4.73765503660582e+16
4.71110575415306e+16
4.68424405830211e+16
4.65706488298491e+16
4.62956295530926e+16
4.60173279503505e+16
4.57356871163931e+16
4.54506480508847e+16
4.51621496895516e+16
4.48701288677454e+16
4.45745202992687e+16
4.42752565813863e+16
4.39722681857897e+16
4.36654834696968e+16
4.33548286566883e+16
4.30402278068893e+16
4.27216028147619e+16
4.23988734203424e+16
4.20719572409506e+16
4.17407697839985e+16
4.14052244603851e+16
4.10652326538807e+16
4.07207037575955e+16
4.03715451386016e+16
4.00176621136211e+16
3.96589579911045e+16
3.92953341356238e+16
3.89266900232995e+16
3.85529233093881e+16
3.81739298280654e+16
3.77896035448482e+16
3.73998365832913e+16
3.70045192827985e+16
3.66035402146434e+16
3.61967862106092e+16
3.57841424239861e+16
3.53654923903633e+16
3.49407180776795e+16
3.45096999343063e+16
3.40723170111412e+16
3.36284471051901e+16
3.31779667880013e+16
3.27207513841569e+16
3.22566750103084e+16
3.1785610657088e+16
3.13074302372843e+16
3.0822004628316e+16
3.03292037410034e+16
2.9828896605577e+16
2.93209515266141e+16
2.88052362226426e+16
2.82816178645127e+16
2.77499630991672e+16
2.7210138066606e+16
2.666200850294e+16
2.61054399588967e+16
2.55402979308629e+16
2.49664479868778e+16
2.43837559580169e+16
2.37920880334461e+16
2.31913109729195e+16
2.2581292390125e+16
2.19619011323223e+16
2.13330073320191e+16
2.06944819242008e+16
2.0046193661633e+16
1.93879917460918e+16
1.87196804233754e+16
1.80410101686664e+16
1.73516816348205e+16
1.66513625082669e+16
1.59397172803545e+16
1.52164202314519e+16
1.44811521522862e+16
1.37336155267791e+16
1.29736011309915e+16
1.22011242443683e+16
1.14165989713413e+16
1.06210235646846e+16
9.8162179294692e+15
9.00503040372923e+15
8.19149264284854e+15
7.38105676847035e+15
6.58066609972589e+15
5.79854858671995e+15
5.04395799613865e+15
4.32669686545432e+15
3.65634867478352e+15
3.04150616919907e+15
2.48900222183916e+15
2.00319187931548e+15
1.58558138970863e+15
1.23479813115738e+15
946854924802408
715746450096840
534183216338518
394337381928595
288525599600647
209717003932191
151424909785153
108516865160371
77137734189088.1
54283722357014.4
37653882950316.3
25762514830653.8
17467588193562.6
11729746732429.4
7856873473380.77
5376577319525.24
3877681357453.15
3009301765677.33
2511608585018.97
2220588752987.35
2043577626334.18
1930657377466.15
1854914720862.63
1801334280012.43
1761222284944.08
1729339311855.99
1702385045675.12
1678223023524.66
1655435324679.94
1633074283586.9
1610561328883.04
1587516383244.15
1563682550477.05
1538892122370.82
1513075640030.73
1486239858679.59
1458436680409.35
1429748951421.65
1400280069628.72
1370144927236
1339464344054.16
1308360736614.66
1276954917519.42
1245364498859.76
1213701356016.69
1182070776490.65
1150570904779.67
1119291777436.91
1088314939124.58
1057713985468.34
1027553829584.97
997891224744.361
968775413246.742
940247067178.649
912339712028.726
885081391365.854
858495132418.497
832598851505.57
807404517196.343
782919276622.561
759146015831.907
736084088927.718
713730924735.459
692081694276.113
671128916260.823
650862658596.798
631271229127.323
612342345341.995
594061394677.66
576410265953.449
559371572110.88
542929498708.017
527067374826.177
511767357874.809
497011442650.104
482781375554.692
469059004587.77
455826583569.471
443065538873.773
430756984436.496
418882633575.324
407424346585.27
396363645356.24
385683811616.849
375370900037.991
365412678304.916
355797681650.013
346515170442.797
337555031326.402
328907681752.692
320564339955.682
312517052504.654
304758556062.764
297281402771.343
290077334173.127
283125515550.031
276400225997.359
269895095118.219
263617484143.991
257576460932.538
251781457170.842
246216701574.741
240859057862.555
235724943400.944
230854309695.987
226245070511.583
221926269080.317
217977338382.373
214520235889.756
211807269069.33
210242816492.144
210560015056.429
)
;

boundaryField
{
    electrode
    {
        type            calculated;
        value           uniform 6.03457169328686e+16;
    }
    ground
    {
        type            calculated;
        value           uniform 212182656431.315;
    }
    otherfaces
    {
        type            empty;
    }
}


// ************************************************************************* //
