/*--------------------------------*- C++ -*----------------------------------*\
| =========                 |                                                 |
| \\      /  F ield         | foam-extend: Open Source CFD                    |
|  \\    /   O peration     | Version:     4.0                                |
|   \\  /    A nd           | Web:         http://www.foam-extend.org         |
|    \\/     M anipulation  |                                                 |
\*---------------------------------------------------------------------------*/
FoamFile
{
    version     2.0;
    format      ascii;
    class       volScalarField;
    location    "6e-06";
    object      Phi;
}
// * * * * * * * * * * * * * * * * * * * * * * * * * * * * * * * * * * * * * //

dimensions      [0 0 0 1 0 0 0];

internalField   nonuniform List<scalar> 
300
(
699.999925698347
699.999713681278
699.99921084185
699.998450715298
699.997441803101
699.99617875821
699.994662487525
699.992892576709
699.990868493116
699.988589778347
699.986055880813
699.983266200008
699.980220083724
699.976916824689
699.973355661202
699.969535776314
699.965456297141
699.961116294185
699.956514780576
699.951650711283
699.946522982279
699.941130429655
699.935471828701
699.929545892939
699.923351273106
699.916886556104
699.910150263895
699.903140852362
699.895856710116
699.888296157264
699.880457444134
699.87233874995
699.863938181467
699.855253771556
699.846283477746
699.837025180722
699.827476682773
699.817635706195
699.807499891645
699.797066796453
699.786333892876
699.775298566311
699.763958113453
699.752309740405
699.740350560736
699.728077593481
699.715487761092
699.702577887333
699.689344695113
699.675784804263
699.661894729254
699.647670876845
699.633109543678
699.618206913789
699.602959056067
699.587361921613
699.571411341025
699.555103021622
699.538432544696
699.521395362724
699.503986796085
699.486202028525
699.468036102643
699.449483920927
699.430540256462
699.411199755721
699.391456878345
699.371305772276
699.350740296932
699.329754130976
699.308340787045
699.286493606623
699.264205755334
699.241470217596
699.218279790973
699.194627080308
699.170504491647
699.145904225927
699.120818272434
699.095238401994
699.0691561599
699.042562858537
699.015449569701
698.987807116573
698.959626065344
698.930896716452
698.901609095411
698.871752943206
698.841317706213
698.810292525632
698.778666226374
698.746427305391
698.713563919385
698.680063871874
698.645914599558
698.611103157946
698.575616206174
698.539439990984
698.50256032978
698.464962592712
698.426631683708
698.387552020384
698.347707512747
698.307081540607
698.265656929599
698.223415925712
698.180340168216
698.136410660857
698.091607741201
698.045911047972
697.999299486237
697.951751190247
697.903243483787
697.853752837786
697.803254824996
697.751724071489
697.699134204698
697.64545779771
697.590666309503
697.53473002075
697.477617964816
697.419297853505
697.359735997086
697.298897218063
697.236744758114
697.173240177525
697.108343246424
697.042011826972
696.974201745645
696.904866654566
696.833957880783
696.761424262205
696.68721196878
696.61126430731
696.533521508087
696.453920491295
696.372394610857
696.288873373065
696.203282127122
696.115541723944
696.025568139024
695.933272056446
695.838558407549
695.74132585389
695.64146621708
695.53886386026
695.433394945182
695.32492658409
695.213316174169
695.098410246277
694.980042450469
694.858032732517
694.732186140774
694.602291191727
694.468117813797
694.329415385217
694.185909786724
694.037301100048
693.883259450611
693.723421849968
693.557387457298
693.384710311764
693.20490036304
693.017394591978
692.821596671578
692.616708758986
692.401692838538
692.175476043014
691.936885955107
691.684595633492
691.417035683811
691.132300659461
690.828208804119
690.502105868718
690.151120472872
689.77243681206
689.362477315628
688.917021270045
688.432037629854
687.902974596191
687.324484920543
686.691564372025
685.998918143624
685.240571476728
684.411445840258
683.506288556893
682.51968755455
681.447305058216
680.285329927571
679.029842343027
677.678168617221
676.228385974553
674.679100743123
673.028831825671
671.277551822305
669.425419706076
667.47301558305
665.42046139418
663.268205998145
661.01631997362
658.665645838014
656.215669156968
653.665601278741
651.014723718632
648.26245788822
645.408896383959
642.45454143466
639.400270179858
636.247050383266
632.99586594825
629.647648085825
626.203263985965
622.663488977382
619.029032581511
615.300991729235
611.480349884041
607.568028245051
603.564844952467
599.471568306751
595.288872750049
591.01739366952
586.65768017656
582.210251888516
577.675548977788
573.053990989374
568.34594265469
563.552054983529
558.672896218745
553.709038565892
548.660976083216
543.529213794778
538.314182220293
533.016328777228
527.636029435488
522.173681911413
516.629614828037
511.004182442468
505.297671271863
499.510397190886
493.64260841321
487.694586333154
481.666544327212
475.558759419667
469.371620590053
463.10555136674
456.760910455511
450.338094137129
443.837433553081
437.259300038919
430.603999584708
423.87188048311
417.063225117616
410.178360952084
403.217548436218
396.181095631816
389.069242679186
381.882279772083
374.620427751359
367.283960083636
359.873079682975
352.388044358312
344.829039819845
337.196309254421
329.490022278544
321.710408124874
313.857620767095
305.931902667257
297.933524930476
289.862821475322
281.720047598213
273.505523867235
265.219490864826
256.862256759748
248.43404813669
239.935161509517
231.365810494195
222.726280827273
214.016773818121
205.237564739832
196.388843000221
187.470873984711
178.483835734273
169.42798419446
160.303486178084
151.110588423289
141.849447017551
132.520300243595
123.12329402218
113.658658678147
104.126530389227
94.5271318813625
84.860590229437
75.1271214393902
65.3268443892461
55.4599686735522
45.5266056669601
35.526959359832
25.4611341010356
15.3293294949927
5.13164387211071
)
;

boundaryField
{
    electrode
    {
        type            fixedValue;
        value           uniform 700;
    }
    ground
    {
        type            fixedValue;
        value           uniform 0;
    }
    otherfaces
    {
        type            empty;
    }
}


// ************************************************************************* //
