/*--------------------------------*- C++ -*----------------------------------*\
| =========                 |                                                 |
| \\      /  F ield         | foam-extend: Open Source CFD                    |
|  \\    /   O peration     | Version:     4.0                                |
|   \\  /    A nd           | Web:         http://www.foam-extend.org         |
|    \\/     M anipulation  |                                                 |
\*---------------------------------------------------------------------------*/
FoamFile
{
    version     2.0;
    format      ascii;
    class       volScalarField;
    location    "6e-06";
    object      PhiMean;
}
// * * * * * * * * * * * * * * * * * * * * * * * * * * * * * * * * * * * * * //

dimensions      [0 0 0 1 0 0 0];

internalField   nonuniform List<scalar> 
300
(
699.987723659414
699.986487729287
699.984982664701
699.983231443934
699.981243419488
699.979011838028
699.976536136984
699.973815199371
699.970847919225
699.967633468242
699.964171120821
699.960460283791
699.95650046527
699.9522912649
699.947832363922
699.943123514879
699.938164533272
699.932955291916
699.927495713923
699.921785765982
699.915825453657
699.909614816376
699.903153922852
699.896442866413
699.88948175969
699.882270739913
699.874809958257
699.867099575539
699.859139760979
699.850930684026
699.842472508247
699.833765402149
699.824809531296
699.815605043674
699.806152066116
699.796450700054
699.786501016551
699.776303053814
699.765856812134
699.755162248089
699.74421927165
699.733027743335
699.721587467237
699.709898187087
699.697959582145
699.685771263362
699.673332769156
699.660643562467
699.647703027423
699.63451046941
699.621065113797
699.60736611454
699.593412544366
699.579203394917
699.564737559957
699.550013828145
699.535030870794
699.519787236135
699.504281344057
699.488511479913
699.472475789585
699.456172273847
699.439598781987
699.422753005187
699.40563248979
699.388234630037
699.370556642578
699.352595561693
699.334348234822
699.315811316378
699.29698126076
699.277854314299
699.258426519415
699.238693710981
699.218651495136
699.198295249926
699.17762013033
699.156621053913
699.135292690496
699.113629434883
699.091625426623
699.069274512477
699.046570233753
699.023505818846
699.000074168312
698.976267859221
698.952079128032
698.927499846333
698.902521506641
698.877135217581
698.85133168491
698.825101194918
698.798433634048
698.771318435551
698.743744559115
698.715700475006
698.687174143481
698.65815299679
698.628623914709
698.598573206907
698.567986591747
698.53684916722
698.505145380629
698.472859028084
698.439973202703
698.406470266694
698.372331828013
698.33753869308
698.302070847398
698.26590740653
698.229026569206
698.191405576764
698.153020664365
698.113847020455
698.073858736291
698.033028740435
697.991328760779
697.948729268417
697.905199389806
697.860706827919
697.81521778322
697.768696890987
697.721107117057
697.672409688074
697.622563970804
697.571527337967
697.519255042954
697.465700103459
697.410813135994
697.354542200531
697.296832628497
697.237626838907
697.176864129317
697.114480444556
697.050408135743
696.984575731251
696.916907607645
696.84732364968
696.775738866091
696.702063004436
696.626200085741
696.548047898017
696.467497437856
696.384432278705
696.298727890603
696.210250883449
696.118858087329
696.024395551539
695.92669738753
695.825584460528
695.720862988116
695.612322840862
695.499735608864
695.382852419845
695.26140134364
695.135084369969
695.003574072537
694.866509366935
694.723491090919
694.574075630169
694.417769325097
694.254015674896
694.082167187095
693.901470137439
693.711048855528
693.509883983295
693.296806973499
693.070468044027
692.829284602212
692.571382687419
692.294542537307
691.99618049842
691.673339319896
691.322600293811
690.94007717086
690.52146952874
690.061901054785
689.556020310427
688.998253277842
688.382567623601
687.702719557851
686.952608599206
686.126152163612
685.217492803006
684.221542638851
683.133685083261
681.950002115327
680.667609792904
679.284392487472
677.798938249686
676.210601827823
674.519312983706
672.725521260981
670.830097409753
668.833995521286
666.738031340929
664.542845661548
662.24885574961
659.856418976651
657.36588621963
654.777485687188
652.091302975252
649.307517719258
646.42652651455
643.449072109322
640.376023413704
637.20834176195
633.946980622091
630.592865667179
627.146847343775
623.609723156503
619.982203880607
616.265034602635
612.459080497885
608.565231678178
604.584292956699
600.51702418329
596.364109122964
592.126197408189
587.803870529169
583.397685244829
578.908136861404
574.335704219382
569.680810908018
564.943872352506
560.125350212543
555.225845696432
550.245904742099
545.186071818025
540.046839181325
534.828702829366
529.532108720219
524.157512038719
518.705321974273
513.175961361521
507.569806690804
501.887251294449
496.12864257286
490.294347961406
484.38468927402
478.400011520661
472.340614725428
466.206829878432
459.999052854338
453.717748276281
447.363328196871
440.93623431979
434.436855183441
427.865611548252
421.222870166316
414.509032575213
407.724445174974
400.869491783411
393.944499639386
386.949836140975
379.885810412499
372.752774523971
365.551020432471
358.28088580398
350.94264630735
343.536625983852
336.063085011076
328.522334552719
320.914619853628
313.240239894322
305.499429024951
297.692484831221
289.819662232929
281.88131768168
273.877759283209
265.8093665879
257.676434067462
249.479330192641
241.218335262244
232.89380735323
224.506013105267
216.055300836502
207.541924044357
198.966221867609
190.328435161414
181.628894425014
172.867828288092
164.045559145088
155.162303798736
146.218377175395
137.213984736603
128.149434486398
119.02492087457
109.840745448607
100.597091951257
91.2942558730274
81.9324107728474
72.5118467993841
63.0327276758321
53.4953385456258
43.8998339608696
34.2464949416923
24.5354673840442
14.7670293342935
4.94131902836377
)
;

boundaryField
{
    electrode
    {
        type            calculated;
        value           uniform 699.99999999987;
    }
    ground
    {
        type            calculated;
        value           uniform 0;
    }
    otherfaces
    {
        type            empty;
    }
}


// ************************************************************************* //
