/*--------------------------------*- C++ -*----------------------------------*\
| =========                 |                                                 |
| \\      /  F ield         | foam-extend: Open Source CFD                    |
|  \\    /   O peration     | Version:     4.0                                |
|   \\  /    A nd           | Web:         http://www.foam-extend.org         |
|    \\/     M anipulation  |                                                 |
\*---------------------------------------------------------------------------*/
FoamFile
{
    version     2.0;
    format      ascii;
    class       volScalarField;
    location    "6e-06";
    object      Sy_electron;
}
// * * * * * * * * * * * * * * * * * * * * * * * * * * * * * * * * * * * * * //

dimensions      [1 -3 -1 0 0 0 0];

internalField   nonuniform List<scalar> 
300
(
3.37308853205709e-09
3.37387001877834e-09
3.37417652708446e-09
3.37411837487118e-09
3.37408756602707e-09
3.37400835485226e-09
3.37389028754127e-09
3.37373837135866e-09
3.37355017961273e-09
3.37332587497721e-09
3.37306517306374e-09
3.37276769582821e-09
3.37243311011652e-09
3.37206105237151e-09
3.3716511447874e-09
3.37120299550959e-09
3.37071619689308e-09
3.37019032572625e-09
3.3696249428662e-09
3.36901959290459e-09
3.3683738038643e-09
3.36768708686526e-09
3.36695893576734e-09
3.36618882682754e-09
3.3653762183068e-09
3.36452055016459e-09
3.3636212436036e-09
3.36267770069591e-09
3.36168930400631e-09
3.36065541613786e-09
3.35957537930688e-09
3.35844851498514e-09
3.35727412343693e-09
3.35605148325029e-09
3.35477985090444e-09
3.35345846033008e-09
3.35208652244367e-09
3.35066322470959e-09
3.34918773066893e-09
3.34765917946249e-09
3.34607668537412e-09
3.34443933736603e-09
3.34274619860274e-09
3.34099630598395e-09
3.33918866967475e-09
3.33732227263273e-09
3.33539607013474e-09
3.33340898932023e-09
3.33135992870801e-09
3.3292477577547e-09
3.32707131636755e-09
3.32482941450592e-09
3.32252083165704e-09
3.32014431647276e-09
3.3176985862964e-09
3.31518232667919e-09
3.31259419068691e-09
3.30993279837357e-09
3.30719673727406e-09
3.30438456444901e-09
3.30149480587884e-09
3.29852594330146e-09
3.29547639192974e-09
3.29234452024852e-09
3.289128794183e-09
3.28582797252268e-09
3.28249580515109e-09
3.28044177975155e-09
3.27832014499108e-09
3.27612872386371e-09
3.27386555565833e-09
3.27152869558379e-09
3.26911617708802e-09
3.26662600053888e-09
3.26405612918378e-09
3.2614044875254e-09
3.25866896028654e-09
3.25584739153165e-09
3.25293758390545e-09
3.24993729771297e-09
3.24684425028241e-09
3.24365611499486e-09
3.24037052047015e-09
3.23698504973015e-09
3.23349723928738e-09
3.22990457827582e-09
3.22620450749846e-09
3.22239441842553e-09
3.21847165217104e-09
3.2144334984955e-09
3.21027719464024e-09
3.20599992413351e-09
3.20159881578178e-09
3.19707094215086e-09
3.1924133182856e-09
3.18762290029309e-09
3.18269658380518e-09
3.17763120237186e-09
3.17242352573406e-09
3.16707025802619e-09
3.16156803583033e-09
3.1559134260774e-09
3.1501029238078e-09
3.14413294992593e-09
3.137999848543e-09
3.13169988433396e-09
3.12522923966359e-09
3.11858401142225e-09
3.1117602078016e-09
3.1047537446871e-09
3.09756044185565e-09
3.09017601890649e-09
3.08259609087993e-09
3.07481616359098e-09
3.06683162858315e-09
3.05863775771681e-09
3.05022969740121e-09
3.04160246244347e-09
3.03275092928531e-09
3.02366982886515e-09
3.01435373892452e-09
3.0047970758147e-09
2.9949940855253e-09
2.9849388342498e-09
2.9746251980829e-09
2.9640468519794e-09
2.95319725788609e-09
2.94206965207249e-09
2.93065703128888e-09
2.91895213802417e-09
2.90694744454508e-09
2.89463513575065e-09
2.88200709061671e-09
2.86905486219367e-09
2.85576965605611e-09
2.84214230711343e-09
2.82816325424355e-09
2.81382251295491e-09
2.79910964691437e-09
2.78401373506845e-09
2.76852333453229e-09
2.75262645092098e-09
2.73631050068581e-09
2.71956222810653e-09
2.70236769304177e-09
2.68471237380376e-09
2.66658071842917e-09
2.64795607133234e-09
2.62882270953653e-09
2.61032330657818e-09
2.59197748076534e-09
2.57308541610111e-09
2.55362475618778e-09
2.53357214592939e-09
2.512902984073e-09
2.49159100384647e-09
2.46960811167203e-09
2.44692503072122e-09
2.42350877505322e-09
2.39932899720077e-09
2.37434436593016e-09
2.34853613831882e-09
2.32186405193638e-09
2.29439915894053e-09
2.26648325772925e-09
2.23798003002475e-09
2.20820950905708e-09
2.17690525738751e-09
2.14417952584543e-09
2.11018660774947e-09
2.07486343859529e-09
2.03683210046654e-09
1.99387633243224e-09
1.94768239938765e-09
1.89779060580958e-09
1.84522211048079e-09
1.78951827269829e-09
1.72905162603711e-09
1.66449861070339e-09
1.5965154018769e-09
1.52444682337369e-09
1.44372651701839e-09
1.35986769906373e-09
1.27674321828892e-09
1.19798580055575e-09
1.12768298507248e-09
1.05560976660992e-09
9.96293338394404e-10
9.57642622619447e-10
9.26496360101229e-10
9.21487830336326e-10
9.43952543441555e-10
9.98974934495102e-10
1.09998936906464e-09
1.26968792754989e-09
1.54185248084148e-09
2.00079171810625e-09
2.76877722052741e-09
3.99562693687089e-09
5.27166823844093e-09
6.48093838876702e-09
7.43579440298381e-09
7.32164543718579e-09
6.36749072420477e-09
5.07557123788634e-09
3.86521461330352e-09
2.93558445327926e-09
2.3054444065147e-09
1.9037944776137e-09
1.65572145577585e-09
1.50144546095908e-09
1.40864700602219e-09
1.35379191479301e-09
1.32654001074832e-09
1.31175724017361e-09
1.30607201233812e-09
1.30686009397624e-09
1.31095092904411e-09
1.31640552500778e-09
1.32197083798438e-09
1.32661871595697e-09
1.3287305126422e-09
1.328329450568e-09
1.32591166610992e-09
1.32135013480741e-09
1.3146089660603e-09
1.30571950776737e-09
1.29476099322284e-09
1.28184585273176e-09
1.26710971034409e-09
1.25070356073518e-09
1.23278768757852e-09
1.21352685384524e-09
1.19308650240237e-09
1.17162976361079e-09
1.14931512112135e-09
1.12629461634652e-09
1.10271248570505e-09
1.07870413816417e-09
1.05439503228701e-09
1.02989916781791e-09
1.00530830444897e-09
9.80710264886947e-10
9.56198673956931e-10
9.31857351414655e-10
9.07760959245809e-10
8.83974584952727e-10
8.60554311324004e-10
8.37547763736909e-10
8.14994733366575e-10
7.92927803581358e-10
7.71372986190321e-10
7.50350334997013e-10
7.29874648990372e-10
7.09956003266692e-10
6.90602267043974e-10
6.71813708881382e-10
6.53585257055e-10
6.35913146901583e-10
6.1879352055299e-10
6.02217909532921e-10
5.8617629904733e-10
5.70657177063778e-10
5.55647978138966e-10
5.41135330366516e-10
5.27105338976423e-10
5.13543991854852e-10
5.00437394990602e-10
4.8777143789775e-10
4.7553143305172e-10
4.63698731766714e-10
4.52245213060514e-10
4.41148022874402e-10
4.30395258615399e-10
4.19975947447124e-10
4.09880227661627e-10
4.00098803770446e-10
3.90623019437866e-10
3.81444892340697e-10
3.72557202267922e-10
3.63953501547107e-10
3.55628276427176e-10
3.47520772621953e-10
3.39100787305626e-10
3.30898920878177e-10
3.22881919330392e-10
3.15061159942664e-10
3.07450896124004e-10
3.00067060022962e-10
2.92499529444893e-10
2.84286018481394e-10
2.76245418483765e-10
2.68432971373864e-10
2.59742948562255e-10
2.50278446086211e-10
2.4085391837836e-10
2.28802522322089e-10
2.15312291080406e-10
1.98248910300478e-10
1.73896834815744e-10
)
;

boundaryField
{
    electrode
    {
        type            zeroGradient;
    }
    ground
    {
        type            zeroGradient;
    }
    otherfaces
    {
        type            empty;
    }
}


// ************************************************************************* //
