/*--------------------------------*- C++ -*----------------------------------*\
| =========                 |                                                 |
| \\      /  F ield         | foam-extend: Open Source CFD                    |
|  \\    /   O peration     | Version:     4.0                                |
|   \\  /    A nd           | Web:         http://www.foam-extend.org         |
|    \\/     M anipulation  |                                                 |
\*---------------------------------------------------------------------------*/
FoamFile
{
    version     2.0;
    format      ascii;
    class       volScalarField;
    location    "6e-06";
    object      Te;
}
// * * * * * * * * * * * * * * * * * * * * * * * * * * * * * * * * * * * * * //

dimensions      [0 0 0 1 0 0 0];

internalField   nonuniform List<scalar> 
300
(
40240.7477027804
40241.0461111113
40241.2280945218
40241.3388509596
40241.5124919954
40241.7233516587
40241.9748488497
40242.2687587038
40242.6043438545
40242.9817587169
40243.4010140322
40243.8620996506
40244.3650313135
40244.9098251326
40245.4965032373
40246.1250939344
40246.7956312348
40247.5081550499
40248.2627112031
40249.0593514577
40249.8981335566
40250.7791212639
40251.7023844096
40252.6679989387
40253.6760469637
40254.7266168225
40255.8198031362
40256.9557068751
40258.1344354286
40259.3561026738
40260.6208290569
40261.9287416733
40263.2799743525
40264.6746677493
40266.1129694381
40267.5950340149
40269.1210231996
40270.6911059468
40272.305458564
40273.9642648281
40275.6677161105
40277.4160115152
40279.209358011
40281.0479705758
40282.9320723498
40284.8618947891
40286.8376778286
40288.8596700545
40290.9281288794
40293.0433207281
40295.2055212307
40297.4150154228
40299.6720979534
40301.9770733086
40304.3302560488
40306.7319710216
40309.1825535303
40311.6823495429
40314.2317162666
40316.8310232946
40319.480652909
40322.1809960544
40324.9324448244
40327.7353989301
40330.5903157961
40333.4977825694
40336.4584237155
40339.4726857771
40342.5409029302
40345.6634939501
40348.8409716702
40352.0738813223
40355.3627894124
40358.7082809294
40362.1109588917
40365.5714446423
40369.0903783753
40372.6684197437
40376.3062485065
40380.0045652085
40383.7640918953
40387.5855728599
40391.4697754161
40395.4174907189
40399.4295346175
40403.5067485445
40407.6500004567
40411.8601858149
40416.1382286108
40420.4850824493
40424.9017316805
40429.3891925895
40433.948514649
40438.580781833
40443.2871140008
40448.068668356
40452.9266409781
40457.86226844
40462.8768295158
40467.9716469778
40473.1480894967
40478.4075736512
40483.7515660496
40489.1815855742
40494.699205761
40500.3060573198
40506.0038308028
40511.7942794411
40517.6792221557
40523.6605467557
40529.7402133418
40535.920257928
40542.2027963014
40548.5900281413
40555.084241412
40561.6878170567
40568.4032340213
40575.2330746286
40582.1800303375
40589.2469079268
40596.4366361334
40603.752272786
40611.1970124928
40618.7741949191
40626.4873137259
40634.3400262269
40642.3361638359
40650.4797433881
40658.7749794239
40667.2262975387
40675.8383489079
40684.6160261274
40693.5644805
40702.6891409477
40711.9957347392
40721.4903102438
40731.1792619086
40741.0693577878
40751.1677703003
40761.4821095555
40772.0204597899
40782.7914235711
40793.8041692008
40805.0684683571
40816.5947661221
40828.3943029633
40840.4790464558
40852.8617637221
40865.5569008107
40878.5802925307
40891.9479456746
40905.6767912005
40919.7857820324
40934.2957059234
40949.2293461159
40964.6116167645
40980.46983226
40996.8343360052
41013.7379833021
41031.2191024908
41049.3168513004
41068.0851470665
41087.576584805
41107.8978234006
41129.2832893375
41151.7978377262
41175.2978636341
41199.8200436921
41225.5763024671
41252.8241700324
41281.7624609593
41312.5404238967
41345.2788193181
41379.744245665
41416.0374863439
41455.0553450987
41496.9867253846
41541.3641638918
41588.9668396597
41640.6174608229
41696.3424881157
41757.6621546326
41826.4202520542
41904.1897174409
41994.9359772394
42103.8813576729
42237.0612699513
42404.5963285317
42620.5041971177
42902.4750709695
43276.0052191516
43776.9718399416
44458.4677783713
45390.8837972649
46660.2301563225
48423.9931175091
50907.0424932252
54447.1359067582
59460.0867513238
65825.0823266012
74587.9007214256
88085.0144684702
106325.949528956
131523.196635346
166137.09455893
211779.031688017
267838.391054882
330870.026748386
396062.515155328
459171.458479976
517402.020726292
569508.351031785
615326.890241913
655284.24300028
690041.119746192
720259.265330837
746678.590897581
769956.088869126
790615.697046736
809085.97926822
825701.633671571
840735.441424563
854442.90399327
867031.32165979
878668.085226656
889491.155116969
899614.790215045
909133.662589637
918126.120284732
926657.101331329
934780.304078534
942539.951915677
949972.212695381
957106.354380469
963965.692150356
970568.36854742
976928.0039325
983054.240828957
988953.256846003
994628.212021294
1000080.72853713
1005304.99559794
1010294.12140484
1015044.36986884
1019547.48142641
1023793.65223246
1027771.36938435
1031467.73952297
1034868.61355927
1037958.72799564
1040721.82191763
1043140.74937952
1045197.55477928
1046873.60764479
1048149.20641131
1049004.50196613
1049410.08246166
1049366.21664855
1048839.98741505
1047811.1360666
1046257.15067893
1044156.00604063
1041485.25857788
1038222.2021094
1034343.7886227
1029826.57718723
1024646.79434281
1018780.45259855
1012203.17154474
1004891.09258344
996821.143585839
987964.481932953
978293.690824211
967784.732859551
956408.721867009
944135.715731971
930934.085020542
916770.558873511
901609.964721949
885415.006911283
868145.875931537
849760.540419608
830212.972823685
809465.906730504
787462.42694212
764138.944761953
739439.561538456
713284.499801455
685589.212249257
656269.087803738
625213.790837147
592291.176445409
557365.554950255
520248.129140106
480707.846568061
438458.945990334
393103.16474286
344079.568768709
290572.91586932
231514.945220088
)
;

boundaryField
{
    electrode
    {
        type            electronTemperature;
        seec            0.05;
        Tse             1000;
        Edepend         1;
        TFN             1000;
        field_emission  0;
        field_enhancement_factor 55;
        work_function   5;
        value           uniform 40240.7477027804;
    }
    ground
    {
        type            electronTemperature;
        seec            0.05;
        Tse             1000;
        Edepend         1;
        TFN             1000;
        field_emission  0;
        field_enhancement_factor 55;
        work_function   5;
        value           uniform 198017.035054947;
    }
    otherfaces
    {
        type            empty;
    }
}


// ************************************************************************* //
