/*--------------------------------*- C++ -*----------------------------------*\
| =========                 |                                                 |
| \\      /  F ield         | foam-extend: Open Source CFD                    |
|  \\    /   O peration     | Version:     4.0                                |
|   \\  /    A nd           | Web:         http://www.foam-extend.org         |
|    \\/     M anipulation  |                                                 |
\*---------------------------------------------------------------------------*/
FoamFile
{
    version     2.0;
    format      ascii;
    class       volScalarField;
    location    "6e-06";
    object      TeMean;
}
// * * * * * * * * * * * * * * * * * * * * * * * * * * * * * * * * * * * * * //

dimensions      [0 0 0 1 0 0 0];

internalField   nonuniform List<scalar> 
300
(
34927.6866701973
34927.9791632657
34928.10310058
34928.0918012669
34928.0958593007
34928.0949971201
34928.0920659158
34928.0899475867
34928.0887291978
34928.0891006773
34928.0916642711
34928.0969874198
34928.105628263
34928.1181107697
34928.1349426333
34928.1566137262
34928.1835946958
34928.2163420431
34928.2552976317
34928.300888492
34928.3535297893
34928.4136225807
34928.4815563691
34928.5577083339
34928.6424428993
34928.7361234708
34928.8391046547
34928.9517294433
34929.074338383
34929.2072571898
34929.3507953829
34929.5052724371
34929.6710151829
34929.8483369091
34930.037543349
34930.2389284106
34930.4527827508
34930.679403228
34930.91908363
34931.172109883
34931.438762174
34931.7193270658
34932.0140888211
34932.3233264393
34932.6473174339
34932.9863375739
34933.3406604235
34933.7105563918
34934.0962893296
34934.4981164668
34934.9162886774
34935.3510661804
34935.8027274424
34936.2715496611
34936.7578139579
34937.2618117868
34937.783828118
34938.3241436179
34938.8830485295
34939.4608360064
34940.0578005017
34940.6742475184
34941.3104679163
34941.9667489921
34942.6434120683
34943.3407960594
34944.0592369445
34944.7990707936
34945.5606395613
34946.3442965089
34947.1503968586
34947.9792882326
34948.8313384116
34949.7069314738
34950.6064451175
34951.5302534539
34952.4787568954
34953.4523903512
34954.4515824915
34955.4767623655
34956.5283962095
34957.6069659476
34958.7129460983
34959.846812002
34961.0090504441
34962.2001841079
34963.4207671141
34964.6713557848
34965.9525113167
34967.2648208995
34968.6088745994
34969.985278004
34971.3947040884
34972.8378284283
34974.3153339627
34975.827948057
34977.3764120361
34978.9614929808
34980.5839785603
34982.2446869295
34983.9444834193
34985.6842329335
34987.464828487
34989.2872327047
34991.1524372562
34993.0614626399
34995.0153624499
34997.0152328458
34999.0622262642
35001.1575372747
35003.3024080477
35005.4981280417
35007.7460299036
35010.0475235657
35012.4040659283
35014.8171601968
35017.2883693011
35019.8193475487
35022.4118447439
35025.0676446391
35027.7886045906
35030.5766810237
35033.4339149186
35036.3624621289
35039.3646063482
35042.4427219632
35045.5992726894
35048.8368665717
35052.1582603396
35055.5663268326
35059.0640851323
35062.6547365125
35066.3416698462
35070.1284152684
35074.0186925762
35078.0165110113
35082.1261377986
35086.3520831728
35090.6991382458
35095.1724121587
35099.7773603232
35104.5198050394
35109.4059675965
35114.4424986512
35119.6365675826
35124.9959481918
35130.5290521209
35136.2450092783
35142.1536664436
35148.2657064552
35154.5928716674
35161.1480163028
35167.945260331
35175.0002662911
35182.3302975428
35189.9545704056
35197.8945360886
35206.17457991
35214.8227788285
35223.8733187072
35233.378500067
35243.4064667568
35254.0191501511
35265.2743339712
35277.228372371
35289.9381895406
35303.4947163829
35318.0304334355
35333.6901773431
35350.5939124158
35368.808070522
35388.4017920126
35409.4913190266
35432.1302710907
35456.3978100309
35482.5166242701
35510.5783094718
35540.8170478552
35574.0512780921
35611.3470353831
35654.4494531328
35706.6872696336
35772.9713860678
35860.6798966984
35981.4572711279
36152.2450039536
36397.692654343
36754.6556155414
37277.7849584412
38049.6145061853
39197.5294758152
40922.4713103525
43549.5370972056
47703.5957411218
54015.5627616683
62916.4229826322
75865.6581804615
93558.7338309925
117288.079965558
147507.14483483
184252.961562727
226435.559697636
272749.226273026
321859.802471665
372472.165728328
423301.953121037
472943.198229464
519973.544608076
563307.738611554
602386.286644445
637124.513880786
667759.182013316
694717.695458061
718495.283347776
739549.581006075
758305.326794302
775147.737540625
790395.990994856
804308.377845075
817097.366755128
828932.852054206
839954.158008767
850285.439064535
860029.380751643
869269.497266634
878074.252672712
886500.012035566
894592.898346367
902390.405285827
909922.773918626
917214.056363481
924282.992944914
931143.728810321
937806.327931597
944277.315032275
950560.159404404
956655.568069288
962561.806157566
968274.966857281
973789.193397953
979097.044565463
984189.265384103
989054.870596328
993682.024455545
998058.054754631
1002169.39132224
1006001.37419387
1009538.59482885
1012765.12971056
1015664.23017345
1018219.13277102
1020412.86884689
1022227.80713473
1023646.00039929
1024648.99980715
1025217.99222413
1025329.94640486
1024973.39722203
1024130.73145723
1022779.37717996
1020899.87814763
1018472.52815328
1015477.64600625
1011895.34869109
1007705.52403092
1002888.18819304
997422.642925578
991287.612338154
984462.186171226
976924.938438362
968653.159334757
959623.647424552
949813.160072292
939197.020358787
927749.129810447
915442.08335591
902247.03780292
888133.522629931
873069.268736867
857019.925941566
839948.976141185
821817.440982987
802588.166299401
782216.509017188
760648.722920739
737831.929774476
713704.09161431
688190.668872417
661218.160862513
632700.196885463
602529.114882677
570584.535362971
536730.152881047
500784.467360229
462528.385527484
421684.95684946
377863.537497336
330528.601889326
278897.56994814
221937.18250211
)
;

boundaryField
{
    electrode
    {
        type            calculated;
        value           uniform 34927.6866701993;
    }
    ground
    {
        type            calculated;
        value           uniform 189636.407019043;
    }
    otherfaces
    {
        type            empty;
    }
}


// ************************************************************************* //
