/*--------------------------------*- C++ -*----------------------------------*\
| =========                 |                                                 |
| \\      /  F ield         | foam-extend: Open Source CFD                    |
|  \\    /   O peration     | Version:     4.0                                |
|   \\  /    A nd           | Web:         http://www.foam-extend.org         |
|    \\/     M anipulation  |                                                 |
\*---------------------------------------------------------------------------*/
FoamFile
{
    version     2.0;
    format      ascii;
    class       volScalarField;
    location    "5.2e-06";
    object      Ar;
}
// * * * * * * * * * * * * * * * * * * * * * * * * * * * * * * * * * * * * * //

dimensions      [0 0 0 1 0 0 0];

internalField   nonuniform List<scalar> 
300
(
3.21880303701371e+22
3.21880303276842e+22
3.21880303552358e+22
3.21880303656458e+22
3.21880303837274e+22
3.21880304089452e+22
3.21880304397152e+22
3.21880304766556e+22
3.2188030519646e+22
3.21880305686523e+22
3.21880306236758e+22
3.21880306847022e+22
3.21880307517233e+22
3.21880308247325e+22
3.21880309037242e+22
3.2188030988694e+22
3.21880310796415e+22
3.21880311765628e+22
3.21880312794543e+22
3.21880313883147e+22
3.21880315031432e+22
3.21880316239396e+22
3.21880317507041e+22
3.21880318834376e+22
3.21880320221574e+22
3.21880321668527e+22
3.21880323175273e+22
3.21880324741869e+22
3.2188032636826e+22
3.21880328054483e+22
3.21880329800768e+22
3.21880331607093e+22
3.2188033347338e+22
3.21880335399678e+22
3.21880337386048e+22
3.21880339432557e+22
3.21880341539324e+22
3.21880343706411e+22
3.21880345933882e+22
3.2188034822184e+22
3.21880350570396e+22
3.21880352979648e+22
3.21880355449718e+22
3.21880357980733e+22
3.21880360572836e+22
3.21880363226184e+22
3.21880365940965e+22
3.21880368717337e+22
3.21880371555483e+22
3.21880374455679e+22
3.21880377418409e+22
3.21880380443793e+22
3.21880383532155e+22
3.218803866836e+22
3.21880389898333e+22
3.21880393176489e+22
3.21880396518337e+22
3.2188039992416e+22
3.2188040339425e+22
3.2188040692893e+22
3.21880410528491e+22
3.21880414193252e+22
3.21880417923597e+22
3.21880421720062e+22
3.21880425582973e+22
3.21880429512446e+22
3.2188043350884e+22
3.21880437572523e+22
3.21880441703876e+22
3.21880445903284e+22
3.21880450171166e+22
3.21880454508009e+22
3.21880458914249e+22
3.21880463390241e+22
3.21880467936554e+22
3.21880472553617e+22
3.21880477241812e+22
3.21880482001631e+22
3.21880486833328e+22
3.21880491737668e+22
3.21880496714769e+22
3.21880501765076e+22
3.21880506889089e+22
3.21880512087257e+22
3.21880517360204e+22
3.21880522708327e+22
3.21880528131986e+22
3.21880533631656e+22
3.21880539207932e+22
3.21880544861214e+22
3.21880550592038e+22
3.21880556401328e+22
3.21880562289002e+22
3.21880568255513e+22
3.21880574301325e+22
3.21880580426898e+22
3.21880586632692e+22
3.21880592919159e+22
3.21880599286854e+22
3.21880605736215e+22
3.21880612267609e+22
3.21880618881445e+22
3.21880625578454e+22
3.21880632358747e+22
3.21880639222811e+22
3.21880646171123e+22
3.21880653203903e+22
3.2188066032171e+22
3.21880667524786e+22
3.21880674813412e+22
3.21880682187928e+22
3.21880689648665e+22
3.21880697195993e+22
3.21880704830213e+22
3.21880712551609e+22
3.21880720360604e+22
3.21880728257618e+22
3.21880736242617e+22
3.21880744315789e+22
3.21880752477394e+22
3.21880760727859e+22
3.21880769067199e+22
3.21880777495829e+22
3.21880786013755e+22
3.21880794620952e+22
3.21880803317515e+22
3.21880812103778e+22
3.21880820979604e+22
3.21880829945117e+22
3.21880839000337e+22
3.21880848145402e+22
3.21880857380315e+22
3.2188086670507e+22
3.21880876119858e+22
3.21880885624954e+22
3.21880895220062e+22
3.21880904905022e+22
3.21880914679942e+22
3.21880924544845e+22
3.21880934499505e+22
3.21880944543845e+22
3.21880954677756e+22
3.2188096490161e+22
3.21880975215449e+22
3.21880985618347e+22
3.2188099611057e+22
3.21881006692128e+22
3.21881017362872e+22
3.21881028122827e+22
3.2188103897214e+22
3.21881049910353e+22
3.21881060937305e+22
3.21881072053019e+22
3.21881083257362e+22
3.21881094549005e+22
3.21881105929126e+22
3.21881117395458e+22
3.21881128948295e+22
3.21881140587524e+22
3.21881152304838e+22
3.21881164120123e+22
3.21881175982913e+22
3.2188118798586e+22
3.21881199994828e+22
3.21881211942744e+22
3.21881224043846e+22
3.2188123624632e+22
3.21881248516086e+22
3.21881260849878e+22
3.21881273130866e+22
3.21881285494813e+22
3.21881297768573e+22
3.21881310038332e+22
3.21881322598395e+22
3.21881335015762e+22
3.21881347082414e+22
3.21881359297423e+22
3.2188137154237e+22
3.21881383177589e+22
3.21881394704546e+22
3.21881406231323e+22
3.21881416835246e+22
3.21881427286146e+22
3.21881437295053e+22
3.21881446432639e+22
3.21881454902917e+22
3.21881463116065e+22
3.21881470038709e+22
3.21881476336855e+22
3.21881482186469e+22
3.21881487241854e+22
3.21881491296178e+22
3.21881494872717e+22
3.21881498050731e+22
3.21881500353353e+22
3.21881501646327e+22
3.21881502374179e+22
3.21881502920319e+22
3.21881503518762e+22
3.21881503816791e+22
3.21881503888976e+22
3.21881503999184e+22
3.21881503975678e+22
3.2188150440309e+22
3.21881504950108e+22
3.21881505635592e+22
3.21881506329619e+22
3.21881506977767e+22
3.218815075585e+22
3.21881508081563e+22
3.21881508541541e+22
3.21881508952276e+22
3.2188150938477e+22
3.21881509936205e+22
3.21881510432829e+22
3.2188151089931e+22
3.21881511316412e+22
3.21881511712259e+22
3.21881512065384e+22
3.21881512404462e+22
3.21881512705602e+22
3.21881512999022e+22
3.21881513259878e+22
3.21881513518116e+22
3.21881513773817e+22
3.21881514153098e+22
3.21881514495297e+22
3.2188151484253e+22
3.21881515154267e+22
3.21881515473375e+22
3.21881515758254e+22
3.2188151605289e+22
3.21881516313302e+22
3.21881516585589e+22
3.21881516823269e+22
3.21881517074232e+22
3.21881517290395e+22
3.21881517521545e+22
3.21881517717522e+22
3.21881517930606e+22
3.21881518108208e+22
3.21881518308166e+22
3.2188151856887e+22
3.21881518847158e+22
3.218815190906e+22
3.2188151935275e+22
3.21881519579429e+22
3.21881519826393e+22
3.21881520037304e+22
3.21881520270007e+22
3.2188152046593e+22
3.21881520685092e+22
3.21881520866958e+22
3.2188152107353e+22
3.21881521242215e+22
3.21881521436995e+22
3.21881521593236e+22
3.21881521776792e+22
3.21881521921139e+22
3.21881522093836e+22
3.21881522226802e+22
3.2188152238922e+22
3.21881522511505e+22
3.21881522664336e+22
3.21881522776611e+22
3.21881522920559e+22
3.21881523072164e+22
3.21881523270339e+22
3.21881523428034e+22
3.21881523617989e+22
3.2188152376689e+22
3.21881523949254e+22
3.21881524090034e+22
3.21881524265448e+22
3.21881524398695e+22
3.21881524567651e+22
3.21881524693727e+22
3.21881524856344e+22
3.21881524975288e+22
3.21881525131696e+22
3.2188152524366e+22
3.21881525394563e+22
3.21881525501831e+22
3.21881525649428e+22
3.2188152575094e+22
3.21881525893723e+22
3.21881525989394e+22
3.21881526127605e+22
3.2188152621761e+22
3.2188152635478e+22
3.21881526443439e+22
3.21881526577301e+22
3.21881526660548e+22
3.21881526794803e+22
3.21881526878339e+22
3.21881527011362e+22
3.21881527096635e+22
3.2188152723507e+22
3.21881527326615e+22
3.21881527503108e+22
)
;

boundaryField
{
    electrode
    {
        type            zeroGradient;
    }
    ground
    {
        type            zeroGradient;
    }
    otherfaces
    {
        type            empty;
    }
}


// ************************************************************************* //
