/*--------------------------------*- C++ -*----------------------------------*\
| =========                 |                                                 |
| \\      /  F ield         | foam-extend: Open Source CFD                    |
|  \\    /   O peration     | Version:     4.0                                |
|   \\  /    A nd           | Web:         http://www.foam-extend.org         |
|    \\/     M anipulation  |                                                 |
\*---------------------------------------------------------------------------*/
FoamFile
{
    version     2.0;
    format      ascii;
    class       volScalarField;
    location    "5.2e-06";
    object      Arm;
}
// * * * * * * * * * * * * * * * * * * * * * * * * * * * * * * * * * * * * * //

dimensions      [0 0 0 1 0 0 0];

internalField   nonuniform List<scalar> 
300
(
3.57413386517057e+15
3.57601043939262e+15
3.57795896139143e+15
3.57926498971068e+15
3.58008122793904e+15
3.58045976619085e+15
3.58044481005324e+15
3.58006779941797e+15
3.5793543931411e+15
3.57832657480882e+15
3.5770001192843e+15
3.57538911261348e+15
3.57350560810627e+15
3.57136020842376e+15
3.56896237064254e+15
3.56632063924706e+15
3.56343983832534e+15
3.56032855415713e+15
3.55699512804589e+15
3.55344603963867e+15
3.54968749039378e+15
3.5457254019928e+15
3.54156546445783e+15
3.53721312339401e+15
3.53265770820518e+15
3.52791695185e+15
3.52299455902415e+15
3.51789254649742e+15
3.51262450474034e+15
3.50719531389675e+15
3.50159121966533e+15
3.49582359452462e+15
3.48991054311549e+15
3.48385744985174e+15
3.47766940099043e+15
3.47135119761704e+15
3.46490301474739e+15
3.45833136800099e+15
3.45164332596907e+15
3.44484242443302e+15
3.43793216723473e+15
3.43091783027063e+15
3.42380329456959e+15
3.4165922517092e+15
3.40928820187552e+15
3.40189440856387e+15
3.39441181669593e+15
3.38684187356589e+15
3.37917681729242e+15
3.37141523610145e+15
3.36354453020477e+15
3.35557720071444e+15
3.3475078581331e+15
3.33935421849467e+15
3.33112441683389e+15
3.32283482211367e+15
3.31448873644556e+15
3.30608907598233e+15
3.29763841261086e+15
3.28913716484753e+15
3.28058964757773e+15
3.27199797164545e+15
3.26335879127986e+15
3.25465414646424e+15
3.24588801544725e+15
3.23708598052926e+15
3.22825013693186e+15
3.21938232439472e+15
3.210484128752e+15
3.20155690939745e+15
3.19259982049133e+15
3.1836057116457e+15
3.17457304619725e+15
3.16550926811519e+15
3.15640083705568e+15
3.14724881120288e+15
3.13805953314166e+15
3.12882887474394e+15
3.11957681169312e+15
3.11027278977177e+15
3.10095139073295e+15
3.09161474224672e+15
3.08225976073822e+15
3.07288870562263e+15
3.06348675928991e+15
3.05406166270192e+15
3.0446251207174e+15
3.03517745361906e+15
3.02570675234521e+15
3.01622076965885e+15
3.00671348957533e+15
2.99713986339078e+15
2.98755515717259e+15
2.97796101160669e+15
2.96835745570845e+15
2.95874451559803e+15
2.94912197297372e+15
2.93948939479116e+15
2.92983584579774e+15
2.9201612647395e+15
2.9104719143324e+15
2.90076907329198e+15
2.89102097994064e+15
2.881256857687e+15
2.87146748857424e+15
2.86164352834789e+15
2.85179999817894e+15
2.84191728707401e+15
2.83200581821285e+15
2.82207104320426e+15
2.81211109218344e+15
2.80212367847639e+15
2.79210106190755e+15
2.78204103005209e+15
2.77194136177393e+15
2.76178440534368e+15
2.75155127560361e+15
2.74126677024092e+15
2.73093176309796e+15
2.72053817413406e+15
2.71005961666924e+15
2.69950905043387e+15
2.68885748944023e+15
2.67811532672133e+15
2.66729399279024e+15
2.65639128648482e+15
2.64537909864041e+15
2.6342748619506e+15
2.6230677498994e+15
2.61175572069654e+15
2.60032313191058e+15
2.58876611314636e+15
2.57707966583894e+15
2.56523770332628e+15
2.55320376385764e+15
2.54099670023867e+15
2.52862043532793e+15
2.51604992715819e+15
2.50326631816787e+15
2.49027872763217e+15
2.47707116949458e+15
2.46362698810315e+15
2.44991403887704e+15
2.43590022339252e+15
2.42156093012512e+15
2.40691595636571e+15
2.39195043597788e+15
2.3766480046103e+15
2.36097812479333e+15
2.34489190933491e+15
2.3284017842886e+15
2.31148300143565e+15
2.29407329656408e+15
2.27617147904224e+15
2.25775929193603e+15
2.23878700734801e+15
2.21921137607774e+15
2.19903184427858e+15
2.17822926611284e+15
2.15675868267309e+15
2.13458448805072e+15
2.1116915894525e+15
2.08804173703132e+15
2.06364747150167e+15
2.03849579755179e+15
2.01253215011424e+15
1.98577734853384e+15
1.95827596028088e+15
1.9300569541861e+15
1.90116230006322e+15
1.87166059766382e+15
1.84158517730667e+15
1.81102842266872e+15
1.78016184321064e+15
1.74917938518251e+15
1.71825089782788e+15
1.68755556716787e+15
1.65729239363345e+15
1.62770017454657e+15
1.59893448283281e+15
1.57114959668907e+15
1.5444925578625e+15
1.51904472538623e+15
1.49492088400935e+15
1.47212089291792e+15
1.45055452579209e+15
1.43026156708619e+15
1.41119136157525e+15
1.39325778272364e+15
1.37637940115752e+15
1.36046011122782e+15
1.34554456029793e+15
1.3321004459752e+15
1.32512660178098e+15
1.35069431005621e+15
1.41553286409404e+15
1.49217683513852e+15
1.54870142116894e+15
1.58513212118465e+15
1.60660523132106e+15
1.61180114176392e+15
1.59763430714997e+15
1.56982005682564e+15
1.53613386050591e+15
1.50383345671394e+15
1.47729256473172e+15
1.45673441619104e+15
1.44194349639189e+15
1.43170476923184e+15
1.42455121999371e+15
1.41915820952607e+15
1.41476626085469e+15
1.41126728037113e+15
1.40790200006353e+15
1.4045195281927e+15
1.40120569439552e+15
1.39776327001452e+15
1.39410823939693e+15
1.39015564271313e+15
1.38586201116528e+15
1.38121403396792e+15
1.37611470914077e+15
1.37046832876531e+15
1.36431022895976e+15
1.3577320800135e+15
1.35089608546896e+15
1.34384514691167e+15
1.33660098351248e+15
1.32920039683247e+15
1.32168544438847e+15
1.31407476976863e+15
1.3064018618656e+15
1.29870391128764e+15
1.29100006073509e+15
1.28331153975396e+15
1.2756747487162e+15
1.2680916069935e+15
1.26059697525124e+15
1.25319354257987e+15
1.24590390042007e+15
1.2387388148879e+15
1.23169923343499e+15
1.22480705941098e+15
1.21805380936301e+15
1.21145003284484e+15
1.2050144923242e+15
1.19873562171672e+15
1.19262239613438e+15
1.18667781055512e+15
1.18089375012692e+15
1.17527673053041e+15
1.16982188157962e+15
1.1645253268002e+15
1.15939100339847e+15
1.15441091572346e+15
1.14958296694644e+15
1.14490555227951e+15
1.14036312383905e+15
1.13596416225605e+15
1.1317007550424e+15
1.12757837127405e+15
1.12358409969471e+15
1.11972044519335e+15
1.115978836451e+15
1.11235669847213e+15
1.10884997380124e+15
1.10545072782022e+15
1.1021555171676e+15
1.09895343971187e+15
1.09585007899014e+15
1.09283748376799e+15
1.08992100774193e+15
1.087087660286e+15
1.08434323232281e+15
1.08167566253061e+15
1.07908349561636e+15
1.07656497436602e+15
1.07412004957269e+15
1.07175062130991e+15
1.06945021882139e+15
1.06721756008952e+15
1.06501220194902e+15
1.06270257588202e+15
1.06040483403561e+15
1.05816371861034e+15
1.05596969834442e+15
1.05383083652686e+15
1.05174868658929e+15
1.04971286071316e+15
1.04740424229238e+15
1.04506336515606e+15
1.04278082680002e+15
1.04055981017755e+15
1.03793334380324e+15
1.03529855664454e+15
1.03252954766569e+15
1.0293791037878e+15
1.02586484357694e+15
1.0218303995612e+15
1.01693846017292e+15
)
;

boundaryField
{
    electrode
    {
        type            zeroGradient;
    }
    ground
    {
        type            zeroGradient;
    }
    otherfaces
    {
        type            empty;
    }
}


// ************************************************************************* //
