/*--------------------------------*- C++ -*----------------------------------*\
| =========                 |                                                 |
| \\      /  F ield         | foam-extend: Open Source CFD                    |
|  \\    /   O peration     | Version:     4.0                                |
|   \\  /    A nd           | Web:         http://www.foam-extend.org         |
|    \\/     M anipulation  |                                                 |
\*---------------------------------------------------------------------------*/
FoamFile
{
    version     2.0;
    format      ascii;
    class       volScalarField;
    location    "5.2e-06";
    object      Arp1;
}
// * * * * * * * * * * * * * * * * * * * * * * * * * * * * * * * * * * * * * //

dimensions      [0 0 0 1 0 0 0];

internalField   nonuniform List<scalar> 
300
(
6.15117390668755e+16
6.1553831274117e+16
6.15283527613745e+16
6.15235432836848e+16
6.15143785535255e+16
6.15013644318914e+16
6.14860453707348e+16
6.14677715143237e+16
6.14466395060173e+16
6.14226632832538e+16
6.13958271852119e+16
6.13661331892803e+16
6.13335793279154e+16
6.12981634961055e+16
6.12598838289475e+16
6.12187382458411e+16
6.11747245730565e+16
6.11278405278028e+16
6.10780837047237e+16
6.10254515721622e+16
6.09699414637778e+16
6.09115505712697e+16
6.08502759363888e+16
6.0786114442381e+16
6.07190628057866e+16
6.06491175678319e+16
6.0576275084936e+16
6.05005315200422e+16
6.04218828332844e+16
6.03403247722062e+16
6.0255852862286e+16
6.01684623975123e+16
6.00781484300437e+16
5.99849057605885e+16
5.98887289298843e+16
5.97896122072685e+16
5.96875495803638e+16
5.95825347473039e+16
5.94745610983089e+16
5.93636217115945e+16
5.92497093612839e+16
5.91328165378494e+16
5.90129354425817e+16
5.88900578616815e+16
5.87641748509879e+16
5.86352764019351e+16
5.85033521394129e+16
5.83683946554263e+16
5.82304039840116e+16
5.8089365559995e+16
5.79452565518673e+16
5.77980657390884e+16
5.76477799373538e+16
5.74943852566306e+16
5.73378673764783e+16
5.71782115907756e+16
5.7015402820283e+16
5.68494256125012e+16
5.66802641388145e+16
5.65079021905454e+16
5.63323231767531e+16
5.61535101229443e+16
5.59714456702503e+16
5.57861120766546e+16
5.55974912192158e+16
5.54055645968567e+16
5.52103133351945e+16
5.50117181923182e+16
5.48097595652136e+16
5.46044174980943e+16
5.4395671691823e+16
5.41835015138694e+16
5.39678860102199e+16
5.37488039182968e+16
5.35262336803957e+16
5.33001534592021e+16
5.30705411540138e+16
5.2837374417822e+16
5.2600630675903e+16
5.23602871456496e+16
5.21163208568791e+16
5.18687086735614e+16
5.16174273168959e+16
5.13624533886613e+16
5.11037633960147e+16
5.08413337774303e+16
5.05751409288959e+16
5.03051612314814e+16
5.0031371079816e+16
4.9753746910788e+16
4.94722652335119e+16
4.91869026599626e+16
4.88976359359518e+16
4.86044419727137e+16
4.83072978795876e+16
4.80061809963687e+16
4.77010689265738e+16
4.73919395711595e+16
4.70787711619968e+16
4.67615422960018e+16
4.64402319695138e+16
4.61148196123165e+16
4.57852851218195e+16
4.5451608897634e+16
4.51137718753774e+16
4.47717555604668e+16
4.44255420620441e+16
4.40751141260274e+16
4.37204551678129e+16
4.33615493050355e+16
4.29983813891092e+16
4.26309370363904e+16
4.22592026590883e+16
4.1883165494882e+16
4.15028136359945e+16
4.11181360578696e+16
4.07291226465171e+16
4.03357642252441e+16
3.99380525809547e+16
3.95359804890561e+16
3.91295417381586e+16
3.87187311540423e+16
3.83035446228194e+16
3.78839791139351e+16
3.74600327032324e+16
3.70317045949653e+16
3.65989951455864e+16
3.61619058883978e+16
3.57204395499256e+16
3.52746001025878e+16
3.48243927351054e+16
3.43698239812664e+16
3.39109016294208e+16
3.34476348761225e+16
3.29800343215013e+16
3.25081120635e+16
3.20318814207965e+16
3.15513579059772e+16
3.10665592333177e+16
3.05775002206614e+16
3.00842058893601e+16
2.95867059072999e+16
2.90849975540278e+16
2.8579111502429e+16
2.80691695825363e+16
2.75551327826274e+16
2.70370249207406e+16
2.65148891306893e+16
2.59887666621868e+16
2.54587070095628e+16
2.49247606973295e+16
2.43869881007157e+16
2.38454714906195e+16
2.33002500678504e+16
2.27515033016101e+16
2.21991945687055e+16
2.16436287428806e+16
2.10848163479636e+16
2.05228301927907e+16
1.99585944779014e+16
1.93902064336864e+16
1.88227903719766e+16
1.82471921452352e+16
1.76769264682383e+16
1.71190430084753e+16
1.65527104732083e+16
1.5983576899046e+16
1.54153559086305e+16
1.48486328252793e+16
1.42953665696722e+16
1.37422757772773e+16
1.32069730926886e+16
1.26809662797926e+16
1.21344352534016e+16
1.16096438902397e+16
1.11260268140059e+16
1.06318441389496e+16
1.01361410605559e+16
9.69916871331596e+15
9.26649126639227e+15
8.82207843286023e+15
8.45217245635553e+15
8.0734308720651e+15
7.7080425882649e+15
7.39242650664958e+15
7.10041085320076e+15
6.78599667671439e+15
6.54893037164713e+15
6.32075880712904e+15
6.08375551380218e+15
5.87403712937916e+15
5.71525279640709e+15
5.55899364475885e+15
5.39763737377373e+15
5.25821304137146e+15
5.15301824063491e+15
5.07053257361757e+15
5.00926692561428e+15
4.95125115144145e+15
4.92844673695552e+15
4.9362750224164e+15
4.95408168925983e+15
4.99460016819721e+15
4.99235829424174e+15
4.97409103744548e+15
4.93443473438129e+15
4.88688959193449e+15
4.83758671826985e+15
4.79016145017115e+15
4.74524705849492e+15
4.70478355747105e+15
4.66818637494665e+15
4.62848591365666e+15
4.5767364418081e+15
4.53047181357572e+15
4.48714493939478e+15
4.44887978717116e+15
4.41295045125222e+15
4.38158988810962e+15
4.35197520356195e+15
4.326509344281e+15
4.30226800172334e+15
4.28183163129791e+15
4.26217054667109e+15
4.24318501036691e+15
4.21210105391981e+15
4.18494188114264e+15
4.15747427560017e+15
4.13371415836526e+15
4.10933269481967e+15
4.08847119414488e+15
4.06669739447384e+15
4.04837192449737e+15
4.02886578281184e+15
4.0128057100868e+15
3.99536618503168e+15
3.98135354504484e+15
3.96575406430765e+15
3.9535808295683e+15
3.93958336999792e+15
3.92900948260424e+15
3.91607453844705e+15
3.89691742022971e+15
3.87586283868709e+15
3.85814323164495e+15
3.83838421917481e+15
3.82201543438756e+15
3.80345200287728e+15
3.78832488504106e+15
3.77085762790404e+15
3.7569008756485e+15
3.74045758190567e+15
3.72758508959295e+15
3.71207927795919e+15
3.70020741008464e+15
3.68557344814454e+15
3.67464231422346e+15
3.66084415818625e+15
3.65082299532206e+15
3.63783077792887e+15
3.62867026686792e+15
3.61643581147819e+15
3.6080837095795e+15
3.59655448246079e+15
3.58896091864416e+15
3.57808431546606e+15
3.5663341000825e+15
3.54982241918949e+15
3.53726526405568e+15
3.52138300549894e+15
3.50951504165304e+15
3.49420435608615e+15
3.48296861902559e+15
3.46818023923097e+15
3.45753139123333e+15
3.44323608708268e+15
3.43315472943449e+15
3.41934556045732e+15
3.40982778082074e+15
3.39649443218759e+15
3.38753744222735e+15
3.37465902486366e+15
3.36624811652248e+15
3.35379227444809e+15
3.34588810038499e+15
3.33380945762713e+15
3.32638674199075e+15
3.31465314908771e+15
3.30769354951983e+15
3.296290085311e+15
3.28976975442019e+15
3.27867062740736e+15
3.27257125605729e+15
3.26177629349978e+15
3.25606120656582e+15
3.24553141262282e+15
3.240157473915e+15
3.22983037491787e+15
3.22471119237122e+15
3.21195266252951e+15
)
;

boundaryField
{
    electrode
    {
        type            driftDiffusionPositiveIonDensity;
        seec            0;
        fieldName       Arp1;
        value           uniform 6.13333881953659e+16;
    }
    ground
    {
        type            driftDiffusionPositiveIonDensity;
        seec            0;
        fieldName       Arp1;
        value           uniform 3.21195266252951e+15;
    }
    otherfaces
    {
        type            empty;
    }
}


// ************************************************************************* //
