/*--------------------------------*- C++ -*----------------------------------*\
| =========                 |                                                 |
| \\      /  F ield         | foam-extend: Open Source CFD                    |
|  \\    /   O peration     | Version:     4.0                                |
|   \\  /    A nd           | Web:         http://www.foam-extend.org         |
|    \\/     M anipulation  |                                                 |
\*---------------------------------------------------------------------------*/
FoamFile
{
    version     2.0;
    format      ascii;
    class       volScalarField;
    location    "5.2e-06";
    object      electron;
}
// * * * * * * * * * * * * * * * * * * * * * * * * * * * * * * * * * * * * * //

dimensions      [0 0 0 1 0 0 0];

internalField   nonuniform List<scalar> 
300
(
6.15236044840691e+16
6.15220886686529e+16
6.15180669881143e+16
6.1511160486545e+16
6.15014273275408e+16
6.14888450312101e+16
6.14734090550759e+16
6.14551195550083e+16
6.14339744478621e+16
6.14099721954235e+16
6.13831111832144e+16
6.13533896715401e+16
6.13208058491574e+16
6.12853578093954e+16
6.12470435466066e+16
6.12058609514446e+16
6.11618078044157e+16
6.11148817696303e+16
6.10650803881022e+16
6.10124010707e+16
6.09568410907899e+16
6.08983975765569e+16
6.08370675030422e+16
6.07728476839015e+16
6.07057347629049e+16
6.06357252052019e+16
6.05628152883743e+16
6.04870010932851e+16
6.04082784947549e+16
6.03266431520956e+16
6.02420904995107e+16
6.01546157363948e+16
6.00642138175657e+16
5.99708794434498e+16
5.987460705023e+16
5.97753907999915e+16
5.96732245709268e+16
5.95681019476923e+16
5.94600162120026e+16
5.93489603334146e+16
5.92349269597519e+16
5.91179084062769e+16
5.8997896644059e+16
5.88748832922964e+16
5.87488596243049e+16
5.86198165908961e+16
5.84877448264894e+16
5.83526345315724e+16
5.82144751231834e+16
5.8073254884407e+16
5.79289610513751e+16
5.77815802089404e+16
5.76310985242084e+16
5.74775017975828e+16
5.73207754716217e+16
5.71609046279154e+16
5.69978739810751e+16
5.68316678726954e+16
5.66622702661473e+16
5.6489664742445e+16
5.6313834497261e+16
5.61347623391183e+16
5.59524306887646e+16
5.57668215797211e+16
5.557791666002e+16
5.53856971951203e+16
5.51901440719937e+16
5.49912378043937e+16
5.47889585392931e+16
5.45832860644858e+16
5.43741998173492e+16
5.41616788947632e+16
5.39457020641726e+16
5.37262477757895e+16
5.35032941759167e+16
5.32768191213816e+16
5.30468001950746e+16
5.28132147225645e+16
5.25760397897734e+16
5.23352522616919e+16
5.20908288021173e+16
5.18427458943718e+16
5.15909798629828e+16
5.13355068962961e+16
5.10763030699769e+16
5.0813344371364e+16
5.05466067246417e+16
5.02760660167714e+16
5.00016981241447e+16
4.97234789399096e+16
4.94413844019001e+16
4.91553905211276e+16
4.88654734107592e+16
4.85716093155161e+16
4.82737746414354e+16
4.79719459859095e+16
4.76661001679278e+16
4.73562142584427e+16
4.70422656107719e+16
4.67242318909492e+16
4.64020911079288e+16
4.60758216435492e+16
4.57454022821543e+16
4.54108122397651e+16
4.50720311926965e+16
4.47290393055043e+16
4.43818172581428e+16
4.40303462722156e+16
4.3674608136197e+16
4.33145852294866e+16
4.29502605451669e+16
4.25816177113321e+16
4.2208641010836e+16
4.18313153993159e+16
4.14496265213443e+16
4.10635607245463e+16
4.06731050715223e+16
4.02782473494056e+16
3.98789760768888e+16
3.94752805085339e+16
3.90671506361757e+16
3.86545771872334e+16
3.82375516197236e+16
3.78160661137622e+16
3.73901135593375e+16
3.69596875401245e+16
3.65247823130974e+16
3.60853927836773e+16
3.56415144761821e+16
3.51931434992141e+16
3.47402765057921e+16
3.42829106478386e+16
3.38210435246184e+16
3.33546731250501e+16
3.28837977630614e+16
3.24084160054748e+16
3.19285265941527e+16
3.14441283586073e+16
3.09552201120572e+16
3.04618005633356e+16
2.99638682079296e+16
2.94614211125298e+16
2.89544568748948e+16
2.84429726408663e+16
2.79269639414073e+16
2.74064233171386e+16
2.68813407418402e+16
2.63517044884367e+16
2.58175012033485e+16
2.52787157060339e+16
2.47353307505683e+16
2.41873267956306e+16
2.3634681682454e+16
2.30773704694542e+16
2.25153650278361e+16
2.19486338638291e+16
2.13771419651428e+16
2.08008500955532e+16
2.02197157424215e+16
1.96336904682534e+16
1.90427240465907e+16
1.84467537577587e+16
1.78457068884945e+16
1.72394698342395e+16
1.66277131573623e+16
1.60098988824402e+16
1.53855397151873e+16
1.4754285248407e+16
1.41158478960861e+16
1.3469909792501e+16
1.28161073586749e+16
1.21541091092601e+16
1.14836964538727e+16
1.08050872928787e+16
1.01191237444649e+16
9.42700329591683e+15
8.73037913787204e+15
8.03184910770877e+15
7.33488958953001e+15
6.64363439429824e+15
5.96315116437911e+15
5.29931798601546e+15
4.65841277969482e+15
4.04702904239405e+15
3.47168068153974e+15
2.9382286814076e+15
2.45161440586789e+15
2.01547991684817e+15
1.63176381190792e+15
1.3006777993311e+15
1.02077101327503e+15
789033180099896
601077958275341
451602626356329
335193839395983
246250000994048
179304437131910
129430088121501
91169772491120.2
62697216550592.6
42453882719158.1
27792806067797.1
17438778232648.5
10625381559061.3
6491046386903.29
4139704459566.79
2840265424555.42
2119174991996.14
1709921932160.68
1471548880765.3
1330249400852.01
1245861275143.69
1195847585577.9
1167196519912.69
1151792393720.6
1144468745857.77
1141811562584.99
1141485281765.41
1142112376767.19
1142691813243.59
1142565161264.55
1141188028292.87
1138278342571.19
1133674342270.53
1127307801168.29
1119176289770.19
1109327029764.17
1097842019031.22
1084827069171.98
1070404151542.47
1054705435612.64
1037868645720.41
1020033393616.59
1001338296897.44
981918726399.702
961905069331.612
941421422198.309
920584646263.52
899503683989.871
878279213889.771
857002866361.842
835758204519.938
814609929332.366
793617497503.991
772845256117.582
752349609837.551
732179846705.099
712377877635.008
692978783160.936
674011312313.199
655498426797.52
637457838655.942
619902536934.444
602841361846.475
586279560205.499
570220590709.353
554662178404.094
539596773379.288
525019517769.484
510924939926.647
497304089606.795
484146870403.359
471442121731.23
459177963942.101
447341995063.826
435921479726.677
424903620771.88
414275804974.273
404025123970.215
394137529389.499
384589707315.386
375360420294.553
366438708752.639
357814417149.958
349478409508.297
341422047491.023
333637252459.749
326116530112.998
318853034209.446
311840620790.882
305073897330.898
298547970865.958
292257757235.881
286190696396.943
280315164388.176
274613529511.472
269096021188.433
263776026721.206
258668202254.842
253768253751.398
249047434025.204
244511942534.695
240215722769.999
236162492750.747
232377071196.167
228954254585.115
226030971999.5
223885814559.848
222983681704.276
224150048307.419
)
;

boundaryField
{
    electrode
    {
        type            driftDiffusionElectronDensity;
        seec            0.05;
        Edepend         1;
        field_emission  0;
        field_enhancement_factor 55;
        work_function   5;
        value           uniform 6.15236044840691e+16;
    }
    ground
    {
        type            driftDiffusionElectronDensity;
        seec            0.05;
        Edepend         1;
        field_emission  0;
        field_enhancement_factor 55;
        work_function   5;
        value           uniform 226353836041.868;
    }
    otherfaces
    {
        type            empty;
    }
}


// ************************************************************************* //
