/*--------------------------------*- C++ -*----------------------------------*\
| =========                 |                                                 |
| \\      /  F ield         | foam-extend: Open Source CFD                    |
|  \\    /   O peration     | Version:     4.0                                |
|   \\  /    A nd           | Web:         http://www.foam-extend.org         |
|    \\/     M anipulation  |                                                 |
\*---------------------------------------------------------------------------*/
FoamFile
{
    version     2.0;
    format      ascii;
    class       volVectorField;
    location    "5.2e-06";
    object      J_Arp1;
}
// * * * * * * * * * * * * * * * * * * * * * * * * * * * * * * * * * * * * * //

dimensions      [1 -1 -1 0 0 0 0];

internalField   nonuniform List<vector> 
300
(
(1.81490855336529e+16 -0 -0)
(6.58206816098665e+16 -0 -0)
(1.17968535031532e+17 -0 -0)
(1.63984914094439e+17 -0 -0)
(2.10687504727268e+17 -0 -0)
(2.5766995045577e+17 -0 -0)
(3.04515168466578e+17 -0 -0)
(3.51401987601949e+17 -0 -0)
(3.98300996121571e+17 -0 -0)
(4.45210067695361e+17 -0 -0)
(4.92134403171173e+17 -0 -0)
(5.39074466517751e+17 -0 -0)
(5.86031924884116e+17 -0 -0)
(6.33008509373593e+17 -0 -0)
(6.80005946954002e+17 -0 -0)
(7.27026086561261e+17 -0 -0)
(7.740708682524e+17 -0 -0)
(8.21142332312952e+17 -0 -0)
(8.68242627042969e+17 -0 -0)
(9.15374012447261e+17 -0 -0)
(9.62538866014868e+17 -0 -0)
(1.00973968716962e+18 -0 -0)
(1.05697910168522e+18 -0 -0)
(1.1042598659923e+18 -0 -0)
(1.15158487083468e+18 -0 -0)
(1.19895714473188e+18 -0 -0)
(1.24637985690046e+18 -0 -0)
(1.29385632041563e+18 -0 -0)
(1.34138999402872e+18 -0 -0)
(1.38898448429225e+18 -0 -0)
(1.43664354708464e+18 -0 -0)
(1.48437108860866e+18 -0 -0)
(1.5321711657078e+18 -0 -0)
(1.58004798610448e+18 -0 -0)
(1.62800590864008e+18 -0 -0)
(1.67604944247602e+18 -0 -0)
(1.72418324501196e+18 -0 -0)
(1.7724121178935e+18 -0 -0)
(1.82074100047493e+18 -0 -0)
(1.86917496464984e+18 -0 -0)
(1.9177192297394e+18 -0 -0)
(1.96637920243858e+18 -0 -0)
(2.01516050041626e+18 -0 -0)
(2.06406882864919e+18 -0 -0)
(2.11310956426085e+18 -0 -0)
(2.16228722479126e+18 -0 -0)
(2.21160601465826e+18 -0 -0)
(2.26107374000844e+18 -0 -0)
(2.31070846768274e+18 -0 -0)
(2.36053244857244e+18 -0 -0)
(2.41055880635256e+18 -0 -0)
(2.46079368185428e+18 -0 -0)
(2.51124247861144e+18 -0 -0)
(2.56191055098725e+18 -0 -0)
(2.61280330265272e+18 -0 -0)
(2.6639262252554e+18 -0 -0)
(2.71528489434268e+18 -0 -0)
(2.76688495326115e+18 -0 -0)
(2.81873209401473e+18 -0 -0)
(2.87083203713656e+18 -0 -0)
(2.92319051130449e+18 -0 -0)
(2.97581323247894e+18 -0 -0)
(3.02870588355472e+18 -0 -0)
(3.08187409362068e+18 -0 -0)
(3.13532341715677e+18 -0 -0)
(3.1890593136277e+18 -0 -0)
(3.24308712682127e+18 -0 -0)
(3.29741206402896e+18 -0 -0)
(3.35203917574877e+18 -0 -0)
(3.40697333499285e+18 -0 -0)
(3.46221921701189e+18 -0 -0)
(3.51778127870243e+18 -0 -0)
(3.57366373860328e+18 -0 -0)
(3.62987055642926e+18 -0 -0)
(3.68640541357791e+18 -0 -0)
(3.74327169290052e+18 -0 -0)
(3.8004724592843e+18 -0 -0)
(3.85801044028373e+18 -0 -0)
(3.9158880071508e+18 -0 -0)
(3.97410715589947e+18 -0 -0)
(4.03266948892216e+18 -0 -0)
(4.09157619713945e+18 -0 -0)
(4.15082804227015e+18 -0 -0)
(4.21042533959497e+18 -0 -0)
(4.27036794159286e+18 -0 -0)
(4.33065522172683e+18 -0 -0)
(4.39128605892543e+18 -0 -0)
(4.45225882314579e+18 -0 -0)
(4.51357136080607e+18 -0 -0)
(4.57522098172925e+18 -0 -0)
(4.63720444651135e+18 -0 -0)
(4.69951795455862e+18 -0 -0)
(4.76215713364228e+18 -0 -0)
(4.82511702966299e+18 -0 -0)
(4.88839209767941e+18 -0 -0)
(4.95197619412861e+18 -0 -0)
(5.01586256979573e+18 -0 -0)
(5.08004386405571e+18 -0 -0)
(5.14451210026728e+18 -0 -0)
(5.2092586821381e+18 -0 -0)
(5.27427439167954e+18 -0 -0)
(5.3395493879152e+18 -0 -0)
(5.40507320728427e+18 -0 -0)
(5.47083476509699e+18 -0 -0)
(5.5368223584603e+18 -0 -0)
(5.60302367030585e+18 -0 -0)
(5.66942577527629e+18 -0 -0)
(5.73601514634903e+18 -0 -0)
(5.80277766326713e+18 -0 -0)
(5.86969862231619e+18 -0 -0)
(5.93676274745181e+18 -0 -0)
(6.00395420250106e+18 -0 -0)
(6.07125660545072e+18 -0 -0)
(6.13865304336571e+18 -0 -0)
(6.20612608901412e+18 -0 -0)
(6.27365781880686e+18 -0 -0)
(6.34122983193308e+18 -0 -0)
(6.40882327088313e+18 -0 -0)
(6.47641884279856e+18 -0 -0)
(6.54399684257488e+18 -0 -0)
(6.61153717655549e+18 -0 -0)
(6.67901938748396e+18 -0 -0)
(6.74642268041161e+18 -0 -0)
(6.81372594952268e+18 -0 -0)
(6.88090780578028e+18 -0 -0)
(6.94794660518738e+18 -0 -0)
(7.01482047784317e+18 -0 -0)
(7.08150735821447e+18 -0 -0)
(7.14798501158345e+18 -0 -0)
(7.21423107412825e+18 -0 -0)
(7.28022306458539e+18 -0 -0)
(7.34593844263502e+18 -0 -0)
(7.41135460994706e+18 -0 -0)
(7.47644895695443e+18 -0 -0)
(7.54119890140073e+18 -0 -0)
(7.60558193116746e+18 -0 -0)
(7.66957545151563e+18 -0 -0)
(7.73315718195105e+18 -0 -0)
(7.79630548878447e+18 -0 -0)
(7.85899651823201e+18 -0 -0)
(7.92120929913501e+18 -0 -0)
(7.98292791127603e+18 -0 -0)
(8.04411881842126e+18 -0 -0)
(8.10475185260347e+18 -0 -0)
(8.16486461774631e+18 -0 -0)
(8.2244574652964e+18 -0 -0)
(8.28351233294149e+18 -0 -0)
(8.34200961842174e+18 -0 -0)
(8.39992908869162e+18 -0 -0)
(8.45725238712733e+18 -0 -0)
(8.51395959408496e+18 -0 -0)
(8.57003111064089e+18 -0 -0)
(8.62545636303436e+18 -0 -0)
(8.68019709271611e+18 -0 -0)
(8.73427795808373e+18 -0 -0)
(8.78761828003692e+18 -0 -0)
(8.84027642435474e+18 -0 -0)
(8.89219849987553e+18 -0 -0)
(8.94327421169912e+18 -0 -0)
(8.99394021096571e+18 -0 -0)
(9.04293999365949e+18 -0 -0)
(9.09308686690067e+18 -0 -0)
(9.13906559054109e+18 -0 -0)
(9.18796106506688e+18 -0 -0)
(9.23513163380819e+18 -0 -0)
(9.28115870303354e+18 -0 -0)
(9.32654012957204e+18 -0 -0)
(9.37124617826962e+18 -0 -0)
(9.41404912499643e+18 -0 -0)
(9.45937659505525e+18 -0 -0)
(9.49923198009336e+18 -0 -0)
(9.54375245096737e+18 -0 -0)
(9.58430193577244e+18 -0 -0)
(9.62332730975508e+18 -0 -0)
(9.66068954078639e+18 -0 -0)
(9.70336083307852e+18 -0 -0)
(9.735300018929e+18 -0 -0)
(9.77038987505492e+18 -0 -0)
(9.81025428413336e+18 -0 -0)
(9.83991433772409e+18 -0 -0)
(9.86809053361984e+18 -0 -0)
(9.90986940474749e+18 -0 -0)
(9.92546426160084e+18 -0 -0)
(9.9604846798636e+18 -0 -0)
(9.98079576502342e+18 -0 -0)
(1.00129961404158e+19 -0 -0)
(1.00190665522637e+19 -0 -0)
(1.00621321226158e+19 -0 -0)
(1.00630793895023e+19 -0 -0)
(1.00968736815572e+19 -0 -0)
(1.01081052125284e+19 -0 -0)
(1.01461309471359e+19 -0 -0)
(1.01612267931617e+19 -0 -0)
(1.02005688476909e+19 -0 -0)
(1.02326609781403e+19 -0 -0)
(1.02889584360889e+19 -0 -0)
(1.03533261308924e+19 -0 -0)
(1.04562345589348e+19 -0 -0)
(1.06024406945868e+19 -0 -0)
(1.08007393197073e+19 -0 -0)
(1.10491578083371e+19 -0 -0)
(1.13049925553103e+19 -0 -0)
(1.15991547071556e+19 -0 -0)
(1.17784765812298e+19 -0 -0)
(1.19731011115322e+19 -0 -0)
(1.21110233591454e+19 -0 -0)
(1.22112384427069e+19 -0 -0)
(1.22888582866723e+19 -0 -0)
(1.23538413543664e+19 -0 -0)
(1.24088795377151e+19 -0 -0)
(1.24601828574814e+19 -0 -0)
(1.2507446065029e+19 -0 -0)
(1.25532337747674e+19 -0 -0)
(1.25963137161792e+19 -0 -0)
(1.26419530450914e+19 -0 -0)
(1.26843464478436e+19 -0 -0)
(1.27304478711705e+19 -0 -0)
(1.27733762835083e+19 -0 -0)
(1.28203303102553e+19 -0 -0)
(1.28637712813322e+19 -0 -0)
(1.29113653668147e+19 -0 -0)
(1.2954950670118e+19 -0 -0)
(1.30027263539118e+19 -0 -0)
(1.30459592612049e+19 -0 -0)
(1.30934244565864e+19 -0 -0)
(1.31351356571082e+19 -0 -0)
(1.31826786008512e+19 -0 -0)
(1.32232757332232e+19 -0 -0)
(1.32699907055439e+19 -0 -0)
(1.3309307378435e+19 -0 -0)
(1.33548674813504e+19 -0 -0)
(1.33925118631859e+19 -0 -0)
(1.34367835991587e+19 -0 -0)
(1.34725923504005e+19 -0 -0)
(1.35155558579064e+19 -0 -0)
(1.35496626162084e+19 -0 -0)
(1.35913297169959e+19 -0 -0)
(1.36236519816494e+19 -0 -0)
(1.36639437412832e+19 -0 -0)
(1.36942416610454e+19 -0 -0)
(1.37328595277234e+19 -0 -0)
(1.37610272491016e+19 -0 -0)
(1.37976919884451e+19 -0 -0)
(1.38241070626947e+19 -0 -0)
(1.38590777445314e+19 -0 -0)
(1.38834936802238e+19 -0 -0)
(1.39170522255197e+19 -0 -0)
(1.39395982049693e+19 -0 -0)
(1.39718141534941e+19 -0 -0)
(1.39925632334343e+19 -0 -0)
(1.40235906748834e+19 -0 -0)
(1.40426676165627e+19 -0 -0)
(1.40725603752704e+19 -0 -0)
(1.40899925947986e+19 -0 -0)
(1.41187698387125e+19 -0 -0)
(1.41346233263345e+19 -0 -0)
(1.41623569658044e+19 -0 -0)
(1.41767786150352e+19 -0 -0)
(1.42036230880691e+19 -0 -0)
(1.42167582964524e+19 -0 -0)
(1.42427704942373e+19 -0 -0)
(1.42546681451589e+19 -0 -0)
(1.42798671840853e+19 -0 -0)
(1.4290534013213e+19 -0 -0)
(1.43149238701946e+19 -0 -0)
(1.43243751158265e+19 -0 -0)
(1.43478619068535e+19 -0 -0)
(1.43565756411905e+19 -0 -0)
(1.43794012242924e+19 -0 -0)
(1.43868848778494e+19 -0 -0)
(1.44089913925636e+19 -0 -0)
(1.44152273818429e+19 -0 -0)
(1.44365816791901e+19 -0 -0)
(1.44415563370105e+19 -0 -0)
(1.44621532857149e+19 -0 -0)
(1.44659188085656e+19 -0 -0)
(1.4485846130707e+19 -0 -0)
(1.4488536048599e+19 -0 -0)
(1.45079363335175e+19 -0 -0)
(1.45096608291166e+19 -0 -0)
(1.45286727784562e+19 -0 -0)
(1.45294874900621e+19 -0 -0)
(1.45481896222844e+19 -0 -0)
(1.45480901002394e+19 -0 -0)
(1.45664434614887e+19 -0 -0)
(1.45653561172074e+19 -0 -0)
(1.45833705773136e+19 -0 -0)
(1.45812679092666e+19 -0 -0)
(1.45989740807773e+19 -0 -0)
(1.4595895379463e+19 -0 -0)
(1.46132915531934e+19 -0 -0)
(1.46092202139218e+19 -0 -0)
(1.46263208066013e+19 -0 -0)
(1.46213474796943e+19 -0 -0)
(1.46380779347431e+19 -0 -0)
(1.46321126633539e+19 -0 -0)
(1.46483599303997e+19 -0 -0)
(1.4641197476919e+19 -0 -0)
(1.46566569336426e+19 -0 -0)
(1.46363183948205e+19 -0 -0)
)
;

boundaryField
{
    electrode
    {
        type            calculated;
        value           uniform (-7979602747.90658 -0 -0);
    }
    ground
    {
        type            calculated;
        value           uniform (1.46547812205237e+19 -0 -0);
    }
    otherfaces
    {
        type            empty;
    }
}


// ************************************************************************* //
