/*--------------------------------*- C++ -*----------------------------------*\
| =========                 |                                                 |
| \\      /  F ield         | foam-extend: Open Source CFD                    |
|  \\    /   O peration     | Version:     4.0                                |
|   \\  /    A nd           | Web:         http://www.foam-extend.org         |
|    \\/     M anipulation  |                                                 |
\*---------------------------------------------------------------------------*/
FoamFile
{
    version     2.0;
    format      ascii;
    class       volScalarField;
    location    "5.2e-06";
    object      N_electronMean;
}
// * * * * * * * * * * * * * * * * * * * * * * * * * * * * * * * * * * * * * //

dimensions      [0 0 0 1 0 0 0];

internalField   nonuniform List<scalar> 
300
(
6.00497609565775e+16
6.00482881443587e+16
6.00441943406807e+16
6.00369906703148e+16
6.00267096412681e+16
6.00133123514457e+16
5.9996775487392e+16
5.99770856210162e+16
5.99542305017652e+16
5.99282011300534e+16
5.98989911539877e+16
5.98665966063314e+16
5.98310157344301e+16
5.97922488114402e+16
5.975029800664e+16
5.97051672565179e+16
5.96568621552216e+16
5.96053898604871e+16
5.95507590022202e+16
5.94929795960118e+16
5.94320629667437e+16
5.93680216762986e+16
5.9300869453825e+16
5.92306211243513e+16
5.9157292556756e+16
5.90809006230561e+16
5.90014631235393e+16
5.89189987122813e+16
5.88335268364502e+16
5.87450676543587e+16
5.86536419824987e+16
5.85592712814427e+16
5.84619775811715e+16
5.83617833608018e+16
5.82587114621406e+16
5.81527850204765e+16
5.80440273964034e+16
5.79324621132895e+16
5.78181127888758e+16
5.77010030657519e+16
5.75811565542233e+16
5.74585967740638e+16
5.73333470853141e+16
5.72054306249468e+16
5.70748702520233e+16
5.69416884940343e+16
5.68059074965825e+16
5.66675489786473e+16
5.65266341994984e+16
5.63831839384855e+16
5.62372185000312e+16
5.60887577176383e+16
5.59378209173639e+16
5.57844268482723e+16
5.56285935827484e+16
5.54703384138291e+16
5.53096777668455e+16
5.51466271295651e+16
5.49812009981187e+16
5.48134128245946e+16
5.46432749700951e+16
5.44707986613141e+16
5.42959939427383e+16
5.41188696650948e+16
5.39394335172654e+16
5.37576919802679e+16
5.35736502082121e+16
5.33873119561664e+16
5.31986795437713e+16
5.30077538179707e+16
5.28145341152451e+16
5.26190182430373e+16
5.24212024976192e+16
5.22210816432172e+16
5.20186488463548e+16
5.1813895675607e+16
5.1606812125791e+16
5.13973865839673e+16
5.11856057405028e+16
5.09714545332701e+16
5.07549161386636e+16
5.05359718799256e+16
5.03146011389705e+16
5.00907813253721e+16
4.98644878617035e+16
4.96356941964735e+16
4.94043717632727e+16
4.91704898956356e+16
4.89340157884044e+16
4.86949144932678e+16
4.84531488849246e+16
4.82086796791753e+16
4.79614654655804e+16
4.77114626037992e+16
4.74586251263674e+16
4.72029047144173e+16
4.69442506727291e+16
4.66826099058584e+16
4.64179268949364e+16
4.6150143689367e+16
4.58791998976709e+16
4.5605032650562e+16
4.53275766068888e+16
4.50467639867069e+16
4.4762524526442e+16
4.44747854517899e+16
4.41834714809455e+16
4.3888504811775e+16
4.35898051323755e+16
4.32872895968851e+16
4.29808727891924e+16
4.26704667187056e+16
4.23559808318585e+16
4.20373220474739e+16
4.17143947705764e+16
4.13871009071592e+16
4.10553399438503e+16
4.0719008989901e+16
4.03780027366286e+16
4.00322134299761e+16
3.96815309200575e+16
3.93258427368505e+16
3.89650341559864e+16
3.85989882790148e+16
3.82275860359278e+16
3.78507061335406e+16
3.74682250901334e+16
3.7080017306558e+16
3.66859550897576e+16
3.62859086914915e+16
3.58797463850947e+16
3.54673345427411e+16
3.50485377011021e+16
3.46232186255774e+16
3.41912384608121e+16
3.3752456906977e+16
3.33067322642112e+16
3.28539214204437e+16
3.23938799104542e+16
3.19264620255769e+16
3.14515208850726e+16
3.09689085039853e+16
3.04784758937259e+16
2.99800731778829e+16
2.94735498006107e+16
2.89587547593247e+16
2.84355367318007e+16
2.79037441531746e+16
2.73632252735116e+16
2.68138283099075e+16
2.62554016935803e+16
2.56877941980347e+16
2.51108550947415e+16
2.45244344105143e+16
2.39283830689346e+16
2.33225531961472e+16
2.27067984443901e+16
2.20809745368521e+16
2.14449392496761e+16
2.07985520360752e+16
2.01416704890699e+16
1.94741306026471e+16
1.87957185272702e+16
1.81061623054304e+16
1.74051526259438e+16
1.66923764419861e+16
1.59675286297465e+16
1.52302992553852e+16
1.44803705518251e+16
1.3717448031747e+16
1.29413459173377e+16
1.21521389204108e+16
1.13503495434093e+16
1.0537129435609e+16
9.71448764837804e+15
8.88554379390522e+15
8.05473565823704e+15
7.22801823367277e+15
6.41290500312694e+15
5.61828922773019e+15
4.85411727103614e+15
4.13081458914474e+15
3.45847894054747e+15
2.84600919702161e+15
2.30024636477778e+15
1.82525022115354e+15
1.42192298199521e+15
1.08801880631488e+15
818526907966536
606382759364592
443304676244130
320646953132657
230150014210278
164497223533254
117058380088410
82773174725175.9
58057494493509.4
40248415799036.8
27552080186755.5
18719542059045.1
12665737529930.3
8574612769632.28
5916695715741.78
4275620088597.69
3305490851978.58
2742342234127.25
2411182567617.01
2209318350756.6
2080232791354.57
1993227386841.6
1931309791468.32
1884652749907.2
1847366245196.12
1815774967986.24
1787516280478.66
1761028928095.3
1735274855031.31
1709567654959.49
1683482971802.51
1656749289860.85
1629194026537.67
1600706297187.39
1571259192898.68
1540890578679.75
1509674767204.51
1477710569513.79
1445112153764.35
1412001040097.19
1378501507901.04
1344736861498.35
1310826720936.83
1276885945019.34
1243022308837.63
1209335997373.33
1175919337887.83
1142855975738.92
1110220651163.47
1078079991037.61
1046491775097.48
1015505666600.56
985163966915.232
955501403551.062
926546166917.36
898319890299.811
870838796118.222
844114426398.783
818152636790.849
792954873204.842
768518740238.254
744838763053.849
721908158239.176
699718367267.44
678258520816.156
657515580967.599
637475062599.251
618122074778.117
599439935946.128
581408797034.737
564009230234.711
547223715538.89
531034305369.633
515421889130.775
500367345298.291
485851387477.837
471854936694.994
458359440612.252
445345401926.382
432792931599.068
420682872903.49
408996287326.079
397714942954.117
386823108735.481
376307004182.723
366154105769.346
356352618997.33
346891475515.675
337760245239.705
328949020188.049
320448718069.076
312251103678.903
304348624229.802
296733407795.506
289396694274.954
282315762633.508
275465972350.818
268843504697.363
262455286760.123
256309678990.495
250415218078.669
244753659190.484
239302951228.775
234081912256.354
229128238162.69
224438230466.727
220041698314.575
216015807147.34
212480286266.335
209683436542.672
208019085936.82
208205805261.613
)
;

boundaryField
{
    electrode
    {
        type            calculated;
        value           uniform 6.00497609568049e+16;
    }
    ground
    {
        type            calculated;
        value           uniform 209737590264.985;
    }
    otherfaces
    {
        type            empty;
    }
}


// ************************************************************************* //
