/*--------------------------------*- C++ -*----------------------------------*\
| =========                 |                                                 |
| \\      /  F ield         | foam-extend: Open Source CFD                    |
|  \\    /   O peration     | Version:     4.0                                |
|   \\  /    A nd           | Web:         http://www.foam-extend.org         |
|    \\/     M anipulation  |                                                 |
\*---------------------------------------------------------------------------*/
FoamFile
{
    version     2.0;
    format      ascii;
    class       volScalarField;
    location    "5.2e-06";
    object      Phi;
}
// * * * * * * * * * * * * * * * * * * * * * * * * * * * * * * * * * * * * * //

dimensions      [0 0 0 1 0 0 0];

internalField   nonuniform List<scalar> 
300
(
699.999924825222
699.999712625211
699.99920891207
699.998447425019
699.997436795436
699.996171665793
699.994652997002
699.992880430911
699.990853497715
699.988571811483
699.986034901341
699.983242255772
699.980193319701
699.976887490928
699.973324120557
699.969502511964
699.965421919862
699.961081549364
699.956480554947
699.951618039369
699.946493052509
699.94110459016
699.935451592751
699.929532944007
699.923347469547
699.916893935426
699.910171046605
699.903177445366
699.89591170966
699.888372351397
699.880557814673
699.872466473929
699.864096632058
699.855446518446
699.846514286946
699.837298013794
699.82779569546
699.818005246447
699.807924497037
699.797551191022
699.786882983338
699.775917437453
699.764652022397
699.75308410976
699.741210972038
699.729029784202
699.71653762744
699.703731482978
699.690608189959
699.677164374457
699.663396465784
699.649300763923
699.634873450076
699.620110583588
699.605008098574
699.589561800077
699.573767360086
699.557620313461
699.541116053811
699.524249829321
699.507016738516
699.489411725965
699.471429577919
699.453064917868
699.434312202026
699.415165714723
699.395619563701
699.375667675309
699.355303789588
699.334521455237
699.313314024446
699.291674647594
699.269596267802
699.247071615321
699.224093201752
699.200653314082
699.176744008528
699.152357104161
699.127484176316
699.102116549751
699.076245291557
699.049861203779
699.022954815749
698.995516376098
698.967535844428
698.939002882615
698.909906845723
698.880236772499
698.849981375415
698.819129030231
698.787667765034
698.755585248728
698.72286877893
698.689505269214
698.655481235684
698.620782782801
698.585395588422
698.549304887992
698.512495457811
698.474951597336
698.436657110416
698.397595285392
698.35774887398
698.317100068833
698.27563047969
698.233321107993
698.190152319862
698.146103817286
698.101154607404
698.055282969706
698.008466420997
697.960681677942
697.911904616983
697.862110231416
697.81127258539
697.759364764565
697.706358823133
697.652225726902
697.596935292082
697.540456119399
697.482755523101
697.423799454415
697.363552418904
697.301977387186
697.239035698355
697.174686955413
697.108888911919
697.04159734898
696.972765941614
696.902346113389
696.830286878038
696.756534666906
696.681033140214
696.603722981036
696.524541669404
696.443423234449
696.360297982381
696.275092198573
696.187727813814
696.098122039165
696.006186986064
695.911829175562
695.814949022229
695.715440493669
695.613190305492
695.508076478327
695.399968040425
695.288724400872
695.174194356197
695.056214977482
694.934610338527
694.809190114253
694.679747942554
694.546059529079
694.407880738725
694.264944646818
694.116959686063
693.963605091341
693.80452844615
693.63934111409
693.467609924755
693.288862859912
693.102550116237
692.908103406742
692.704776141259
692.491563728599
692.267417996913
692.031210614326
691.781663770404
691.517296930707
691.236286801173
690.936566731146
690.61563088925
690.270666380685
689.89890375563
689.497066435375
689.061115403228
688.586974590981
688.07045322754
687.50646519296
686.88985876554
686.215750274232
685.478390305743
684.672475167654
683.793019085783
682.834833677464
681.793103110066
680.664265308551
679.444369821516
678.130281543691
676.720074754594
675.212330380102
673.605590355979
671.899166679583
670.09332836444
668.188516834655
666.184998718439
664.083266301351
661.883101033248
659.585248136048
657.189754185778
654.695739939897
652.102643350402
649.409482173545
646.61616614712
643.722978640525
640.730661706359
637.640142275472
634.452398056022
631.168375839589
627.788975318458
624.315007849481
620.74720788409
617.086372987981
613.333543069775
609.489648042696
605.555558859837
601.532044696533
597.419828011352
593.219539334135
588.931774152112
584.557044419671
580.095837515846
575.54856426026
570.91561985422
566.197385888027
561.394487152035
556.507469505991
551.536884966954
546.483210991366
541.346937488256
536.128483580957
530.82828670168
525.446714942767
519.984160107061
514.440944709683
508.817418976921
503.113864237808
497.330593706492
491.467851716817
485.525919262567
479.505008520251
473.405379121793
467.227415810095
460.971541477955
454.638111977203
448.227524159702
441.740106732019
435.176232521751
428.536205286686
421.8203758322
415.02902440338
408.162481236437
401.221004795861
394.204906488233
387.114424681828
379.949853263998
372.711411724231
365.39937716358
358.013950783331
350.555393511409
343.023889260513
335.419683742275
327.742944633636
319.993903484604
312.172712738195
304.279590840605
296.314773824508
288.278593448416
280.17130198417
271.993218548736
263.744581568219
255.425698683963
247.036795622998
238.578169535109
230.050034360268
221.452677346105
212.786301034562
204.051182910461
195.247514195575
186.375562818729
177.435508736406
168.427610740376
159.352037820127
150.209040278139
140.998776921158
131.721490479854
122.377330085427
112.96653153638
103.489234666227
93.9456686430207
84.3359644725556
74.6603452184921
64.9189334321525
55.1119460671932
45.2394979695004
35.3018007783794
25.2989625346543
15.2311908428526
5.09858833175962
)
;

boundaryField
{
    electrode
    {
        type            fixedValue;
        value           uniform 700;
    }
    ground
    {
        type            fixedValue;
        value           uniform 0;
    }
    otherfaces
    {
        type            empty;
    }
}


// ************************************************************************* //
