/*--------------------------------*- C++ -*----------------------------------*\
| =========                 |                                                 |
| \\      /  F ield         | foam-extend: Open Source CFD                    |
|  \\    /   O peration     | Version:     4.0                                |
|   \\  /    A nd           | Web:         http://www.foam-extend.org         |
|    \\/     M anipulation  |                                                 |
\*---------------------------------------------------------------------------*/
FoamFile
{
    version     2.0;
    format      ascii;
    class       volScalarField;
    location    "5.2e-06";
    object      PhiMean;
}
// * * * * * * * * * * * * * * * * * * * * * * * * * * * * * * * * * * * * * //

dimensions      [0 0 0 1 0 0 0];

internalField   nonuniform List<scalar> 
300
(
699.985846529284
699.984453046512
699.982793777656
699.980890060045
699.978751368185
699.976370732668
699.973747361185
699.970880024903
699.96776752541
699.96440897262
699.960803608746
699.956950835756
699.952850179905
699.948501281038
699.943903880974
699.939057811837
699.933962986495
699.928619392233
699.923027082725
699.917186170529
699.911096821638
699.904759250061
699.898173712554
699.891340503486
699.884259948867
699.876932412672
699.869358284682
699.861537975848
699.853471916946
699.84516054945
699.83660431871
699.827803686622
699.81875912284
699.80947108813
699.799940030487
699.790166380524
699.780150546019
699.769892909331
699.759393821857
699.748653597634
699.73767251032
699.72645079028
699.714988616756
699.703286113769
699.691343345701
699.679160313199
699.666736948607
699.654073112857
699.64116859205
699.628023098434
699.614636270162
699.601007682012
699.587136834608
699.57302315497
699.558665977665
699.544064536895
699.529217952846
699.514125225662
699.498785229691
699.48319670699
699.467358262114
699.451268356302
699.434925300756
699.418327249751
699.401472216745
699.38435806693
699.366982488556
699.349342987207
699.33143687974
699.313261287243
699.294813127752
699.27608910768
699.257085727456
699.23779927818
699.218225818057
699.198361173998
699.178200948435
699.157740503633
699.136974950852
699.115899119906
699.094507583007
699.072794612632
699.050754168072
699.028379887997
699.005665074642
698.982602699979
698.959185387545
698.935405385765
698.911254553212
698.886724354547
698.861805840442
698.836489630099
698.810765935803
698.784624503348
698.758054590606
698.731044951406
698.703583814119
698.675658863314
698.647257214165
698.618365394748
698.588969324611
698.55905428418
698.528604883162
698.497605063339
698.466038042508
698.433886286238
698.401131484988
698.3677545041
698.333735366088
698.299053199114
698.263686188323
698.227611534702
698.190805404985
698.153242891441
698.114897960639
698.07574338543
698.035750709149
697.994890189601
697.95313070695
697.910439682791
697.866782999736
697.822124940657
697.776428080971
697.729653221605
697.68175926434
697.63270307279
697.582439344929
697.530920497309
697.478096494273
697.423914690436
697.368319656082
697.311252990776
697.252653110529
697.192455011639
697.130590026515
697.066985596303
697.001564931781
696.934246665719
696.864944458556
696.793566608423
696.720015573676
696.644187454736
696.565971424776
696.485249080951
696.401893746183
696.315769711025
696.226731306284
696.134621877974
696.039272597924
695.940501127677
695.838110175855
695.731885728716
695.621595050731
695.506984445211
695.387776560454
695.26366726344
695.134322215279
694.999372371336
694.858409635758
694.710979685148
694.556577128105
694.394630122563
694.224471272521
694.045318310683
693.856262810209
693.656265912145
693.44414012359
693.218496794988
692.977698146799
692.719796925368
692.442491214123
692.143104813929
691.818584920612
691.465403578509
691.079514736214
690.656419621528
690.191082903852
689.677979048735
689.111289569626
688.484797583887
687.792127966152
687.026974957053
686.183176634087
685.254861882413
684.236912332061
683.124810498029
681.914842565176
680.604270478988
679.191250583675
677.674713111198
676.054258592603
674.330065469042
672.502869388646
670.573860582804
668.544106417282
666.414505796707
664.185729623524
661.858212272827
659.432359521264
656.908503115932
654.286830113989
651.567553789627
648.750983155619
645.837711161182
642.82864127685
639.724748345399
636.527047013958
633.236497622775
629.854017684746
626.380439261011
622.816541026287
619.163013297385
615.420599022495
611.590180553459
607.672620219847
603.668699265107
599.579156379679
595.404658322524
591.145839892759
586.803271664591
582.377501391565
577.869019069426
573.278299877033
568.605767297641
563.851838219302
559.016988621067
554.10181440307
549.106860183655
544.032668075711
538.879731801089
533.648547476346
528.339564871911
522.953241525084
517.489992974879
511.950246799182
506.334387970811
500.642816475985
494.875890062152
489.03398454679
483.117433833514
477.126592982447
471.061775899792
464.923323590908
458.711633748954
452.427177601576
446.070376075138
439.641678032375
433.141481403692
426.570214576973
419.928254124947
413.216009622726
406.433837643542
399.582130414517
392.661225637539
385.671499464587
378.613271724434
371.486903562103
364.29269784727
357.0310016168
349.702101649495
342.306331630535
334.843963037648
327.315316945279
319.720650063116
312.060271548909
304.334427905225
296.543427682331
288.687524326432
280.767077571147
272.78240348109
264.733890478374
256.62184115044
248.446633046946
240.208554537944
231.907972975389
223.545162995565
215.120482378297
206.634192523776
198.086642211705
189.478080093727
180.80884648517
172.079177689958
163.289406098359
154.439756053065
145.530552675175
136.562008807372
127.534442836714
118.448056418192
109.303161677836
100.099949372048
90.8387257694551
81.5196712547883
72.143086948921
62.709143178646
53.2181362630551
43.6702271366366
34.0657081909104
24.4047314645851
14.6875865613206
4.91441758204372
)
;

boundaryField
{
    electrode
    {
        type            calculated;
        value           uniform 700.000000000097;
    }
    ground
    {
        type            calculated;
        value           uniform 0;
    }
    otherfaces
    {
        type            empty;
    }
}


// ************************************************************************* //
