/*--------------------------------*- C++ -*----------------------------------*\
| =========                 |                                                 |
| \\      /  F ield         | foam-extend: Open Source CFD                    |
|  \\    /   O peration     | Version:     4.0                                |
|   \\  /    A nd           | Web:         http://www.foam-extend.org         |
|    \\/     M anipulation  |                                                 |
\*---------------------------------------------------------------------------*/
FoamFile
{
    version     2.0;
    format      ascii;
    class       volScalarField;
    location    "5.2e-06";
    object      Sy_electron;
}
// * * * * * * * * * * * * * * * * * * * * * * * * * * * * * * * * * * * * * //

dimensions      [1 -3 -1 0 0 0 0];

internalField   nonuniform List<scalar> 
300
(
3.42138801694535e-09
3.42219206512997e-09
3.42251304105898e-09
3.42246339148663e-09
3.42244475381274e-09
3.42237982053578e-09
3.42227835757958e-09
3.42214554442226e-09
3.42197894208464e-09
3.42177876053012e-09
3.42154476000666e-09
3.42127660975133e-09
3.42097402991585e-09
3.42063671466579e-09
3.42026434848338e-09
3.41985660624156e-09
3.41941315127042e-09
3.41893363542698e-09
3.41841769854791e-09
3.41786496791847e-09
3.41727505776061e-09
3.41664756867997e-09
3.41598208708844e-09
3.41527818461356e-09
3.41453541744724e-09
3.41375332578044e-09
3.41293143307363e-09
3.41206924538986e-09
3.41116625071626e-09
3.41022191821204e-09
3.40923569745094e-09
3.40820701772649e-09
3.40713528725692e-09
3.40601989236841e-09
3.40486019670917e-09
3.40365554039773e-09
3.40240523913407e-09
3.40110858332959e-09
3.39976483731012e-09
3.39837323892106e-09
3.39693299937652e-09
3.39544330195914e-09
3.39390329718791e-09
3.39231209419689e-09
3.39066875760773e-09
3.38897233620429e-09
3.38722194864288e-09
3.38541686451231e-09
3.38357662635315e-09
3.38271293451603e-09
3.38181358120441e-09
3.38087718098377e-09
3.37990248050687e-09
3.37888823017659e-09
3.37783315575632e-09
3.37673594899008e-09
3.37559526380096e-09
3.37440971437113e-09
3.37317787376893e-09
3.37189827277075e-09
3.3705693987677e-09
3.36918969468648e-09
3.36775755795468e-09
3.36627133948072e-09
3.36472934272723e-09
3.36312982276548e-09
3.36147098526838e-09
3.35975098563574e-09
3.35796792812363e-09
3.35611986498621e-09
3.35420479563675e-09
3.35222066582613e-09
3.35016536688124e-09
3.3480367349424e-09
3.34583255016019e-09
3.34355053603554e-09
3.34118835869172e-09
3.33874362616319e-09
3.33621388776775e-09
3.33359663333837e-09
3.33088929276092e-09
3.32808923517294e-09
3.32519376839352e-09
3.32220013832149e-09
3.3191055282775e-09
3.31590705845555e-09
3.31260178527996e-09
3.30918670075883e-09
3.30565873185424e-09
3.30201473988626e-09
3.29825151981323e-09
3.29436579952147e-09
3.29035423930409e-09
3.28621343088473e-09
3.2819398967125e-09
3.27753008911545e-09
3.2729803894115e-09
3.26828710694431e-09
3.26344647803641e-09
3.25845466490848e-09
3.25330775445452e-09
3.24800175692503e-09
3.24253260446082e-09
3.23689614965606e-09
3.23108816372935e-09
3.22510433472876e-09
3.21894026551893e-09
3.21259147149118e-09
3.20605337823199e-09
3.19932131880513e-09
3.19239053085179e-09
3.1852561534235e-09
3.17791322349473e-09
3.17035667218549e-09
3.16258132060956e-09
3.15458187531902e-09
3.14635292337635e-09
3.13788892702224e-09
3.12918421769918e-09
3.12023298965797e-09
3.11102929296282e-09
3.10156702595066e-09
3.09183992683845e-09
3.08184156481939e-09
3.07156533019457e-09
3.06100442369126e-09
3.05015184485665e-09
3.03900037949491e-09
3.02754258598415e-09
3.01577078026957e-09
3.00367701976486e-09
2.99125308590479e-09
2.97849046461411e-09
2.96538032617983e-09
2.95191350289913e-09
2.93808046146885e-09
2.92387128114754e-09
2.90927563492228e-09
2.89428270820721e-09
2.87888121815786e-09
2.86305951266675e-09
2.8468050888446e-09
2.83010471349659e-09
2.81294638719057e-09
2.79650104042565e-09
2.78021647544608e-09
2.76344922736942e-09
2.74618187060812e-09
2.72839645640246e-09
2.71007403039118e-09
2.69119446428623e-09
2.6717365554772e-09
2.65167746982996e-09
2.63099337289761e-09
2.60965848546933e-09
2.58764526522413e-09
2.56492559715535e-09
2.54146609558782e-09
2.51723881668266e-09
2.49219985306154e-09
2.46633433359675e-09
2.43959967625538e-09
2.41202309468322e-09
2.38398307278611e-09
2.35544963199157e-09
2.32570894727535e-09
2.294412020884e-09
2.26164197895473e-09
2.22690965873912e-09
2.18756173419638e-09
2.14652513373308e-09
2.10350446350874e-09
2.05750357021621e-09
2.00778502250872e-09
1.95510527224975e-09
1.89930940914548e-09
1.83882902763727e-09
1.77384861574741e-09
1.7055135129651e-09
1.62669042054197e-09
1.54212544176375e-09
1.45680766498003e-09
1.37208886498258e-09
1.29067870750204e-09
1.21349659317219e-09
1.13349595114393e-09
1.06899737873989e-09
1.02076536830969e-09
9.81957077977164e-10
9.67380544961527e-10
9.79919258469734e-10
1.02221562226522e-09
1.10393908258403e-09
1.24402888053643e-09
1.47756899346697e-09
1.86156195695856e-09
2.49397037847583e-09
3.59137332390346e-09
4.84271846085113e-09
5.94953141536255e-09
7.14461343855318e-09
7.47997797597679e-09
6.78948868417103e-09
5.56836825501711e-09
4.30870768188069e-09
3.27271314777008e-09
2.54938986112595e-09
2.06709098434409e-09
1.75966241263626e-09
1.56890023025105e-09
1.45835857630669e-09
1.38638256746765e-09
1.3482076439509e-09
1.33056793898089e-09
1.32013200157754e-09
1.3179449552403e-09
1.32035076335604e-09
1.32483119357888e-09
1.32990959079631e-09
1.33450743308311e-09
1.33791481272302e-09
1.33867409607536e-09
1.33666443966505e-09
1.33254935435594e-09
1.32625966878731e-09
1.31780119762584e-09
1.30723653491106e-09
1.2946679661412e-09
1.28022488469633e-09
1.26405502930624e-09
1.24631763226621e-09
1.22717807695689e-09
1.20680366911271e-09
1.18536031143468e-09
1.16300989999946e-09
1.1399083162618e-09
1.11620391409428e-09
1.09203642867838e-09
1.06753618308113e-09
1.04282370415637e-09
1.01800876611249e-09
9.93191765772178e-10
9.68450289481585e-10
9.43855748541028e-10
9.19485863574157e-10
8.9540871825076e-10
8.71683981720402e-10
8.48362560186952e-10
8.25487254012089e-10
8.0309334283494e-10
7.8120922622734e-10
7.5985705725067e-10
7.39053361328417e-10
7.1880971541937e-10
6.99133383122871e-10
6.80029477386925e-10
6.61495863481548e-10
6.4352558053575e-10
6.26113159723187e-10
6.09253052205629e-10
5.92935434417813e-10
5.77149121282033e-10
5.61881616915366e-10
5.47119532581409e-10
5.32848817134273e-10
5.19054980372163e-10
5.05723417006041e-10
4.92839710245126e-10
4.80389055862609e-10
4.68355369718352e-10
4.56711294293772e-10
4.45431963098075e-10
4.34504918581402e-10
4.2391844871186e-10
4.13662014813954e-10
4.03725607508305e-10
3.94099826303414e-10
3.84775903073497e-10
3.7574577167711e-10
3.67002124648894e-10
3.58538465222771e-10
3.50348801849845e-10
3.42197256666095e-10
3.33911866199447e-10
3.25833703287287e-10
3.17941497950915e-10
3.1024643733122e-10
3.02762155615023e-10
2.95503443850194e-10
2.87865677101838e-10
2.79790927714829e-10
2.71893222045199e-10
2.64226134379288e-10
2.55481746590846e-10
2.46204514716487e-10
2.3672270180457e-10
2.24937601617351e-10
2.1148972255099e-10
1.94540504913713e-10
1.70494415187073e-10
)
;

boundaryField
{
    electrode
    {
        type            zeroGradient;
    }
    ground
    {
        type            zeroGradient;
    }
    otherfaces
    {
        type            empty;
    }
}


// ************************************************************************* //
