/*--------------------------------*- C++ -*----------------------------------*\
| =========                 |                                                 |
| \\      /  F ield         | foam-extend: Open Source CFD                    |
|  \\    /   O peration     | Version:     4.0                                |
|   \\  /    A nd           | Web:         http://www.foam-extend.org         |
|    \\/     M anipulation  |                                                 |
\*---------------------------------------------------------------------------*/
FoamFile
{
    version     2.0;
    format      ascii;
    class       volScalarField;
    location    "4.5e-06";
    object      Arm;
}
// * * * * * * * * * * * * * * * * * * * * * * * * * * * * * * * * * * * * * //

dimensions      [0 0 0 1 0 0 0];

internalField   nonuniform List<scalar> 
300
(
3.57413902489817e+15
3.57601622477437e+15
3.57796499619906e+15
3.57927097359774e+15
3.58008719473726e+15
3.58046571775294e+15
3.58045075000291e+15
3.58007372902068e+15
3.57936031296972e+15
3.57833248635528e+15
3.57700602250826e+15
3.57539500760652e+15
3.57351149478985e+15
3.57136608663162e+15
3.56896824013388e+15
3.56632650077575e+15
3.56344569006987e+15
3.56033439568692e+15
3.55700095950844e+15
3.55345186064872e+15
3.54969330056767e+15
3.54573120095389e+15
3.54157125183274e+15
3.53721890429837e+15
3.53266347238119e+15
3.52792270371091e+15
3.52300029872418e+15
3.51789826962728e+15
3.51263021391136e+15
3.50720101514877e+15
3.50159690392535e+15
3.49582925907725e+15
3.48991619199394e+15
3.48386308281194e+15
3.47767501778872e+15
3.471356799523e+15
3.46490859924181e+15
3.45833693457633e+15
3.451648875543e+15
3.44484795671559e+15
3.4379376813239e+15
3.43092332636826e+15
3.42380877246328e+15
3.41659771119945e+15
3.40929364278213e+15
3.40189983143222e+15
3.39441722110224e+15
3.38684726243744e+15
3.37918218817784e+15
3.37142059260003e+15
3.36354986337429e+15
3.35558251646787e+15
3.3475131482327e+15
3.33935948600901e+15
3.33112965869482e+15
3.32284004263597e+15
3.31449393556622e+15
3.30609425363635e+15
3.29764356936022e+15
3.28914229916549e+15
3.2805947600536e+15
3.27200306399274e+15
3.26336386836848e+15
3.2546592005249e+15
3.24589303883196e+15
3.23709098119035e+15
3.22825511480827e+15
3.21938727942664e+15
3.21048906087422e+15
3.20156181923204e+15
3.19260471007556e+15
3.18361057888749e+15
3.17457788784543e+15
3.16551409127098e+15
3.15640563652013e+15
3.1472535849909e+15
3.13806428472367e+15
3.12883359564044e+15
3.11958151922476e+15
3.11027746128711e+15
3.10095603731907e+15
3.09161936558818e+15
3.08226435887218e+15
3.07289328432859e+15
3.0634913106497e+15
3.05406618522485e+15
3.04462961822824e+15
3.0351819302336e+15
3.02571120115647e+15
3.01622519530705e+15
3.0067179054177e+15
2.99714423462173e+15
2.98755950220367e+15
2.97796533089178e+15
2.96836174915211e+15
2.95874878318496e+15
2.94912621468183e+15
2.93949361414753e+15
2.92984003893949e+15
2.92016542937264e+15
2.91047605207488e+15
2.90077319544616e+15
2.89102506531624e+15
2.88126091945341e+15
2.8714715266598e+15
2.86164753421729e+15
2.85180398368354e+15
2.84192124171915e+15
2.83200974360308e+15
2.8220749417605e+15
2.81211496394154e+15
2.80212752521175e+15
2.79210488159651e+15
2.782044822579e+15
2.77194513234357e+15
2.76178815424081e+15
2.75155498758569e+15
2.74127045344008e+15
2.73093542047191e+15
2.7205418118679e+15
2.71006322101338e+15
2.69951263571997e+15
2.68886104189546e+15
2.67811884581931e+15
2.66729748308873e+15
2.65639475677541e+15
2.64538253302452e+15
2.63427827002583e+15
2.62307112846896e+15
2.61175907428692e+15
2.60032645627953e+15
2.58876940850036e+15
2.57708293926879e+15
2.56524095820452e+15
2.5532069808419e+15
2.5409998842603e+15
2.52862359616514e+15
2.51605306243895e+15
2.50326941798201e+15
2.4902818004057e+15
2.47707421520381e+15
2.46363001182599e+15
2.44991704029908e+15
2.43590319960335e+15
2.42156386544925e+15
2.40691886245044e+15
2.39195331301016e+15
2.37665085713943e+15
2.36098095879282e+15
2.3448947032304e+15
2.32840455052382e+15
2.31148575255173e+15
2.29407601101512e+15
2.27617416226563e+15
2.25776195432069e+15
2.2387896461511e+15
2.21921397601687e+15
2.19903441123214e+15
2.17823180844122e+15
2.15676119655849e+15
2.13458696579767e+15
2.11169403842769e+15
2.08804413903496e+15
2.0636498346751e+15
2.03849813554511e+15
2.01253443615241e+15
1.98577957368168e+15
1.95827812926298e+15
1.93005906186547e+15
1.90116433652619e+15
1.871662574322e+15
1.84158707295301e+15
1.81103020917899e+15
1.78016351199647e+15
1.74918094354203e+15
1.71825234139003e+15
1.68755688775352e+15
1.6572935757224e+15
1.62770124614395e+15
1.59893544325094e+15
1.57115044410848e+15
1.54449330703412e+15
1.51904535065142e+15
1.49492140127749e+15
1.47212130752824e+15
1.45055472132159e+15
1.43026140214013e+15
1.41119057264089e+15
1.39325557822188e+15
1.37637405411486e+15
1.36044696939016e+15
1.34551099902679e+15
1.33201081242857e+15
1.32488138824761e+15
1.35004017534834e+15
1.41376280871344e+15
1.48732657123405e+15
1.53682977895575e+15
1.56242166691426e+15
1.56881871694964e+15
1.55570744887745e+15
1.52970730739968e+15
1.49887153744567e+15
1.46950244110189e+15
1.44495571418533e+15
1.42623312713416e+15
1.41208426827496e+15
1.40184640635576e+15
1.3944866964732e+15
1.38920528596791e+15
1.38463515063892e+15
1.38069420565665e+15
1.37709418668628e+15
1.37338605882325e+15
1.36971869538657e+15
1.3659956839971e+15
1.36209074279841e+15
1.35796925570865e+15
1.35357548484574e+15
1.34888662131237e+15
1.34390513871938e+15
1.33859631022985e+15
1.33287335811322e+15
1.32671063128524e+15
1.32019998694795e+15
1.3135021582401e+15
1.30665716978551e+15
1.29968298804099e+15
1.29261207987088e+15
1.28548178446872e+15
1.27830577903071e+15
1.27111250781616e+15
1.26393412816047e+15
1.25678482390367e+15
1.24968102045457e+15
1.24265453659114e+15
1.23570290682137e+15
1.22885691575064e+15
1.22211541656887e+15
1.2154974838054e+15
1.20901065551718e+15
1.20265293122929e+15
1.19644370134978e+15
1.19037238528677e+15
1.18444752919063e+15
1.17868590738373e+15
1.17307416327887e+15
1.16761974519578e+15
1.16232434359449e+15
1.15717874152911e+15
1.15218856605713e+15
1.14734822284257e+15
1.14265327345939e+15
1.13810724401351e+15
1.13370183700536e+15
1.12943473214435e+15
1.12530435234195e+15
1.12129512660061e+15
1.11741569132795e+15
1.11365819180535e+15
1.11002831047524e+15
1.1065133626368e+15
1.10311614015252e+15
1.09982837059189e+15
1.09664780710838e+15
1.09357073370389e+15
1.09058955984988e+15
1.08770119965041e+15
1.08489509522417e+15
1.08217740846483e+15
1.07954087431927e+15
1.0769913002e+15
1.07451596304427e+15
1.07212092992186e+15
1.06979437430028e+15
1.06753507765136e+15
1.06534150200358e+15
1.06321380404937e+15
1.06115407797933e+15
1.05915602301395e+15
1.057218528991e+15
1.05530132402172e+15
1.0532958527701e+15
1.05131419234109e+15
1.049383631639e+15
1.04749492786074e+15
1.04565578701679e+15
1.04386740708788e+15
1.04211911905752e+15
1.04013295781702e+15
1.03813614768475e+15
1.03619043921266e+15
1.03429783340037e+15
1.03205622943248e+15
1.029822193858e+15
1.02746480542947e+15
1.02480188812409e+15
1.02182348929987e+15
1.01840951344932e+15
1.01427586530065e+15
)
;

boundaryField
{
    electrode
    {
        type            zeroGradient;
    }
    ground
    {
        type            zeroGradient;
    }
    otherfaces
    {
        type            empty;
    }
}


// ************************************************************************* //
