/*--------------------------------*- C++ -*----------------------------------*\
| =========                 |                                                 |
| \\      /  F ield         | foam-extend: Open Source CFD                    |
|  \\    /   O peration     | Version:     4.0                                |
|   \\  /    A nd           | Web:         http://www.foam-extend.org         |
|    \\/     M anipulation  |                                                 |
\*---------------------------------------------------------------------------*/
FoamFile
{
    version     2.0;
    format      ascii;
    class       volScalarField;
    location    "4.5e-06";
    object      Arp1;
}
// * * * * * * * * * * * * * * * * * * * * * * * * * * * * * * * * * * * * * //

dimensions      [0 0 0 1 0 0 0];

internalField   nonuniform List<scalar> 
300
(
6.01802982953805e+16
6.02218275483819e+16
6.01967379814904e+16
6.01918752999091e+16
6.01827775893072e+16
6.01698258159251e+16
6.01545909688371e+16
6.01364248716701e+16
6.01154226191165e+16
6.00916005823361e+16
6.00649444143548e+16
6.00354577781561e+16
6.00031405915895e+16
5.99679927445738e+16
5.99300145361474e+16
5.98892061931836e+16
5.98455679874546e+16
5.97991002107725e+16
5.97498031468025e+16
5.96976770560172e+16
5.96427221762384e+16
5.95849387762281e+16
5.95243273032723e+16
5.94608886260123e+16
5.93946241943767e+16
5.93255333314918e+16
5.92536122966632e+16
5.91788604620578e+16
5.91012769172312e+16
5.90208605411901e+16
5.89376100371769e+16
5.88515239250308e+16
5.87626005226434e+16
5.86708379245033e+16
5.85762339795965e+16
5.847878626846e+16
5.83784920814637e+16
5.8275348397338e+16
5.81693518614667e+16
5.80604987653362e+16
5.79487850261761e+16
5.78342061661952e+16
5.77167572931042e+16
5.7596433080556e+16
5.74732277484749e+16
5.73471350444925e+16
5.72181482255155e+16
5.70862600391003e+16
5.6951462706193e+16
5.68137479040361e+16
5.66731067489252e+16
5.65295297806411e+16
5.63830069469321e+16
5.62335275883559e+16
5.60810804244123e+16
5.59256535403808e+16
5.57672343745006e+16
5.56058097063729e+16
5.54413656466207e+16
5.52738876265998e+16
5.51033603899953e+16
5.49297679854025e+16
5.47530937593327e+16
5.45733203512578e+16
5.43904296896769e+16
5.42044029889185e+16
5.40152207480509e+16
5.38228627509822e+16
5.3627308067459e+16
5.34285350562831e+16
5.32265213699296e+16
5.30212439601601e+16
5.28126790860257e+16
5.26008023233453e+16
5.2385588575343e+16
5.21670120858763e+16
5.1945046454058e+16
5.17196646504673e+16
5.14908390355741e+16
5.12585413802041e+16
5.10227428873404e+16
5.07834142162208e+16
5.05405255086933e+16
5.02940464168607e+16
5.00439461331441e+16
4.97901934225756e+16
4.95327566564209e+16
4.92716038483505e+16
4.9006702692609e+16
4.87380206037131e+16
4.84655247585776e+16
4.81891821406062e+16
4.79089595854026e+16
4.76248238284385e+16
4.73367415551183e+16
4.70446794518775e+16
4.67486042595819e+16
4.64484828287322e+16
4.61442821758268e+16
4.58359695417476e+16
4.552351245177e+16
4.52068787765901e+16
4.48860367948693e+16
4.45609552574755e+16
4.42316034522802e+16
4.38979512701978e+16
4.35599692725811e+16
4.32176287589258e+16
4.2870901835335e+16
4.2519761484108e+16
4.21641816330881e+16
4.18041372255482e+16
4.14396042906419e+16
4.10705600132784e+16
4.06969828041065e+16
4.03188523695814e+16
3.99361497811374e+16
3.95488575439938e+16
3.91569596656916e+16
3.87604417232533e+16
3.83592909299898e+16
3.79534962013106e+16
3.75430482193317e+16
3.71279394967262e+16
3.6708164439804e+16
3.62837194102539e+16
3.58546027863916e+16
3.54208150248463e+16
3.49823587189386e+16
3.45392386553189e+16
3.40914619288483e+16
3.36390378157445e+16
3.31819779646308e+16
3.27202982696791e+16
3.22540096409305e+16
3.178314139121e+16
3.130771080618e+16
3.08277335850136e+16
3.03432297273186e+16
2.98542800802419e+16
2.93609223491835e+16
2.88631462281934e+16
2.83609942318872e+16
2.78545092501152e+16
2.73437365999013e+16
2.68287260804979e+16
2.63095325296383e+16
2.57862158743415e+16
2.5258844832683e+16
2.47274872487508e+16
2.41922391592173e+16
2.36531667035333e+16
2.311040369104e+16
2.25640578601324e+16
2.20141680672058e+16
2.14611968158071e+16
2.09046634670616e+16
2.03456952450521e+16
1.97837464706475e+16
1.92186348271345e+16
1.86539753318299e+16
1.80809860329386e+16
1.75161315798555e+16
1.69620095923551e+16
1.63981774397175e+16
1.58330825010104e+16
1.52683544655302e+16
1.47062389651554e+16
1.41572202184339e+16
1.36081646999624e+16
1.30783801885888e+16
1.25569384839721e+16
1.20143719220378e+16
1.14938370280905e+16
1.10144939909554e+16
1.05273943110729e+16
1.0032520035476e+16
9.60183446505018e+15
9.17853465297576e+15
8.730540500615e+15
8.36155958438903e+15
7.99537987643434e+15
7.62676562280507e+15
7.3101369037081e+15
7.03059360847855e+15
6.71114235893136e+15
6.47067306354515e+15
6.2542116103295e+15
6.01911589395713e+15
5.8039442294901e+15
5.63995673478152e+15
5.49658847000491e+15
5.32935343106124e+15
5.19046963092456e+15
5.07793499183197e+15
4.9954930670685e+15
4.93933818170452e+15
4.88272575273421e+15
4.84891875940771e+15
4.85466997495218e+15
4.87081649103302e+15
4.90556165023997e+15
4.91886120479439e+15
4.90728970969744e+15
4.87620474972265e+15
4.82917953107321e+15
4.78090262724355e+15
4.73244677770308e+15
4.68784536125605e+15
4.64582964326792e+15
4.6089614046653e+15
4.57516405143101e+15
4.53010984145986e+15
4.4819671793648e+15
4.43890368472009e+15
4.39839945265658e+15
4.36252731228233e+15
4.32870686259323e+15
4.29907887172867e+15
4.27097861303871e+15
4.2467311373755e+15
4.22365638596217e+15
4.20418318317102e+15
4.18553532458733e+15
4.16467254077678e+15
4.13497356296315e+15
4.10870545190144e+15
4.08231299385272e+15
4.0591674399506e+15
4.03562720455892e+15
4.01524139650209e+15
3.99421779069876e+15
3.97625461201784e+15
3.95741467043979e+15
3.9415533921354e+15
3.92459520090315e+15
3.91057147699387e+15
3.89529813079665e+15
3.88296831427571e+15
3.86928518762709e+15
3.85856262801516e+15
3.84641860429607e+15
3.82834408500839e+15
3.80825084324965e+15
3.79075683829516e+15
3.77200311821918e+15
3.75573777614849e+15
3.73812970000226e+15
3.72293692246202e+15
3.70635541456458e+15
3.69212102986859e+15
3.67646742555024e+15
3.66313695514139e+15
3.64830614988448e+15
3.63588953743675e+15
3.62175998617991e+15
3.61029186386015e+15
3.59678284925844e+15
3.58626365067771e+15
3.57336320175908e+15
3.56370561688513e+15
3.55140896307147e+15
3.54255643655913e+15
3.53079067103347e+15
3.5226514835902e+15
3.51143277197692e+15
3.5028822765262e+15
3.48613781748591e+15
3.47317853318245e+15
3.4570303091568e+15
3.44474993642576e+15
3.42918314354647e+15
3.41756268098896e+15
3.4025843124954e+15
3.39164139104851e+15
3.37724538005464e+15
3.3669463460526e+15
3.35307683690211e+15
3.34339187734935e+15
3.33001984366948e+15
3.32093927461208e+15
3.30804362968974e+15
3.29953927277001e+15
3.28707921723725e+15
3.27911002814707e+15
3.26705454668519e+15
3.25958653625824e+15
3.24791518058718e+15
3.24092784917702e+15
3.22963157994014e+15
3.22311056641649e+15
3.21216322378187e+15
3.20609115637702e+15
3.19547742852193e+15
3.18981255550894e+15
3.17948034218389e+15
3.17418767966558e+15
3.16407051018475e+15
3.15905865594464e+15
3.14658713916329e+15
)
;

boundaryField
{
    electrode
    {
        type            driftDiffusionPositiveIonDensity;
        seec            0;
        fieldName       Arp1;
        value           uniform 6.00048498613415e+16;
    }
    ground
    {
        type            driftDiffusionPositiveIonDensity;
        seec            0;
        fieldName       Arp1;
        value           uniform 3.14658713916329e+15;
    }
    otherfaces
    {
        type            empty;
    }
}


// ************************************************************************* //
