/*--------------------------------*- C++ -*----------------------------------*\
| =========                 |                                                 |
| \\      /  F ield         | foam-extend: Open Source CFD                    |
|  \\    /   O peration     | Version:     4.0                                |
|   \\  /    A nd           | Web:         http://www.foam-extend.org         |
|    \\/     M anipulation  |                                                 |
\*---------------------------------------------------------------------------*/
FoamFile
{
    version     2.0;
    format      ascii;
    class       volVectorField;
    location    "4.5e-06";
    object      E;
}
// * * * * * * * * * * * * * * * * * * * * * * * * * * * * * * * * * * * * * //

dimensions      [0 0 0 1 0 0 0];

internalField   nonuniform List<vector> 
300
(
(5.51152064820482 -0 -0)
(10.9240801904331 -0 -0)
(19.2889442168776 -0 -0)
(27.0137445412824 -0 -0)
(34.687683346523 -0 -0)
(42.4272475860192 -0 -0)
(50.1551011097839 -0 -0)
(57.8925584013278 -0 -0)
(65.6396790171828 -0 -0)
(73.3960064391866 -0 -0)
(81.1630231814504 -0 -0)
(88.9415798843726 -0 -0)
(96.7326308970461 -0 -0)
(104.537186527973 -0 -0)
(112.356273143656 -0 -0)
(120.190954817913 -0 -0)
(128.042330892195 -0 -0)
(135.911534901447 -0 -0)
(143.799733191842 -0 -0)
(151.708124446201 -0 -0)
(159.63794973012 -0 -0)
(167.590528662999 -0 -0)
(175.567341610668 -0 -0)
(183.570161396697 -0 -0)
(191.60114530792 -0 -0)
(199.662605278313 -0 -0)
(207.756535808292 -0 -0)
(215.884608494035 -0 -0)
(224.048474781186 -0 -0)
(232.249859731528 -0 -0)
(240.490579188371 -0 -0)
(248.77254534284 -0 -0)
(257.097767679429 -0 -0)
(265.468352850267 -0 -0)
(273.886504330245 -0 -0)
(282.354522400415 -0 -0)
(290.874804655146 -0 -0)
(299.449846673178 -0 -0)
(308.082243166728 -0 -0)
(316.774689317099 -0 -0)
(325.529982444995 -0 -0)
(334.351023713354 -0 -0)
(343.240820133184 -0 -0)
(352.202486621143 -0 -0)
(361.239248193624 -0 -0)
(370.354442234861 -0 -0)
(379.551520825118 -0 -0)
(388.834053159686 -0 -0)
(398.205728074959 -0 -0)
(407.670356455865 -0 -0)
(417.231873908784 -0 -0)
(426.894343316705 -0 -0)
(436.661957492392 -0 -0)
(446.539041934525 -0 -0)
(456.530057478577 -0 -0)
(466.639603208161 -0 -0)
(476.872419186194 -0 -0)
(487.2333894596 -0 -0)
(497.727544933226 -0 -0)
(508.360066488239 -0 -0)
(519.136288024186 -0 -0)
(530.061699682731 -0 -0)
(541.141951132589 -0 -0)
(552.38285489456 -0 -0)
(563.790389927651 -0 -0)
(575.370705122092 -0 -0)
(587.130123161429 -0 -0)
(599.075144337592 -0 -0)
(611.2124506103 -0 -0)
(623.548909881091 -0 -0)
(636.091580353978 -0 -0)
(648.847715202588 -0 -0)
(661.824767427053 -0 -0)
(675.030394984985 -0 -0)
(688.472466128867 -0 -0)
(702.15906519545 -0 -0)
(716.098498507046 -0 -0)
(730.299300824645 -0 -0)
(744.770242099086 -0 -0)
(759.520334608753 -0 -0)
(774.558840641123 -0 -0)
(789.895280604938 -0 -0)
(805.539441708754 -0 -0)
(821.501387203518 -0 -0)
(837.791466264197 -0 -0)
(854.420324620898 -0 -0)
(871.398915779183 -0 -0)
(888.738513241203 -0 -0)
(906.450723451952 -0 -0)
(924.547499763041 -0 -0)
(943.041157409992 -0 -0)
(961.944389651728 -0 -0)
(981.2702849694 -0 -0)
(1001.03234577385 -0 -0)
(1021.24450844628 -0 -0)
(1041.92116484196 -0 -0)
(1063.07718564386 -0 -0)
(1084.72794537023 -0 -0)
(1106.88934947406 -0 -0)
(1129.57786352491 -0 -0)
(1152.81054478671 -0 -0)
(1176.60507627806 -0 -0)
(1200.97980362288 -0 -0)
(1225.95377496346 -0 -0)
(1251.54678403417 -0 -0)
(1277.77941701252 -0 -0)
(1304.67310307779 -0 -0)
(1332.25016935452 -0 -0)
(1360.53390054499 -0 -0)
(1389.54860358059 -0 -0)
(1419.3196779201 -0 -0)
(1449.87369199313 -0 -0)
(1481.23846629125 -0 -0)
(1513.44316392536 -0 -0)
(1546.5183891965 -0 -0)
(1580.49629519316 -0 -0)
(1615.41070109339 -0 -0)
(1651.29722037875 -0 -0)
(1688.19340095155 -0 -0)
(1726.1388784955 -0 -0)
(1765.1755444161 -0 -0)
(1805.34772999777 -0 -0)
(1846.70240848825 -0 -0)
(1889.28941718703 -0 -0)
(1933.1617017167 -0 -0)
(1978.37558495472 -0 -0)
(2024.99106377336 -0 -0)
(2073.07213648354 -0 -0)
(2122.68716473667 -0 -0)
(2173.90927454871 -0 -0)
(2226.8168033519 -0 -0)
(2281.49377934936 -0 -0)
(2338.03049415921 -0 -0)
(2396.52417755539 -0 -0)
(2457.07924284743 -0 -0)
(2519.80896395656 -0 -0)
(2584.83614126951 -0 -0)
(2652.29169018362 -0 -0)
(2722.31690156307 -0 -0)
(2795.07326437999 -0 -0)
(2870.74444203807 -0 -0)
(2949.52473145099 -0 -0)
(3031.6187518733 -0 -0)
(3117.24962871358 -0 -0)
(3206.66231641317 -0 -0)
(3300.12608942487 -0 -0)
(3397.93756006547 -0 -0)
(3500.42415289858 -0 -0)
(3607.94822639665 -0 -0)
(3720.91131543052 -0 -0)
(3839.76056083827 -0 -0)
(3964.99291057728 -0 -0)
(4097.16507604917 -0 -0)
(4236.90147016752 -0 -0)
(4384.89548052533 -0 -0)
(4541.951205581 -0 -0)
(4708.9362595319 -0 -0)
(4886.87944413441 -0 -0)
(5076.94485067846 -0 -0)
(5280.36024765507 -0 -0)
(5498.8479026466 -0 -0)
(5733.72730447638 -0 -0)
(5988.31363570118 -0 -0)
(6269.22325214642 -0 -0)
(6580.33899513733 -0 -0)
(6923.30539145333 -0 -0)
(7301.56303568727 -0 -0)
(7720.33021508531 -0 -0)
(8187.68301052791 -0 -0)
(8712.09239121621 -0 -0)
(9303.70310818011 -0 -0)
(9973.53513690327 -0 -0)
(10724.9355360431 -0 -0)
(11564.2767559319 -0 -0)
(12510.4468079102 -0 -0)
(13575.7732102794 -0 -0)
(14761.4633524114 -0 -0)
(16082.4111205718 -0 -0)
(17554.6759003188 -0 -0)
(19172.8522329365 -0 -0)
(20944.1087072252 -0 -0)
(22878.784439774 -0 -0)
(24964.878645183 -0 -0)
(27197.9773269912 -0 -0)
(29580.1236881136 -0 -0)
(32086.7078274519 -0 -0)
(34701.4609005621 -0 -0)
(37423.3598803083 -0 -0)
(40224.429073234 -0 -0)
(43074.8197372636 -0 -0)
(45965.9443978661 -0 -0)
(48892.5579435158 -0 -0)
(51828.9816332698 -0 -0)
(54754.6990697765 -0 -0)
(57669.1625855529 -0 -0)
(60571.4994338826 -0 -0)
(63472.0023852905 -0 -0)
(66368.3565792951 -0 -0)
(69251.1097596679 -0 -0)
(72141.8934732398 -0 -0)
(75054.2203326176 -0 -0)
(77988.4162931062 -0 -0)
(80941.7591779705 -0 -0)
(83899.2122991331 -0 -0)
(86846.0915588111 -0 -0)
(89770.8348574929 -0 -0)
(92667.6045857685 -0 -0)
(95535.566608401 -0 -0)
(98375.6460640282 -0 -0)
(101189.703945516 -0 -0)
(103980.030656865 -0 -0)
(106749.082313524 -0 -0)
(109494.375773053 -0 -0)
(112211.576008043 -0 -0)
(114901.27810042 -0 -0)
(117565.78248014 -0 -0)
(120207.255963548 -0 -0)
(122827.711774939 -0 -0)
(125429.031446452 -0 -0)
(128012.941188219 -0 -0)
(130581.064764336 -0 -0)
(133134.917941037 -0 -0)
(135675.941400336 -0 -0)
(138205.471478012 -0 -0)
(140723.090130593 -0 -0)
(143225.465656528 -0 -0)
(145710.968869389 -0 -0)
(148180.597905749 -0 -0)
(150635.295366356 -0 -0)
(153075.92223833 -0 -0)
(155503.311539625 -0 -0)
(157918.222900343 -0 -0)
(160321.387522784 -0 -0)
(162713.464467858 -0 -0)
(165095.088056089 -0 -0)
(167466.826137049 -0 -0)
(169829.233140526 -0 -0)
(172182.817365449 -0 -0)
(174528.08976684 -0 -0)
(176865.529973408 -0 -0)
(179195.622695933 -0 -0)
(181518.832015165 -0 -0)
(183832.940604097 -0 -0)
(186135.551041969 -0 -0)
(188426.838270773 -0 -0)
(190707.206056959 -0 -0)
(192977.024781845 -0 -0)
(195236.639761642 -0 -0)
(197486.374216529 -0 -0)
(199726.537487501 -0 -0)
(201957.41833973 -0 -0)
(204179.296319522 -0 -0)
(206392.443749785 -0 -0)
(208597.108447036 -0 -0)
(210793.565721466 -0 -0)
(212982.026848208 -0 -0)
(215162.777378232 -0 -0)
(217336.004198838 -0 -0)
(219501.993332975 -0 -0)
(221660.927897353 -0 -0)
(223813.06748623 -0 -0)
(225958.5939215 -0 -0)
(228097.749735044 -0 -0)
(230230.694796421 -0 -0)
(232357.643960023 -0 -0)
(234478.761985165 -0 -0)
(236593.924535954 -0 -0)
(238701.464865727 -0 -0)
(240800.053185112 -0 -0)
(242889.869098572 -0 -0)
(244971.117103967 -0 -0)
(247043.972360041 -0 -0)
(249108.633702454 -0 -0)
(251165.278384515 -0 -0)
(253214.110558419 -0 -0)
(255255.305687694 -0 -0)
(257289.057804002 -0 -0)
(259315.525535421 -0 -0)
(261334.893922725 -0 -0)
(263347.312840456 -0 -0)
(265352.964430823 -0 -0)
(267351.992196715 -0 -0)
(269344.569759507 -0 -0)
(271330.828421632 -0 -0)
(273310.929431678 -0 -0)
(275284.994668965 -0 -0)
(277253.175237701 -0 -0)
(279215.586845646 -0 -0)
(281172.374278352 -0 -0)
(283123.650575118 -0 -0)
(285069.556281705 -0 -0)
(287010.196422634 -0 -0)
(288945.706276101 -0 -0)
(290876.186360153 -0 -0)
(292801.759170397 -0 -0)
(294722.509382223 -0 -0)
(296638.548427373 -0 -0)
(298549.940597833 -0 -0)
(300456.774745449 -0 -0)
(302358.338321699 -0 -0)
)
;

boundaryField
{
    electrode
    {
        type            calculated;
        value           uniform (4.53532402161728 -0 -0);
    }
    ground
    {
        type            calculated;
        value           uniform (303307.238470768 -0 -0);
    }
    otherfaces
    {
        type            empty;
    }
}


// ************************************************************************* //
