/*--------------------------------*- C++ -*----------------------------------*\
| =========                 |                                                 |
| \\      /  F ield         | foam-extend: Open Source CFD                    |
|  \\    /   O peration     | Version:     4.0                                |
|   \\  /    A nd           | Web:         http://www.foam-extend.org         |
|    \\/     M anipulation  |                                                 |
\*---------------------------------------------------------------------------*/
FoamFile
{
    version     2.0;
    format      ascii;
    class       volScalarField;
    location    "4.5e-06";
    object      electron;
}
// * * * * * * * * * * * * * * * * * * * * * * * * * * * * * * * * * * * * * //

dimensions      [0 0 0 1 0 0 0];

internalField   nonuniform List<scalar> 
300
(
6.01917218917553e+16
6.01902010340807e+16
6.01861873255494e+16
6.01793089757046e+16
6.01696236680806e+16
6.01571097883738e+16
6.01417635425512e+16
6.0123586122111e+16
6.01025766457805e+16
6.00787349376549e+16
6.00520609108748e+16
6.00225545122e+16
5.99902157735329e+16
5.99550447844289e+16
5.99170416846655e+16
5.98762066555588e+16
5.98325399095302e+16
5.97860416803672e+16
5.97367122138494e+16
5.96845517584227e+16
5.96295605534544e+16
5.95717388085696e+16
5.95110866627171e+16
5.94476041106996e+16
5.93812908998666e+16
5.93121464511527e+16
5.92401698860175e+16
5.91653601319075e+16
5.90877159845994e+16
5.90072361106072e+16
5.89239190298325e+16
5.88377630918823e+16
5.87487664508942e+16
5.86569270405402e+16
5.85622425496979e+16
5.84647103988889e+16
5.83643277174016e+16
5.82610913210222e+16
5.81549976902986e+16
5.80460429492607e+16
5.7934222844547e+16
5.78195327249127e+16
5.77019675211012e+16
5.75815217260674e+16
5.7458189375562e+16
5.73319640290902e+16
5.72028387512695e+16
5.7070806093613e+16
5.69358580767586e+16
5.6797986173198e+16
5.6657181290538e+16
5.65134337553275e+16
5.63667332975123e+16
5.6217069035547e+16
5.60644294622248e+16
5.5908802431267e+16
5.57501751447254e+16
5.5588534141249e+16
5.54238652852647e+16
5.52561537571254e+16
5.50853840442738e+16
5.49115399334802e+16
5.4734604504199e+16
5.45545601231028e+16
5.43713884398387e+16
5.41850703840605e+16
5.39955861637869e+16
5.38029152651279e+16
5.36070364534417e+16
5.34079277759527e+16
5.32055665658858e+16
5.29999294481608e+16
5.27909923466835e+16
5.25787304932752e+16
5.23631184382855e+16
5.21441300629141e+16
5.19217385932821e+16
5.1695916616288e+16
5.14666360972612e+16
5.12338683994549e+16
5.09975843053932e+16
5.07577540400879e+16
5.05143472961454e+16
5.02673332607725e+16
5.00166806446897e+16
4.9762357712946e+16
4.95043323176447e+16
4.92425719325666e+16
4.89770436896738e+16
4.87077144174854e+16
4.84345506812932e+16
4.81575188251853e+16
4.78765850158513e+16
4.75917152881202e+16
4.73028755921675e+16
4.70100318423545e+16
4.67131499676203e+16
4.64121959633529e+16
4.61071359446631e+16
4.57979362009618e+16
4.54845632517432e+16
4.5166983903461e+16
4.48451653073827e+16
4.4519075018282e+16
4.41886810538382e+16
4.38539519545781e+16
4.35148568442023e+16
4.31713654901256e+16
4.28234483640308e+16
4.24710767022415e+16
4.21142225657061e+16
4.17528588993549e+16
4.13869595905997e+16
4.10164995267191e+16
4.0641454650861e+16
4.02618020163813e+16
3.98775198392231e+16
3.94885875480262e+16
3.90949858316407e+16
3.86966966837028e+16
3.82937034439173e+16
3.78859908356748e+16
3.74735449996179e+16
3.70563535227517e+16
3.6634405462676e+16
3.6207691366514e+16
3.5776203284073e+16
3.53399347747693e+16
3.48988809078414e+16
3.44530382553656e+16
3.40024048773145e+16
3.35469802988435e+16
3.30867654794765e+16
3.26217627635204e+16
3.21519758497934e+16
3.16774097180591e+16
3.11980704897614e+16
3.07139654481973e+16
3.02251030938138e+16
2.97314924657513e+16
2.9233141852298e+16
2.87300584923159e+16
2.82222493806185e+16
2.77097217175144e+16
2.71924828231831e+16
2.66705399494001e+16
2.6143900057659e+16
2.56125695780567e+16
2.50765541409328e+16
2.4535858314312e+16
2.39904852818431e+16
2.34404365625439e+16
2.28857117135305e+16
2.23263078334218e+16
2.17622197153781e+16
2.11934387120145e+16
2.06199533040525e+16
2.00417489320672e+16
1.94588050927917e+16
1.88711009483518e+16
1.8278602230762e+16
1.76812677490608e+16
1.70790025019745e+16
1.64714782124142e+16
1.58581828845896e+16
1.52386836397853e+16
1.46126830971706e+16
1.39799391620477e+16
1.33401734849195e+16
1.26930622118206e+16
1.20383066239442e+16
1.13757090758229e+16
1.07054588539583e+16
1.00283864248923e+16
9.34571790730548e+15
8.65906311729516e+15
7.97091747673017e+15
7.28462682065197e+15
6.60412007844798e+15
5.9342315099722e+15
5.28063174720536e+15
4.64933408326681e+15
4.04663257755672e+15
3.47881238347004e+15
2.95154173741162e+15
2.46961864329262e+15
2.03666369879927e+15
1.65467476813483e+15
1.32398368839316e+15
1.04335035304689e+15
810032766841756
619927266412032
467982582674061
348993397688050
257577901720300
188433936379586
136737205986877
97025029135699.4
67196136661172.9
45873876593527.1
30425130600817.6
19363880335730.7
11927288162196.4
7305773837066.9
4625283969593.37
3127741331014.4
2293527888388.56
1820067153686.66
1544635996668.96
1381017200612.86
1282778427119.39
1223957301749.86
1189480426259.02
1170184873611.24
1160267586131.53
1155893267528.35
1154510815544.75
1154410186038.73
1154531837142.93
1154141610265.84
1152665671119.36
1149720931724.29
1145116846827.2
1138760705999.8
1130634705913.07
1120774573819.19
1109255724456.19
1096180736698.71
1081670222082.96
1065856344295.33
1048877760569.06
1030875677334.22
1011990755468.99
992360699372.254
972118400847.319
951390538759.718
930296554635.34
908947937781.45
887447771655.38
865890483635.213
844361814254.158
822938721002.947
801690116025.968
780673822341.52
759935202298.634
739517941028.647
719465090282.105
699812960803.022
680591767588.101
661825789783.542
643533917749.891
625730163044.224
608424181730.009
591621805510.47
575325756287.449
559536922097.976
544250672754.63
529458051363.845
515152741906.483
501327744981.289
487972975940.687
475077373812.268
462628991434.209
450615311437.467
439023419062.892
427840164305.801
417052223209.498
406646140501.974
396606239353.929
386910411546.106
377539844768.199
368483217093.102
359729951367.715
351270297612.652
343094975056.656
335195224480.734
327562838992.166
320190219795.21
313070437118.107
306197258324.343
299565234164.784
293168963385.059
287003135141.001
281045640752.824
275267511292.24
269663830637.188
264244930181.703
259023524000.336
254012845823.342
249197571090.784
244552402334.523
240096442468.858
235882043838.958
231901721283.868
228182124628.68
224819595630.771
221952299182.247
219859450314.46
218987196445.012
220155486683.979
)
;

boundaryField
{
    electrode
    {
        type            driftDiffusionElectronDensity;
        seec            0.05;
        Edepend         1;
        field_emission  0;
        field_enhancement_factor 55;
        work_function   5;
        value           uniform 6.01917218917553e+16;
    }
    ground
    {
        type            driftDiffusionElectronDensity;
        seec            0.05;
        Edepend         1;
        field_emission  0;
        field_enhancement_factor 55;
        work_function   5;
        value           uniform 222337113095.134;
    }
    otherfaces
    {
        type            empty;
    }
}


// ************************************************************************* //
