/*--------------------------------*- C++ -*----------------------------------*\
| =========                 |                                                 |
| \\      /  F ield         | foam-extend: Open Source CFD                    |
|  \\    /   O peration     | Version:     4.0                                |
|   \\  /    A nd           | Web:         http://www.foam-extend.org         |
|    \\/     M anipulation  |                                                 |
\*---------------------------------------------------------------------------*/
FoamFile
{
    version     2.0;
    format      ascii;
    class       volVectorField;
    location    "4.5e-06";
    object      J_electron;
}
// * * * * * * * * * * * * * * * * * * * * * * * * * * * * * * * * * * * * * //

dimensions      [1 -1 -1 0 0 0 0];

internalField   nonuniform List<vector> 
300
(
(-1.27070997233141e+19 0 0)
(-1.30363813337494e+19 0 0)
(-1.53919183524195e+19 0 0)
(-1.49308747519169e+19 0 0)
(-1.49310464301021e+19 0 0)
(-1.4919610732038e+19 0 0)
(-1.48603886080829e+19 0 0)
(-1.4816286476612e+19 0 0)
(-1.47699435306496e+19 0 0)
(-1.4723008014782e+19 0 0)
(-1.46764301645279e+19 0 0)
(-1.46297571963658e+19 0 0)
(-1.45830778896195e+19 0 0)
(-1.45363978656546e+19 0 0)
(-1.44897069752481e+19 0 0)
(-1.44430081925674e+19 0 0)
(-1.43963023630975e+19 0 0)
(-1.43495905924909e+19 0 0)
(-1.43028718726882e+19 0 0)
(-1.42561354367973e+19 0 0)
(-1.42093494978267e+19 0 0)
(-1.41624497330553e+19 0 0)
(-1.41153461540746e+19 0 0)
(-1.40679854170264e+19 0 0)
(-1.40205280828574e+19 0 0)
(-1.39733022599121e+19 0 0)
(-1.39263134251258e+19 0 0)
(-1.38793527630669e+19 0 0)
(-1.38323502849247e+19 0 0)
(-1.37852808605983e+19 0 0)
(-1.37381351785839e+19 0 0)
(-1.36909094037708e+19 0 0)
(-1.36436009946086e+19 0 0)
(-1.35962075257149e+19 0 0)
(-1.35487260758008e+19 0 0)
(-1.35011530428383e+19 0 0)
(-1.3453484393697e+19 0 0)
(-1.34057154250572e+19 0 0)
(-1.33578410246111e+19 0 0)
(-1.33098555405504e+19 0 0)
(-1.32617530453203e+19 0 0)
(-1.32135271213312e+19 0 0)
(-1.31651710783273e+19 0 0)
(-1.31166779042637e+19 0 0)
(-1.30680403027575e+19 0 0)
(-1.30192507250286e+19 0 0)
(-1.29703013763567e+19 0 0)
(-1.29211841819192e+19 0 0)
(-1.28718909921097e+19 0 0)
(-1.28224132971514e+19 0 0)
(-1.2772742535544e+19 0 0)
(-1.27228699413444e+19 0 0)
(-1.26727865423571e+19 0 0)
(-1.2622483351901e+19 0 0)
(-1.25719511061409e+19 0 0)
(-1.25211806137655e+19 0 0)
(-1.24701624215389e+19 0 0)
(-1.24188871442335e+19 0 0)
(-1.23673452092895e+19 0 0)
(-1.2315527122022e+19 0 0)
(-1.2263423275607e+19 0 0)
(-1.22110240875461e+19 0 0)
(-1.21583200249176e+19 0 0)
(-1.21053014685746e+19 0 0)
(-1.20519590165008e+19 0 0)
(-1.1998283149986e+19 0 0)
(-1.1944264586879e+19 0 0)
(-1.18898940829224e+19 0 0)
(-1.18351624985657e+19 0 0)
(-1.17800609305925e+19 0 0)
(-1.17245805666294e+19 0 0)
(-1.16687128160995e+19 0 0)
(-1.16124492930233e+19 0 0)
(-1.15557818956951e+19 0 0)
(-1.14987026650106e+19 0 0)
(-1.14412040817124e+19 0 0)
(-1.13832787954636e+19 0 0)
(-1.13249198305711e+19 0 0)
(-1.12661205847027e+19 0 0)
(-1.12068747675571e+19 0 0)
(-1.11471765187244e+19 0 0)
(-1.1087020365271e+19 0 0)
(-1.10264012819965e+19 0 0)
(-1.09653146916367e+19 0 0)
(-1.09037564317634e+19 0 0)
(-1.08417229368716e+19 0 0)
(-1.07792110129014e+19 0 0)
(-1.07162180813686e+19 0 0)
(-1.06527420529388e+19 0 0)
(-1.05887813976567e+19 0 0)
(-1.05243351045673e+19 0 0)
(-1.04594028286071e+19 0 0)
(-1.0393984673416e+19 0 0)
(-1.0328081374249e+19 0 0)
(-1.02616943018676e+19 0 0)
(-1.01948252994467e+19 0 0)
(-1.01274768972636e+19 0 0)
(-1.00596521185837e+19 0 0)
(-9.99135459904586e+18 0 0)
(-9.92258849573804e+18 0 0)
(-9.85335853612637e+18 0 0)
(-9.78366995090742e+18 0 0)
(-9.7135284335385e+18 0 0)
(-9.64294021814315e+18 0 0)
(-9.57191185016029e+18 0 0)
(-9.50045038000944e+18 0 0)
(-9.42856313493835e+18 0 0)
(-9.35625772638614e+18 0 0)
(-9.2835420362113e+18 0 0)
(-9.21042408544246e+18 0 0)
(-9.13691197979178e+18 0 0)
(-9.06301386087937e+18 0 0)
(-8.9887377376118e+18 0 0)
(-8.91409149511703e+18 0 0)
(-8.83908265249866e+18 0 0)
(-8.76371837009002e+18 0 0)
(-8.68800520725044e+18 0 0)
(-8.6119490407482e+18 0 0)
(-8.53555485371059e+18 0 0)
(-8.45882659783836e+18 0 0)
(-8.38176696338481e+18 0 0)
(-8.30437719451002e+18 0 0)
(-8.22665681551019e+18 0 0)
(-8.14860339632878e+18 0 0)
(-8.07021229076382e+18 0 0)
(-7.99147620981749e+18 0 0)
(-7.9123850493779e+18 0 0)
(-7.83292538213263e+18 0 0)
(-7.75308018423012e+18 0 0)
(-7.67282706341744e+18 0 0)
(-7.59214344548175e+18 0 0)
(-7.51099815449382e+18 0 0)
(-7.42931105685701e+18 0 0)
(-7.34721513777424e+18 0 0)
(-7.26433640056042e+18 0 0)
(-7.18068278313458e+18 0 0)
(-7.09690174326912e+18 0 0)
(-7.01243631493867e+18 0 0)
(-6.92436937952146e+18 0 0)
(-6.8325890562143e+18 0 0)
(-6.74149192644533e+18 0 0)
(-6.65149519535748e+18 0 0)
(-6.56040984185877e+18 0 0)
(-6.46772741959529e+18 0 0)
(-6.37319217502696e+18 0 0)
(-6.27656267236848e+18 0 0)
(-6.17759318477059e+18 0 0)
(-6.07594220863095e+18 0 0)
(-5.97143982776412e+18 0 0)
(-5.86336669468721e+18 0 0)
(-5.75190331053467e+18 0 0)
(-5.63597238876609e+18 0 0)
(-5.5147581310805e+18 0 0)
(-5.39089892176875e+18 0 0)
(-5.25468426818499e+18 0 0)
(-5.12177012909434e+18 0 0)
(-4.97187528445526e+18 0 0)
(-4.81017910060699e+18 0 0)
(-4.6677679318709e+18 0 0)
(-4.4268787441934e+18 0 0)
(-4.28600234878593e+18 0 0)
(-3.80549201721714e+18 0 0)
(-2.79194802539568e+18 0 0)
(-2.4364858760191e+18 0 0)
(-2.55350912691418e+18 0 0)
(-2.41258759418334e+18 0 0)
(-2.09416078812617e+18 0 0)
(-1.4404199561581e+18 0 0)
(-9.35736391970587e+17 0 0)
(-4.4645600554333e+17 0 0)
(-1.00985522691768e+17 0 0)
(-7.05762567086146e+17 0 0)
(-1.38195286627975e+18 0 0)
(-7.6435869488749e+17 0 0)
(-1.09336892335666e+18 0 0)
(-2.55926523217943e+18 0 0)
(-2.73873371471335e+18 0 0)
(-2.86172552513874e+18 0 0)
(-4.40772919099707e+18 0 0)
(-4.5357946861802e+18 0 0)
(-4.08804901357984e+18 0 0)
(-4.2333434839428e+18 0 0)
(-3.17954811627359e+18 0 0)
(-1.26637590151535e+18 0 0)
(2.82558383872541e+17 0 0)
(2.62944964368296e+18 0 0)
(5.38447699084155e+18 0 0)
(7.37524726565857e+18 0 0)
(9.07629184460731e+18 0 0)
(1.03228763620342e+19 0 0)
(1.12437530203799e+19 0 0)
(1.10168442361492e+19 0 0)
(8.89029790915009e+18 0 0)
(8.44930352896357e+18 0 0)
(6.36353064929729e+18 0 0)
(4.71260494915659e+18 0 0)
(7.65372917334367e+18 0 0)
(-4.66496820182732e+18 0 0)
(8.82842280588231e+17 0 0)
(-1.16167447921754e+17 0 0)
(-2.29919622414346e+18 0 0)
(-2.36148313393373e+18 0 0)
(-2.270307047062e+18 0 0)
(-2.2918382245225e+18 0 0)
(-2.47963009797585e+18 0 0)
(-2.71149605218168e+18 0 0)
(-2.88561523518441e+18 0 0)
(-2.97714615393022e+18 0 0)
(-3.00981909623671e+18 0 0)
(-3.00909469952486e+18 0 0)
(-2.9866664845713e+18 0 0)
(-2.95639162937285e+18 0 0)
(-2.91697703203231e+18 0 0)
(-2.87667090709478e+18 0 0)
(-2.83419286254221e+18 0 0)
(-2.78876479042298e+18 0 0)
(-2.74153691056655e+18 0 0)
(-2.69344526088068e+18 0 0)
(-2.64545255961703e+18 0 0)
(-2.59651040914722e+18 0 0)
(-2.54839312195697e+18 0 0)
(-2.49943956756717e+18 0 0)
(-2.45053091884971e+18 0 0)
(-2.40167602826961e+18 0 0)
(-2.3530273154414e+18 0 0)
(-2.30465921127562e+18 0 0)
(-2.25666151188304e+18 0 0)
(-2.20912435882682e+18 0 0)
(-2.16212251301243e+18 0 0)
(-2.11572366202915e+18 0 0)
(-2.06998818096549e+18 0 0)
(-2.02496909243688e+18 0 0)
(-1.98071281473585e+18 0 0)
(-1.93725880560152e+18 0 0)
(-1.89464045001745e+18 0 0)
(-1.85288478613102e+18 0 0)
(-1.81201343737573e+18 0 0)
(-1.77204250843455e+18 0 0)
(-1.7329832580483e+18 0 0)
(-1.69484297069908e+18 0 0)
(-1.65762150261901e+18 0 0)
(-1.62132856558058e+18 0 0)
(-1.58590584550598e+18 0 0)
(-1.55141498989116e+18 0 0)
(-1.51791606843803e+18 0 0)
(-1.48522326362075e+18 0 0)
(-1.45341079790859e+18 0 0)
(-1.42245228183158e+18 0 0)
(-1.39233584813804e+18 0 0)
(-1.3630426879713e+18 0 0)
(-1.3345538583719e+18 0 0)
(-1.30684943021743e+18 0 0)
(-1.27990910921625e+18 0 0)
(-1.25371411670519e+18 0 0)
(-1.22824813175425e+18 0 0)
(-1.20342787440374e+18 0 0)
(-1.17934806360499e+18 0 0)
(-1.1559429654648e+18 0 0)
(-1.13311781901157e+18 0 0)
(-1.11093428749505e+18 0 0)
(-1.08934445772688e+18 0 0)
(-1.06833307653527e+18 0 0)
(-1.04787957814671e+18 0 0)
(-1.02796531524955e+18 0 0)
(-1.00857229969069e+18 0 0)
(-9.89681924115223e+17 0 0)
(-9.71278197402909e+17 0 0)
(-9.53319625216992e+17 0 0)
(-9.3579085379479e+17 0 0)
(-9.18833083726891e+17 0 0)
(-9.0221825986164e+17 0 0)
(-8.86020602820455e+17 0 0)
(-8.70217034435543e+17 0 0)
(-8.54800118680827e+17 0 0)
(-8.39757234690967e+17 0 0)
(-8.25076892864867e+17 0 0)
(-8.10747726379772e+17 0 0)
(-7.96758718827472e+17 0 0)
(-7.83098756122166e+17 0 0)
(-7.69758336058201e+17 0 0)
(-7.56718145021591e+17 0 0)
(-7.43985044532206e+17 0 0)
(-7.31371031972769e+17 0 0)
(-7.19334589533281e+17 0 0)
(-7.07606883194756e+17 0 0)
(-6.96062160320484e+17 0 0)
(-6.84779650887787e+17 0 0)
(-6.73769300987627e+17 0 0)
(-6.62784943917331e+17 0 0)
(-6.52455153954098e+17 0 0)
(-6.42464523033113e+17 0 0)
(-6.32599117714115e+17 0 0)
(-6.22494964056182e+17 0 0)
(-6.13838072396693e+17 0 0)
(-6.04583404928601e+17 0 0)
(-5.96328213432686e+17 0 0)
(-5.88242276219118e+17 0 0)
(-5.81655451741282e+17 0 0)
(-5.75521320125022e+17 0 0)
(-5.65487738029248e+17 0 0)
)
;

boundaryField
{
    electrode
    {
        type            calculated;
        value           uniform (-1.51682969850994e+19 0 0);
    }
    ground
    {
        type            calculated;
        value           uniform (-5.62937949987936e+17 0 0);
    }
    otherfaces
    {
        type            empty;
    }
}


// ************************************************************************* //
