/*--------------------------------*- C++ -*----------------------------------*\
| =========                 |                                                 |
| \\      /  F ield         | foam-extend: Open Source CFD                    |
|  \\    /   O peration     | Version:     4.0                                |
|   \\  /    A nd           | Web:         http://www.foam-extend.org         |
|    \\/     M anipulation  |                                                 |
\*---------------------------------------------------------------------------*/
FoamFile
{
    version     2.0;
    format      ascii;
    class       volScalarField;
    location    "4.5e-06";
    object      PhiMean;
}
// * * * * * * * * * * * * * * * * * * * * * * * * * * * * * * * * * * * * * //

dimensions      [0 0 0 1 0 0 0];

internalField   nonuniform List<scalar> 
300
(
699.983656658286
699.98207967942
699.980241185294
699.978160576542
699.975847445662
699.973294576093
699.970500896789
699.96746503699
699.964185677954
699.960661842977
699.956892720523
699.952877688975
699.948616276191
699.944108147633
699.939353092991
699.934351012785
699.929101907536
699.923605870631
699.917863079186
699.911873785565
699.905638311355
699.899157041243
699.892430417186
699.885458932719
699.878243126326
699.870783589097
699.863080951051
699.855135876085
699.846949060815
699.838521224262
699.829853100399
699.820945453087
699.811799066343
699.802414725487
699.792793213072
699.782935304038
699.772841759851
699.762513326078
699.751950726484
699.741154656292
699.730125779227
699.718864724783
699.707372079666
699.695648383452
699.683694124077
699.671509733435
699.659095582805
699.646451979807
699.633579164969
699.620477312981
699.607146532057
699.593586876656
699.579798335506
699.56578083292
699.551534207686
699.537058204456
699.522352458797
699.507416490736
699.492249698943
699.476851353833
699.461220592258
699.445356411549
699.429257662448
699.412923041906
699.396351112452
699.379540294405
699.362488833456
699.345194794928
699.327656057602
699.309870306371
699.29183502479
699.27354748597
699.255004760068
699.236203711373
699.217140971967
699.197812944674
699.178215811887
699.158345518542
699.138197760646
699.117767951267
699.097051249262
699.076042511731
699.054736279816
699.033126771372
699.011207864032
698.988973103772
698.96641568539
698.943528423129
698.920303735367
698.896733641507
698.872809740508
698.848523192613
698.823864749528
698.798824687687
698.773392785534
698.747558307186
698.721309979983
698.694635975832
698.6675238842
698.639960694445
698.611932773972
698.583425836001
698.554424906356
698.524914330118
698.494877710666
698.464297880916
698.433156881063
698.401435905385
698.369115286429
698.336174440648
698.302591817615
698.268344858285
698.2334099434
698.197762353688
698.161376217808
698.124224441527
698.086278674581
698.047509254891
698.007885111709
697.967373682415
697.925940830796
697.883550788833
697.840166045234
697.795747282152
697.750253246251
697.703640604747
697.655863815876
697.606875014803
697.556623837366
697.5050572612
697.452119429241
697.39775146182
697.341891240876
697.284473169932
697.225427928569
697.164682248323
697.102158565799
697.037774668879
696.971443293503
696.903071729586
696.832561337599
696.759807036125
696.684696733312
696.607110683429
696.526920786363
696.443989807965
696.358170416546
696.269304139011
696.177220147361
696.081733897468
695.982645666068
695.879738741279
695.772777379546
695.661504512566
695.545639008179
695.424872412801
695.298865503889
695.167243640856
695.029592126676
694.88544934896
694.734300550599
694.575563599684
694.408553290515
694.232465380854
694.046385343693
693.849271598364
693.639917996132
693.416904406141
693.178548350574
692.922851800922
692.647453082412
692.349607636094
692.026197820995
691.673580372785
691.287527149047
690.863407059277
690.396043434667
689.879658728574
689.308240081757
688.675421009557
687.974572348727
687.199223159156
686.34314083845
685.400298845087
684.365568299042
683.23453404463
682.003534438111
680.669971037988
679.232286424208
677.689640428376
676.041840482341
674.289296358894
672.433065437528
670.474544183539
668.414924836589
666.255170118903
663.996015045017
661.637923676902
659.181360439555
656.626605261874
653.973948563349
651.223755953987
648.376485539198
645.432945516789
642.394176559309
639.261239915066
636.035176022367
632.716946912395
629.30745991162
625.807531685643
622.217925080027
618.539315336982
614.772449902219
610.918215058879
606.977450405701
602.95091819153
598.839340631196
594.64337167631
590.363635597924
586.000695882298
581.555095236157
577.027321856822
572.41785094596
567.727109184272
562.955518471076
558.103566585642
553.171847318806
548.160906525516
543.071286891564
537.903485919398
532.658002543003
527.335292457928
521.93581809167
516.460003379402
510.908283130796
505.281052797757
499.578721435131
493.801659087762
487.950252300484
482.024848989213
476.025816564025
469.953484765995
463.808209013394
457.590390363253
451.30050896273
444.938996283058
438.506310579648
432.002860837699
425.429085221841
418.785371785391
412.07214019771
405.28975886529
398.4386303758
391.519104550898
384.531568132196
377.476353302865
370.35383200095
363.164319642446
355.908174242059
348.585695291944
341.197227622221
333.743055569646
326.223511518634
318.638865143298
310.989437079817
303.275487498679
295.49733825993
287.655250134303
279.749586707197
271.780673353071
263.74890875616
255.6546049091
247.498149760702
239.279840956544
231.000056383623
222.659079803497
214.257279672606
205.794926358816
197.272379464388
188.689896445611
180.047828590351
171.346420831017
162.586016691334
153.766848957188
144.889254061426
135.953453080975
126.959775896426
117.908432175553
108.79974573187
99.6339151033509
90.4112584494616
81.1319637059309
71.7963440858054
62.4045772157224
52.9569717209589
43.4536955783384
33.8950536945592
24.2812048741782
14.6124514412445
4.88894394265489
)
;

boundaryField
{
    electrode
    {
        type            calculated;
        value           uniform 700.000000000347;
    }
    ground
    {
        type            calculated;
        value           uniform 0;
    }
    otherfaces
    {
        type            empty;
    }
}


// ************************************************************************* //
