/*--------------------------------*- C++ -*----------------------------------*\
| =========                 |                                                 |
| \\      /  F ield         | foam-extend: Open Source CFD                    |
|  \\    /   O peration     | Version:     4.0                                |
|   \\  /    A nd           | Web:         http://www.foam-extend.org         |
|    \\/     M anipulation  |                                                 |
\*---------------------------------------------------------------------------*/
FoamFile
{
    version     2.0;
    format      ascii;
    class       volScalarField;
    location    "4.5e-06";
    object      Te;
}
// * * * * * * * * * * * * * * * * * * * * * * * * * * * * * * * * * * * * * //

dimensions      [0 0 0 1 0 0 0];

internalField   nonuniform List<scalar> 
300
(
40322.6823931715
40322.9865141411
40323.1738509859
40323.290042432
40323.4712796218
40323.691523982
40323.9541840828
40324.2611301284
40324.6116019689
40325.005754713
40325.4435988143
40325.9251216276
40326.4503373471
40327.0192604428
40327.6319114036
40328.288316902
40328.9885091697
40329.7325261213
40330.5204114818
40331.3522155023
40332.2279967847
40333.1478254517
40334.1117866057
40335.1199797514
40336.17250416
40337.2694365316
40338.4108436485
40339.5968111641
40340.8274474392
40342.1028728628
40343.4232163722
40344.788614277
40346.1992099393
40347.6551537722
40349.156603349
40350.7037235645
40352.2966868003
40353.9356730936
40355.6208703129
40357.3524743322
40359.1306892048
40360.9557273415
40362.8278096948
40364.7471659442
40366.7140346877
40368.7286636389
40370.7913098308
40372.9022398312
40375.0617299558
40377.2700664989
40379.5275459706
40381.8344753385
40384.1911722871
40386.59796548
40389.055194838
40391.5632118253
40394.1223797483
40396.7330740677
40399.3956827223
40402.1106064669
40404.878259222
40407.6990684422
40410.5734754943
40413.5019360576
40416.4849205352
40419.5229144858
40422.6164190745
40425.7659515372
40428.972045673
40432.2352523507
40435.5561400392
40438.9352953633
40442.3733236811
40445.8708496854
40449.4285180361
40453.0469940158
40456.7269642156
40460.469137257
40464.2742445373
40468.1430410163
40472.0763060372
40476.0748441837
40480.1394861787
40484.2710898246
40488.4705409916
40492.7387546471
40497.0766759402
40501.4852813393
40505.9655798209
40510.5186141234
40515.145462063
40519.8472379113
40524.6250938505
40529.4802215066
40534.4138535511
40539.4272654008
40544.5217770036
40549.6987547215
40554.95961332
40560.3058180676
40565.7388869533
40571.2603930304
40576.871966901
40582.5752993404
40588.3721440835
40594.2643207771
40600.2537181087
40606.3422971399
40612.5320948395
40618.8252278456
40625.2238964734
40631.7303889828
40638.3470861328
40645.0764660421
40651.9211093855
40658.8837049509
40665.9670555893
40673.1740845953
40680.5078425523
40687.9715146867
40695.5684287766
40703.3020636686
40711.1760584595
40719.1942224094
40727.3605456512
40735.6792107904
40744.1546054739
40752.7913360253
40761.5942422659
40770.5684137708
40779.7192071392
40789.0522650856
40798.5735424021
40808.2893102877
40818.2062111857
40828.3313003904
40838.6719610291
40849.2359936058
40860.0320660812
40871.0697321266
40882.3586188505
40893.9083894163
40905.7295490378
40917.8336397628
40930.2330796151
40942.9412074968
40955.9723688565
40969.3420271907
40983.0668649871
40997.1649627828
41011.6558959653
41026.5609491129
41041.9034638811
41057.70848654
41074.0044084664
41090.8212359069
41108.1925372049
41126.1578706091
41144.754171531
41164.0383613184
41184.058423001
41204.9153054057
41226.8557792863
41249.9454237165
41274.027750114
41299.1369477666
41325.4739430425
41353.2905324927
41382.7952216112
41414.1313341366
41447.470756815
41482.7252953353
41519.7913261515
41559.3318238096
41601.8628854832
41646.9947562985
41695.1631529269
41747.5361027735
41804.1626086878
41865.7424239891
41934.5698884623
42012.2734376168
42101.4176197569
42207.0877834589
42334.869400164
42492.4406792695
42692.349873986
42950.170731953
43286.315643036
43730.9762015871
44327.9155609515
45137.0428492595
46228.6656720208
47719.6912625831
49793.7102934278
52681.5750573218
56887.1497803284
62306.4739395994
69131.6578933306
79851.9791609406
94887.5661910477
115157.340010515
143026.174335307
180503.179751304
228394.478161342
285085.528965682
346733.402614287
408893.50706354
468077.470804666
522176.866298736
570376.568737917
612705.937356576
649659.56743907
681897.067780238
710040.555322623
734737.594339427
756574.374130234
776030.912588858
793490.04465869
809271.707800346
823628.063479052
836769.865384553
848890.338692861
860141.418564387
870649.271916053
880518.044837472
889834.356105178
898669.984376426
907084.320407646
915126.439667615
922836.68871806
930247.977862465
937386.832164514
944274.254228025
950926.438148677
957355.363516036
963569.294812216
969573.202083544
975369.123077465
980956.462929965
986332.30838846
991491.492131111
996427.682300712
1001132.36427952
1005592.62620094
1009796.45881056
1013732.79847821
1017387.87456647
1020746.99016514
1023794.41629193
1026513.60023273
1028887.24773166
1030897.41057108
1032525.51387079
1033752.30715977
1034556.84836473
1034914.03805772
1034820.81459583
1034246.39103445
1033170.98629301
1031572.95164244
1029431.07463121
1026723.79153845
1023429.31225093
1019525.55289572
1014990.1401403
1009800.34504884
1003933.86729111
997369.279741738
990080.24598543
982041.495285616
973230.925234396
963622.536861647
953189.569061513
941903.969238466
929736.44318748
916656.261420763
902631.0708784
887626.683873263
871606.771012729
854532.944196269
836363.66021207
817061.69523316
796580.615006306
774863.439544548
751856.604941484
727495.596894916
701702.670866895
674402.032534937
645505.372851262
614901.574058861
582464.686975296
548058.564614969
511496.203001521
472551.91624735
430944.114147836
386272.628751283
337987.674162382
285283.467082251
227104.647936634
)
;

boundaryField
{
    electrode
    {
        type            electronTemperature;
        seec            0.05;
        Tse             1000;
        Edepend         1;
        TFN             1000;
        field_emission  0;
        field_enhancement_factor 55;
        work_function   5;
        value           uniform 40322.6823931715;
    }
    ground
    {
        type            electronTemperature;
        seec            0.05;
        Tse             1000;
        Edepend         1;
        TFN             1000;
        field_emission  0;
        field_enhancement_factor 55;
        work_function   5;
        value           uniform 194093.417866734;
    }
    otherfaces
    {
        type            empty;
    }
}


// ************************************************************************* //
