/*--------------------------------*- C++ -*----------------------------------*\
| =========                 |                                                 |
| \\      /  F ield         | foam-extend: Open Source CFD                    |
|  \\    /   O peration     | Version:     4.0                                |
|   \\  /    A nd           | Web:         http://www.foam-extend.org         |
|    \\/     M anipulation  |                                                 |
\*---------------------------------------------------------------------------*/
FoamFile
{
    version     2.0;
    format      ascii;
    class       volScalarField;
    location    "4.5e-06";
    object      TeMean;
}
// * * * * * * * * * * * * * * * * * * * * * * * * * * * * * * * * * * * * * //

dimensions      [0 0 0 1 0 0 0];

internalField   nonuniform List<scalar> 
300
(
33143.1008475043
33143.390286497
33143.4939085801
33143.4409974263
33143.3872438997
33143.3142196224
33143.224582939
33143.1215752661
33143.0055606907
33142.8774075313
33142.7379152476
33142.5878440135
33142.4279328933
33142.258875259
33142.0813407611
33141.8959732065
33141.7033888505
33141.5041830964
33141.2989298403
33141.0881812017
33140.8724714596
33140.6523140341
33140.4282048598
33140.2006212973
33139.9700215331
33139.7368602477
33139.501578303
33139.2645989742
33139.0263401046
33138.7871975312
33138.547543217
33138.3077600833
33138.0682385009
33137.8293483858
33137.5914471331
33137.3548738696
33137.1199608354
33136.8870459374
33136.6564603524
33136.4285221246
33136.2035390671
33135.9818249195
33135.7636876671
33135.5494254536
33135.3393315175
33135.1336937775
33134.9327941247
33134.7369070362
33134.5462949334
33134.3612080711
33134.1818849172
33134.0085730608
33133.8415409894
33133.681051944
33133.5273707177
33133.3807721237
33133.2415185135
33133.1098625663
33132.9860656139
33132.8703885693
33132.7630896737
33132.6644373962
33132.5746760124
33132.4940402043
33132.4228053076
33132.3612661834
33132.3097107209
33132.2684226922
33132.2376870976
33132.2177970395
33132.2090421239
33132.2116959791
33132.2260531849
33132.2524239751
33132.2911038097
33132.3423769046
33132.4065558615
33132.4839923823
33132.5750227128
33132.6799762361
33132.799224289
33132.933151233
33133.0821233856
33133.2464997015
33133.4266456348
33133.6229654149
33133.8358957798
33134.0658666382
33134.3133042586
33134.5786590576
33134.8623743604
33135.1649028456
33135.4867752448
33135.8285134927
33136.1906365856
33136.5737094738
33136.9783018932
33137.405003516
33137.8544164419
33138.3271677629
33138.8239311258
33139.3453625458
33139.8921376988
33140.4650064421
33141.0647378813
33141.6921191704
33142.3479602486
33143.0331054432
33143.748450674
33144.4949234431
33145.2734888997
33146.0851481204
33146.9309312548
33147.8119415026
33148.7293131094
33149.6842087906
33150.67783581
33151.7114862448
33152.7865403957
33153.9043824938
33155.066451169
33156.2742708226
33157.5294294964
33158.8336162943
33160.1886354327
33161.5963532047
33163.0586923741
33164.5777013867
33166.1555557181
33167.7945095836
33169.4969307911
33171.2653430222
33173.1024264291
33175.0109493687
33176.9938253211
33179.0542364754
33181.1955841198
33183.4214597277
33185.73568058
33188.1423162724
33190.6457102964
33193.2505014624
33195.9616594559
33198.7845156795
33201.7248527746
33204.7889834508
33207.9837712736
33211.3167002019
33214.7958444807
33218.4300145623
33222.2289952642
33226.2035349685
33230.3654805296
33234.7281099676
33239.3061164997
33244.1159708804
33249.176272577
33254.5083606823
33260.1373738526
33266.0950601801
33272.4345554582
33279.226999023
33286.518025279
33294.3269846804
33302.7014408555
33311.7357503756
33321.548678713
33332.2627718402
33343.9930146307
33356.8291745749
33370.8048606965
33385.977140945
33402.5199054821
33420.4835157607
33439.7876009506
33460.6125086289
33483.1552633754
33507.5781843161
33534.6626897833
33565.7456623158
33602.8378168615
33649.7192323067
33712.3637499089
33799.6000091952
33925.2785889245
34110.0432440944
34383.9086264812
34791.7204361432
35400.8733100503
36313.9406916877
37689.9800700658
39781.3317954936
43000.4361430157
48153.8459264757
56040.0218964774
67168.0911701373
83385.6988674298
105493.827456047
135210.842713047
172933.075135264
218050.340495588
268879.062740163
323253.482065199
378603.782439398
432575.973091435
483348.208367449
529785.834441182
571387.036136919
608177.858257815
640519.737445633
668900.278515975
693842.559276915
715866.577866558
735430.654401659
752932.653894522
768718.420283018
783073.417396355
796231.91680544
808385.696856809
819692.527450803
830280.92368114
840254.581070945
849702.845538577
858702.595099303
867315.724722164
875592.787875143
883575.111705541
891296.161283675
898782.725080426
906055.911829709
913131.936173351
920022.773614366
926736.70039417
933278.639219347
939650.602476883
945852.106360531
951880.368340489
957730.573790438
963396.087363424
968868.654732433
974138.565141875
979194.777605812
984025.112564171
988616.568770021
992955.181668249
997026.195620102
1000814.02102775
1004302.53770119
1007475.33429591
1010315.24661875
1012805.39855178
1014928.91297613
1016668.27615054
1018005.76758348
1018923.30539807
1019402.54208126
1019422.07913758
1018966.89946226
1018024.23839931
1016570.68018487
1014587.66859202
1012056.15469615
1008957.25252432
1005271.88880197
1000980.78887459
996064.97374015
990504.621954509
984279.21479701
977368.555000408
969751.757132735
961407.314612122
952313.102105311
942446.266978582
931782.726472793
920297.145606895
907962.896472098
894751.931451153
880634.581768281
865579.40290202
849552.886222338
832519.404122963
814440.924970667
795281.971833308
774996.77439331
753532.651670065
730838.837462333
706852.499856165
681500.549052378
654711.8925633
626400.108751312
596458.537399201
564769.819224038
531197.507348379
495562.270379068
457648.216257927
417180.722582749
373771.962144609
326893.250633784
275771.504407503
219383.260739052
)
;

boundaryField
{
    electrode
    {
        type            calculated;
        value           uniform 33143.1008475071;
    }
    ground
    {
        type            calculated;
        value           uniform 187411.178209387;
    }
    otherfaces
    {
        type            empty;
    }
}


// ************************************************************************* //
