/*--------------------------------*- C++ -*----------------------------------*\
| =========                 |                                                 |
| \\      /  F ield         | foam-extend: Open Source CFD                    |
|  \\    /   O peration     | Version:     4.0                                |
|   \\  /    A nd           | Web:         http://www.foam-extend.org         |
|    \\/     M anipulation  |                                                 |
\*---------------------------------------------------------------------------*/
FoamFile
{
    version     2.0;
    format      ascii;
    class       volScalarField;
    location    "8.8e-06";
    object      Ar;
}
// * * * * * * * * * * * * * * * * * * * * * * * * * * * * * * * * * * * * * //

dimensions      [0 0 0 1 0 0 0];

internalField   nonuniform List<scalar> 
300
(
3.21880181955967e+22
3.21880181529859e+22
3.21880181829187e+22
3.21880181954929e+22
3.21880182165749e+22
3.21880182457109e+22
3.21880182811489e+22
3.21880183235685e+22
3.21880183728455e+22
3.21880184289448e+22
3.21880184918721e+22
3.21880185616156e+22
3.21880186381698e+22
3.21880187215313e+22
3.21880188116977e+22
3.21880189086681e+22
3.21880190124456e+22
3.218801912303e+22
3.21880192404215e+22
3.21880193646227e+22
3.21880194956368e+22
3.21880196334675e+22
3.21880197781193e+22
3.21880199295971e+22
3.21880200879222e+22
3.21880202530881e+22
3.21880204251024e+22
3.21880206039748e+22
3.21880207897038e+22
3.21880209822969e+22
3.21880211817805e+22
3.21880213881562e+22
3.21880216014192e+22
3.21880218215778e+22
3.21880220486407e+22
3.21880222826173e+22
3.21880225235219e+22
3.21880227713627e+22
3.21880230261476e+22
3.21880232878883e+22
3.2188023556597e+22
3.21880238322841e+22
3.21880241149617e+22
3.21880244046424e+22
3.21880247013392e+22
3.21880250050657e+22
3.21880253158377e+22
3.2188025633671e+22
3.21880259585908e+22
3.21880262906159e+22
3.21880266297767e+22
3.21880269760786e+22
3.21880273295451e+22
3.21880276901769e+22
3.2188028057984e+22
3.21880284329688e+22
3.21880288151467e+22
3.21880292045335e+22
3.21880296011457e+22
3.21880300050019e+22
3.21880304161168e+22
3.21880308345079e+22
3.21880312601976e+22
3.21880316932235e+22
3.21880321336008e+22
3.21880325813239e+22
3.218803303641e+22
3.2188033498877e+22
3.2188033968743e+22
3.21880344460263e+22
3.21880349307476e+22
3.21880354229335e+22
3.21880359226054e+22
3.21880364297756e+22
3.21880369444772e+22
3.21880374667287e+22
3.21880379965434e+22
3.2188038533945e+22
3.21880390789329e+22
3.2188039631557e+22
3.21880401918021e+22
3.21880407596852e+22
3.21880413352286e+22
3.21880419184489e+22
3.21880425093799e+22
3.21880431080324e+22
3.21880437144135e+22
3.21880443285413e+22
3.21880449504458e+22
3.21880455801377e+22
3.21880462176408e+22
3.21880468630178e+22
3.21880475162313e+22
3.2188048177297e+22
3.21880488462319e+22
3.21880495230531e+22
3.21880502077777e+22
3.21880509004225e+22
3.21880516010148e+22
3.21880523095709e+22
3.21880530261002e+22
3.21880537506172e+22
3.21880544831689e+22
3.21880552237412e+22
3.21880559723585e+22
3.21880567290448e+22
3.21880574937981e+22
3.21880582666508e+22
3.21880590476131e+22
3.21880598367043e+22
3.21880606339131e+22
3.21880614392168e+22
3.21880622527035e+22
3.21880630743908e+22
3.21880639042996e+22
3.21880647424686e+22
3.21880655889379e+22
3.21880664437033e+22
3.21880673067844e+22
3.21880681782091e+22
3.21880690580233e+22
3.21880699462336e+22
3.21880708428876e+22
3.21880717479936e+22
3.21880726615585e+22
3.21880735836027e+22
3.21880745141718e+22
3.21880754532661e+22
3.21880764009136e+22
3.21880773571334e+22
3.21880783219581e+22
3.21880792954082e+22
3.21880802775055e+22
3.21880812682922e+22
3.21880822678212e+22
3.21880832760898e+22
3.21880842931103e+22
3.21880853189236e+22
3.21880863535645e+22
3.21880873970398e+22
3.21880884493811e+22
3.21880895106207e+22
3.21880905808061e+22
3.21880916599845e+22
3.21880927481953e+22
3.21880938454333e+22
3.21880949517271e+22
3.21880960671062e+22
3.21880971916132e+22
3.21880983253072e+22
3.21880994681856e+22
3.21881006202783e+22
3.21881017816542e+22
3.21881029523078e+22
3.21881041322657e+22
3.21881053215402e+22
3.21881065202046e+22
3.21881077281379e+22
3.21881089454859e+22
3.2188110171935e+22
3.21881114079592e+22
3.21881126526055e+22
3.21881139072244e+22
3.21881151693287e+22
3.21881164425983e+22
3.21881177222396e+22
3.21881189989977e+22
3.21881202837458e+22
3.21881215825615e+22
3.21881228893103e+22
3.21881242041109e+22
3.21881255173894e+22
3.21881268362919e+22
3.21881281495291e+22
3.21881294643034e+22
3.21881307997141e+22
3.21881321326182e+22
3.21881334290723e+22
3.21881347337182e+22
3.21881360491361e+22
3.21881373027282e+22
3.21881385415662e+22
3.21881397790521e+22
3.21881409232092e+22
3.21881420506282e+22
3.21881431248301e+22
3.21881441025212e+22
3.21881450298002e+22
3.21881458963237e+22
3.21881466399883e+22
3.21881473226396e+22
3.21881479415011e+22
3.21881484658818e+22
3.21881488829462e+22
3.21881492418652e+22
3.21881494939626e+22
3.21881496775615e+22
3.21881498041006e+22
3.21881498956958e+22
3.21881499665499e+22
3.21881499894343e+22
3.21881499607219e+22
3.21881499188852e+22
3.21881499008883e+22
3.2188149942193e+22
3.21881500234094e+22
3.21881501218371e+22
3.21881502226957e+22
3.21881503113577e+22
3.21881503872887e+22
3.21881504511776e+22
3.21881505048508e+22
3.21881505500285e+22
3.21881506013152e+22
3.21881506576935e+22
3.21881507096039e+22
3.21881507559091e+22
3.21881507985298e+22
3.21881508369395e+22
3.21881508728486e+22
3.21881509053726e+22
3.21881509366986e+22
3.21881509655917e+22
3.21881509934383e+22
3.21881510188351e+22
3.2188151057242e+22
3.21881510953594e+22
3.2188151133211e+22
3.2188151168331e+22
3.21881512034521e+22
3.21881512359362e+22
3.21881512686437e+22
3.21881512987437e+22
3.21881513292241e+22
3.21881513571267e+22
3.21881513855156e+22
3.21881514113416e+22
3.21881514377392e+22
3.21881514615755e+22
3.2188151486057e+22
3.21881515079605e+22
3.21881515338583e+22
3.21881515646537e+22
3.21881515960956e+22
3.21881516250206e+22
3.21881516546614e+22
3.218815168179e+22
3.21881517097275e+22
3.21881517351382e+22
3.21881517614459e+22
3.2188151785223e+22
3.21881518099676e+22
3.21881518321927e+22
3.21881518554707e+22
3.21881518762217e+22
3.21881518980808e+22
3.21881519174047e+22
3.21881519379112e+22
3.21881519558804e+22
3.21881519750953e+22
3.2188151991769e+22
3.21881520097689e+22
3.21881520252347e+22
3.21881520420894e+22
3.21881520563857e+22
3.21881520790268e+22
3.21881520985596e+22
3.21881521207091e+22
3.21881521391026e+22
3.21881521602582e+22
3.21881521775736e+22
3.21881521977951e+22
3.21881522140964e+22
3.21881522334535e+22
3.2188152248801e+22
3.21881522673557e+22
3.21881522818015e+22
3.21881522995937e+22
3.21881523131688e+22
3.21881523302311e+22
3.21881523429751e+22
3.21881523593838e+22
3.21881523715476e+22
3.21881523877058e+22
3.21881523993839e+22
3.21881524149877e+22
3.21881524259684e+22
3.21881524409955e+22
3.21881524512914e+22
3.21881524661781e+22
3.21881524765898e+22
3.21881524913325e+22
3.21881525010815e+22
3.21881525159839e+22
3.21881525261088e+22
3.21881525410416e+22
3.21881525517551e+22
3.21881525679083e+22
3.21881525822542e+22
3.2188152609611e+22
)
;

boundaryField
{
    electrode
    {
        type            zeroGradient;
    }
    ground
    {
        type            zeroGradient;
    }
    otherfaces
    {
        type            empty;
    }
}


// ************************************************************************* //
