/*--------------------------------*- C++ -*----------------------------------*\
| =========                 |                                                 |
| \\      /  F ield         | foam-extend: Open Source CFD                    |
|  \\    /   O peration     | Version:     4.0                                |
|   \\  /    A nd           | Web:         http://www.foam-extend.org         |
|    \\/     M anipulation  |                                                 |
\*---------------------------------------------------------------------------*/
FoamFile
{
    version     2.0;
    format      ascii;
    class       volVectorField;
    location    "8.8e-06";
    object      J_Arp1;
}
// * * * * * * * * * * * * * * * * * * * * * * * * * * * * * * * * * * * * * //

dimensions      [1 -1 -1 0 0 0 0];

internalField   nonuniform List<vector> 
300
(
(2.11433818072375e+16 -0 -0)
(7.52425169490545e+16 -0 -0)
(1.3392168043227e+17 -0 -0)
(1.86302682880782e+17 -0 -0)
(2.39368508996594e+17 -0 -0)
(2.92756898725156e+17 -0 -0)
(3.46005998812425e+17 -0 -0)
(3.99312252891174e+17 -0 -0)
(4.52646317777474e+17 -0 -0)
(5.06007019166502e+17 -0 -0)
(5.5940167372847e+17 -0 -0)
(6.12832229140564e+17 -0 -0)
(6.6630184178966e+17 -0 -0)
(7.19813647033863e+17 -0 -0)
(7.73370655916135e+17 -0 -0)
(8.26975891004857e+17 -0 -0)
(8.80632343696251e+17 -0 -0)
(9.34342976577468e+17 -0 -0)
(9.88110723552199e+17 -0 -0)
(1.04193848733047e+18 -0 -0)
(1.09582913838878e+18 -0 -0)
(1.14978551284306e+18 -0 -0)
(1.20381041152628e+18 -0 -0)
(1.25790659784815e+18 -0 -0)
(1.31207679664053e+18 -0 -0)
(1.36632369245014e+18 -0 -0)
(1.42064992784536e+18 -0 -0)
(1.47505810197306e+18 -0 -0)
(1.52955076899805e+18 -0 -0)
(1.584130436382e+18 -0 -0)
(1.63879956332498e+18 -0 -0)
(1.69356055945799e+18 -0 -0)
(1.74841578267306e+18 -0 -0)
(1.80336753817332e+18 -0 -0)
(1.85841807667145e+18 -0 -0)
(1.91356959229688e+18 -0 -0)
(1.96882422191597e+18 -0 -0)
(2.02418404280375e+18 -0 -0)
(2.07965107139755e+18 -0 -0)
(2.13522726162339e+18 -0 -0)
(2.19091450339125e+18 -0 -0)
(2.24671462095509e+18 -0 -0)
(2.3026293713977e+18 -0 -0)
(2.35866044300504e+18 -0 -0)
(2.4148094538023e+18 -0 -0)
(2.47107794996851e+18 -0 -0)
(2.52746740421751e+18 -0 -0)
(2.58397921447337e+18 -0 -0)
(2.64061470215305e+18 -0 -0)
(2.69737511077121e+18 -0 -0)
(2.75426160442765e+18 -0 -0)
(2.81127526629276e+18 -0 -0)
(2.86841709722376e+18 -0 -0)
(2.92568801420668e+18 -0 -0)
(2.98308884908422e+18 -0 -0)
(3.04062034691334e+18 -0 -0)
(3.09828316468357e+18 -0 -0)
(3.15607787006709e+18 -0 -0)
(3.21400493974683e+18 -0 -0)
(3.27206475839779e+18 -0 -0)
(3.33025761704667e+18 -0 -0)
(3.38858371204722e+18 -0 -0)
(3.44704314356685e+18 -0 -0)
(3.50563591454327e+18 -0 -0)
(3.56436192917878e+18 -0 -0)
(3.62322099199422e+18 -0 -0)
(3.68221280620761e+18 -0 -0)
(3.7413369732451e+18 -0 -0)
(3.80059299091084e+18 -0 -0)
(3.85998025259135e+18 -0 -0)
(3.91949804606468e+18 -0 -0)
(3.97914555254427e+18 -0 -0)
(4.03892184525194e+18 -0 -0)
(4.09882588890381e+18 -0 -0)
(4.15885653815839e+18 -0 -0)
(4.21901253703957e+18 -0 -0)
(4.27929251770682e+18 -0 -0)
(4.33969499952615e+18 -0 -0)
(4.40021838824272e+18 -0 -0)
(4.46086097499702e+18 -0 -0)
(4.52162093535617e+18 -0 -0)
(4.5824963285262e+18 -0 -0)
(4.6434850964168e+18 -0 -0)
(4.70458506266788e+18 -0 -0)
(4.7657939321047e+18 -0 -0)
(4.82710928956316e+18 -0 -0)
(4.8885285992705e+18 -0 -0)
(4.95004920391145e+18 -0 -0)
(5.0116683238798e+18 -0 -0)
(5.07338305634849e+18 -0 -0)
(5.13519037457393e+18 -0 -0)
(5.19708712693063e+18 -0 -0)
(5.25907003628943e+18 -0 -0)
(5.32113569907976e+18 -0 -0)
(5.38328058440404e+18 -0 -0)
(5.44550103308392e+18 -0 -0)
(5.50779325694987e+18 -0 -0)
(5.57015333830954e+18 -0 -0)
(5.63257722935667e+18 -0 -0)
(5.69506074888605e+18 -0 -0)
(5.75759957833133e+18 -0 -0)
(5.82018927107676e+18 -0 -0)
(5.88282527667214e+18 -0 -0)
(5.94550289720244e+18 -0 -0)
(6.00821712113687e+18 -0 -0)
(6.07096275299993e+18 -0 -0)
(6.13373539654601e+18 -0 -0)
(6.19653130564725e+18 -0 -0)
(6.25934186720696e+18 -0 -0)
(6.32215129316637e+18 -0 -0)
(6.3849643991798e+18 -0 -0)
(6.44782547331617e+18 -0 -0)
(6.51075388343495e+18 -0 -0)
(6.57374512164644e+18 -0 -0)
(6.63679163620159e+18 -0 -0)
(6.69988569585336e+18 -0 -0)
(6.76301929827762e+18 -0 -0)
(6.82618428249555e+18 -0 -0)
(6.88937235692958e+18 -0 -0)
(6.95257510124508e+18 -0 -0)
(7.01578396395722e+18 -0 -0)
(7.07899025815121e+18 -0 -0)
(7.14218515647673e+18 -0 -0)
(7.20535968553599e+18 -0 -0)
(7.26850472024774e+18 -0 -0)
(7.33161097750202e+18 -0 -0)
(7.39466900999183e+18 -0 -0)
(7.45766919912044e+18 -0 -0)
(7.52060174797827e+18 -0 -0)
(7.58345667363835e+18 -0 -0)
(7.64622379921492e+18 -0 -0)
(7.7088927452616e+18 -0 -0)
(7.77145292084703e+18 -0 -0)
(7.83389351413515e+18 -0 -0)
(7.89620348210172e+18 -0 -0)
(7.95837154021645e+18 -0 -0)
(8.02038615090569e+18 -0 -0)
(8.08223551182354e+18 -0 -0)
(8.1439075432383e+18 -0 -0)
(8.20538987460016e+18 -0 -0)
(8.26666983058154e+18 -0 -0)
(8.32773441595121e+18 -0 -0)
(8.38857030015293e+18 -0 -0)
(8.44916379993226e+18 -0 -0)
(8.50950086271057e+18 -0 -0)
(8.56956704735527e+18 -0 -0)
(8.62934750204167e+18 -0 -0)
(8.68882695867629e+18 -0 -0)
(8.74798965652735e+18 -0 -0)
(8.80681948855129e+18 -0 -0)
(8.86529950485108e+18 -0 -0)
(8.92341311003514e+18 -0 -0)
(8.98114112027121e+18 -0 -0)
(9.038468212576e+18 -0 -0)
(9.09536938696219e+18 -0 -0)
(9.15183695768171e+18 -0 -0)
(9.2078278255448e+18 -0 -0)
(9.26336473169298e+18 -0 -0)
(9.31834498944665e+18 -0 -0)
(9.372892520141e+18 -0 -0)
(9.42672906969412e+18 -0 -0)
(9.48026827650989e+18 -0 -0)
(9.53274379921061e+18 -0 -0)
(9.58538082996467e+18 -0 -0)
(9.63611631439294e+18 -0 -0)
(9.68747135573691e+18 -0 -0)
(9.7382127548003e+18 -0 -0)
(9.7876716433804e+18 -0 -0)
(9.83653684696223e+18 -0 -0)
(9.88529297991669e+18 -0 -0)
(9.93223769230869e+18 -0 -0)
(9.98056625655898e+18 -0 -0)
(1.002503256496e+19 -0 -0)
(1.0073044417741e+19 -0 -0)
(1.01159165290959e+19 -0 -0)
(1.01597606403757e+19 -0 -0)
(1.02013733216537e+19 -0 -0)
(1.02476405034682e+19 -0 -0)
(1.02824937634816e+19 -0 -0)
(1.03231374177483e+19 -0 -0)
(1.03648369479069e+19 -0 -0)
(1.0396729717852e+19 -0 -0)
(1.04303949193006e+19 -0 -0)
(1.04706190634113e+19 -0 -0)
(1.04912869469495e+19 -0 -0)
(1.05289730836765e+19 -0 -0)
(1.05523505225082e+19 -0 -0)
(1.05805949554226e+19 -0 -0)
(1.06001473629755e+19 -0 -0)
(1.06330534089331e+19 -0 -0)
(1.06454800670202e+19 -0 -0)
(1.0676252880033e+19 -0 -0)
(1.0693961054901e+19 -0 -0)
(1.07279673088306e+19 -0 -0)
(1.07444755158393e+19 -0 -0)
(1.07892012648758e+19 -0 -0)
(1.08175375283604e+19 -0 -0)
(1.08813065987758e+19 -0 -0)
(1.09388637494809e+19 -0 -0)
(1.1050316283591e+19 -0 -0)
(1.11979262372849e+19 -0 -0)
(1.14088054364368e+19 -0 -0)
(1.16629432637662e+19 -0 -0)
(1.19487435328782e+19 -0 -0)
(1.21671973260557e+19 -0 -0)
(1.23822620719913e+19 -0 -0)
(1.25559139316689e+19 -0 -0)
(1.26745334762867e+19 -0 -0)
(1.27655446595569e+19 -0 -0)
(1.28374734464396e+19 -0 -0)
(1.28992181465208e+19 -0 -0)
(1.2953107172678e+19 -0 -0)
(1.3004310945641e+19 -0 -0)
(1.30508184056341e+19 -0 -0)
(1.30983833685159e+19 -0 -0)
(1.31436780680566e+19 -0 -0)
(1.31902764276037e+19 -0 -0)
(1.32352981790582e+19 -0 -0)
(1.32822524363049e+19 -0 -0)
(1.33276444580255e+19 -0 -0)
(1.3375258648087e+19 -0 -0)
(1.34210858909099e+19 -0 -0)
(1.34691657897585e+19 -0 -0)
(1.35150899708308e+19 -0 -0)
(1.35634723450605e+19 -0 -0)
(1.3608558843494e+19 -0 -0)
(1.3657355957531e+19 -0 -0)
(1.37019122504947e+19 -0 -0)
(1.37502941957796e+19 -0 -0)
(1.37939708611759e+19 -0 -0)
(1.38416498350532e+19 -0 -0)
(1.38841632096196e+19 -0 -0)
(1.39308691573316e+19 -0 -0)
(1.39720046159913e+19 -0 -0)
(1.40175046642401e+19 -0 -0)
(1.40570948553751e+19 -0 -0)
(1.41011922731621e+19 -0 -0)
(1.41391100771829e+19 -0 -0)
(1.41816656899313e+19 -0 -0)
(1.42178073266884e+19 -0 -0)
(1.42587847010955e+19 -0 -0)
(1.42930018516225e+19 -0 -0)
(1.43321847299746e+19 -0 -0)
(1.43648099320313e+19 -0 -0)
(1.44022716447014e+19 -0 -0)
(1.44330000097799e+19 -0 -0)
(1.44688029602714e+19 -0 -0)
(1.44976500835574e+19 -0 -0)
(1.45318455819455e+19 -0 -0)
(1.45588761271254e+19 -0 -0)
(1.45915262663294e+19 -0 -0)
(1.46168310916408e+19 -0 -0)
(1.4648014883932e+19 -0 -0)
(1.46716622412481e+19 -0 -0)
(1.47014383420857e+19 -0 -0)
(1.47235112698004e+19 -0 -0)
(1.47519429119822e+19 -0 -0)
(1.47725058341945e+19 -0 -0)
(1.47996705652022e+19 -0 -0)
(1.48187960514167e+19 -0 -0)
(1.48447741664357e+19 -0 -0)
(1.48625380175836e+19 -0 -0)
(1.48874234526468e+19 -0 -0)
(1.49039077027138e+19 -0 -0)
(1.49278218829288e+19 -0 -0)
(1.494194102138e+19 -0 -0)
(1.49671634758797e+19 -0 -0)
(1.49790446493601e+19 -0 -0)
(1.50035840355515e+19 -0 -0)
(1.50142158016686e+19 -0 -0)
(1.50381322828272e+19 -0 -0)
(1.50475566859179e+19 -0 -0)
(1.50709029035197e+19 -0 -0)
(1.50791559701155e+19 -0 -0)
(1.51019835734078e+19 -0 -0)
(1.5109109225228e+19 -0 -0)
(1.51314798781219e+19 -0 -0)
(1.51375286747764e+19 -0 -0)
(1.5159504831817e+19 -0 -0)
(1.51645313247333e+19 -0 -0)
(1.5186175436964e+19 -0 -0)
(1.51902335332816e+19 -0 -0)
(1.52115990067721e+19 -0 -0)
(1.52147353057403e+19 -0 -0)
(1.5235836341825e+19 -0 -0)
(1.52380391015642e+19 -0 -0)
(1.52588906212461e+19 -0 -0)
(1.5260185270694e+19 -0 -0)
(1.52808184132959e+19 -0 -0)
(1.52812221890585e+19 -0 -0)
(1.53016610978327e+19 -0 -0)
(1.53010914078153e+19 -0 -0)
(1.53212745728294e+19 -0 -0)
(1.53197460412484e+19 -0 -0)
(1.53396539861876e+19 -0 -0)
(1.53370322474925e+19 -0 -0)
(1.53565979098901e+19 -0 -0)
(1.53527159943337e+19 -0 -0)
(1.53716242627549e+19 -0 -0)
(1.53459784293505e+19 -0 -0)
)
;

boundaryField
{
    electrode
    {
        type            calculated;
        value           uniform (-14093431035.8736 -0 -0);
    }
    ground
    {
        type            calculated;
        value           uniform (1.53749215188959e+19 -0 -0);
    }
    otherfaces
    {
        type            empty;
    }
}


// ************************************************************************* //
