/*--------------------------------*- C++ -*----------------------------------*\
| =========                 |                                                 |
| \\      /  F ield         | foam-extend: Open Source CFD                    |
|  \\    /   O peration     | Version:     4.0                                |
|   \\  /    A nd           | Web:         http://www.foam-extend.org         |
|    \\/     M anipulation  |                                                 |
\*---------------------------------------------------------------------------*/
FoamFile
{
    version     2.0;
    format      ascii;
    class       volScalarField;
    location    "8.8e-06";
    object      N_electronMean;
}
// * * * * * * * * * * * * * * * * * * * * * * * * * * * * * * * * * * * * * //

dimensions      [0 0 0 1 0 0 0];

internalField   nonuniform List<scalar> 
300
(
6.19504612667674e+16
6.19489077138601e+16
6.19447069954392e+16
6.19374118706539e+16
6.19270662019387e+16
6.19136372756301e+16
6.18971090973508e+16
6.18774735011544e+16
6.18547220087639e+16
6.18288482520539e+16
6.17998473533684e+16
6.17677157495016e+16
6.17324511161436e+16
6.16940522477873e+16
6.16525189814499e+16
6.16078521205403e+16
6.15600533695562e+16
6.15091252781691e+16
6.14550711868377e+16
6.13978951753101e+16
6.13376020171087e+16
6.12741971364291e+16
6.12076865665607e+16
6.11380769073249e+16
6.10653752939759e+16
6.09895893727815e+16
6.09107272564524e+16
6.08287974798109e+16
6.0743808963621e+16
6.06557709658888e+16
6.05646930503218e+16
6.0470585077777e+16
6.03734571619502e+16
6.0273319598162e+16
6.01701828121744e+16
6.00640573192302e+16
5.99549536837527e+16
5.98428824824426e+16
5.97278542639469e+16
5.96098795079376e+16
5.94889685915657e+16
5.93651317553273e+16
5.92383790625084e+16
5.91087203621657e+16
5.8976165257237e+16
5.88407230735045e+16
5.87024028307663e+16
5.85612132172366e+16
5.84171625699793e+16
5.82702588611664e+16
5.81205096984124e+16
5.7967922325783e+16
5.78125036025592e+16
5.76542599632248e+16
5.74931973599773e+16
5.73293212035921e+16
5.71626363128817e+16
5.69931468752722e+16
5.68208564168625e+16
5.6645767773492e+16
5.64678830648878e+16
5.62872036707759e+16
5.61037302042983e+16
5.59174625068998e+16
5.57283996690183e+16
5.55365400051027e+16
5.53418809857747e+16
5.51444191979125e+16
5.49441503260967e+16
5.47410691339059e+16
5.45351694451521e+16
5.43264441364456e+16
5.41148851512071e+16
5.39004834907489e+16
5.36832291789275e+16
5.34631112654836e+16
5.32401178438073e+16
5.30142360343199e+16
5.27854519353088e+16
5.25537505933072e+16
5.23191160011139e+16
5.20815310469653e+16
5.18409774657287e+16
5.15974358239002e+16
5.1350885514305e+16
5.11013047670658e+16
5.08486706288065e+16
5.05929589159661e+16
5.03341441958702e+16
5.00721997878594e+16
4.98070977468505e+16
4.95388088776014e+16
4.92673027575128e+16
4.89925476786933e+16
4.8714510593678e+16
4.84331571041848e+16
4.81484514494901e+16
4.78603564954426e+16
4.75688337238391e+16
4.72738432304144e+16
4.69753437221518e+16
4.66732924978596e+16
4.63676454536505e+16
4.60583571040748e+16
4.57453805569893e+16
4.54286674987031e+16
4.51081681967765e+16
4.47838314931982e+16
4.4455604810854e+16
4.41234341377257e+16
4.37872640037526e+16
4.3447037485296e+16
4.31026962301368e+16
4.27541804940612e+16
4.24014291537185e+16
4.2044379714219e+16
4.16829683535921e+16
4.13171299441923e+16
4.09467980246337e+16
4.05719047788423e+16
4.01923810598814e+16
3.98081564284991e+16
3.9419159185026e+16
3.90253164089627e+16
3.86265539517284e+16
3.82227963964135e+16
3.78139670674529e+16
3.73999880607173e+16
3.6980780244238e+16
3.65562632666188e+16
3.61263555864792e+16
3.56909745006667e+16
3.52500361639607e+16
3.48034556061175e+16
3.43511467979809e+16
3.38930227307027e+16
3.34289954147795e+16
3.29589758432191e+16
3.24828739940005e+16
3.20005988596104e+16
3.15120584512135e+16
3.10171597963997e+16
3.05158089520921e+16
3.00079110261203e+16
2.9493370242539e+16
2.89720899933696e+16
2.84439728168975e+16
2.7908920360919e+16
2.73668333409778e+16
2.68176115474784e+16
2.62611539042466e+16
2.56973584564941e+16
2.51261223690061e+16
2.45473419763663e+16
2.3960912761577e+16
2.33667294150798e+16
2.27646859320257e+16
2.21546757927572e+16
2.15365919047512e+16
2.09103262062969e+16
2.02757675573446e+16
1.96327897092941e+16
1.89812337781304e+16
1.83209003081628e+16
1.76515482629356e+16
1.69728818845864e+16
1.6284534985311e+16
1.55861052872287e+16
1.4877215742421e+16
1.41575392922517e+16
1.34268192752812e+16
1.2684939993518e+16
1.19320494591296e+16
1.1168712672607e+16
1.03961355551966e+16
9.61640616785249e+15
8.83260372187925e+15
8.04890073897234e+15
7.27071705497022e+15
6.50467596772611e+15
5.75835434550368e+15
5.03998712942434e+15
4.35798774411954e+15
3.72029598106628e+15
3.13379666548336e+15
2.60375822027508e+15
2.13337145543217e+15
1.72359858633675e+15
1.37323917388966e+15
1.07917143966873e+15
836791537782345
640531404736865
484342218135365
362121753751726
267744982311316
195808130822651
141761677825122
101652954517161
72131017316772
50383374600536.9
34516839329797.2
23262251931584.6
15378130316150.3
9966160645933.99
6462265551299.4
4346560300679.84
3138941132181.31
2465545486952.2
2085837952065.2
1864612452939.07
1730418007677.48
1645648497644.3
1589849424889.76
1551472689568.65
1523708541705.41
1502342166999.62
1484634571002.98
1468766832653.83
1453587563049.13
1438397342587.76
1422667899525.6
1406039453293.03
1388336709385.03
1369462727364.68
1349395083495.49
1328164240717.51
1305837285908.72
1282505069707.4
1258273663947.77
1233258158634.96
1207578011583.02
1181354049492.66
1154705235178.78
1127746899076.41
1100589422774.33
1073336839580.09
1046086004011.42
1018926433856.14
991939534472.088
965196981731.312
938761284405.47
912688500107.343
887029633778.437
861830212751.745
837129820442.951
812961863713.784
789353074959.066
766324406676.054
743891565624.954
722065672343.472
700854523775.163
680262536878.986
660290646880.771
640936647935.077
622195796216.6
604062319824.815
586526886036.058
569575735358.943
553196394937.631
537377215425.237
522104678094.852
507364003085.113
493139878846.319
479416535148.776
466178035229.653
453408585633.791
441091802618.297
429211067220.536
417750111372.135
406692638012.321
396021927700.253
385720606681.619
375771478549.661
366160754201.371
356877497296.131
347911607389.22
339253695045.67
330894914690.067
322827165383.004
315043128718.804
307536186889.258
300299866714.542
293327103847.16
286602293555.402
280099360774.726
273804349483.077
267722571127.131
261864740973.065
256242512141.851
250849356066.552
245658732126.595
240677308999.167
235950182523.818
231482863119.049
227302124038.832
223491481726.01
220177023842.534
217618922099.439
216250264574.74
216836144623.332
)
;

boundaryField
{
    electrode
    {
        type            calculated;
        value           uniform 6.19504612669023e+16;
    }
    ground
    {
        type            calculated;
        value           uniform 218654185514.186;
    }
    otherfaces
    {
        type            empty;
    }
}


// ************************************************************************* //
