/*--------------------------------*- C++ -*----------------------------------*\
| =========                 |                                                 |
| \\      /  F ield         | foam-extend: Open Source CFD                    |
|  \\    /   O peration     | Version:     4.0                                |
|   \\  /    A nd           | Web:         http://www.foam-extend.org         |
|    \\/     M anipulation  |                                                 |
\*---------------------------------------------------------------------------*/
FoamFile
{
    version     2.0;
    format      ascii;
    class       volScalarField;
    location    "8.8e-06";
    object      PhiMean;
}
// * * * * * * * * * * * * * * * * * * * * * * * * * * * * * * * * * * * * * //

dimensions      [0 0 0 1 0 0 0];

internalField   nonuniform List<scalar> 
300
(
699.991606704442
699.990695028738
699.989506237633
699.988066491659
699.986384839816
699.984454968192
699.982276772299
699.979849353357
699.977171779308
699.974243330584
699.971063327159
699.967631162823
699.963946283221
699.960008178109
699.955816374945
699.951370431468
699.946669930076
699.941714473683
699.936503680777
699.931037180721
699.925314610314
699.919335610148
699.913099821337
699.906606882043
699.899856423752
699.892848074388
699.885581451126
699.878056156903
699.870271779471
699.862227885459
699.853924015939
699.845359693454
699.836534416347
699.827447648477
699.818098816362
699.808487305904
699.798612458746
699.788473570033
699.778069884678
699.767400592922
699.75646482789
699.745261663337
699.733790108212
699.722049103672
699.710037519717
699.697754152005
699.685197718504
699.672366856846
699.659260121531
699.645875983386
699.632212827991
699.618268960972
699.604042600628
699.589531877309
699.574734821259
699.559649356929
699.544273293917
699.528604322153
699.512640007531
699.49637778689
699.479814963601
699.462948702908
699.445776026536
699.428293807174
699.410498776568
699.3923875195
699.373956455355
699.355201833146
699.336119726248
699.316706026545
699.296956438352
699.27686647161
699.256431443193
699.235646472951
699.214506467623
699.19300611962
699.171139908666
699.148902090169
699.126286686199
699.103287464826
699.079897951409
699.056111400738
699.031920785962
699.00731879102
698.982297797802
698.956849886285
698.930966820007
698.904640026439
698.877860584123
698.850619216076
698.822906273345
698.794711719907
698.766025142173
698.736835708393
698.707132150538
698.67690274872
698.646135312402
698.614817162903
698.582935111459
698.550475441414
698.517423887754
698.483765610906
698.449485169228
698.414566511446
698.378992933656
698.342747052215
698.305810779106
698.26816528063
698.229790954522
698.190667385996
698.150773303992
698.110086542155
698.068583996777
698.026241588396
697.983034213791
697.938935686301
697.893918694071
697.84795474463
697.801014086841
697.75306563748
697.704076906387
697.654013931171
697.602841181829
697.550521487098
697.497015923986
697.442283696015
697.3862820149
697.328965985855
697.270288456275
697.210199868329
697.148648096375
697.085578272645
697.020932591149
696.954650091856
696.886666432817
696.816913664413
696.745319928955
696.671809145406
696.596300655653
696.518708860985
696.438942793486
696.356905647777
696.272494264115
696.185598546832
696.096100832576
696.003875187646
695.908786572586
695.810689925208
695.709429110597
695.604835738045
695.496727865385
695.38490845401
695.269163622192
695.149260673642
695.024945773022
694.895941251309
694.761942608371
694.622614770484
694.477588146668
694.326453096328
694.168754938252
694.003983519243
693.831552461438
693.650786399015
693.460907381463
693.261015287699
693.050045241174
692.826747579871
692.58969135982
692.337212385156
692.067355582251
691.777834301304
691.46600592379
691.128804252896
690.762717389101
690.363889793452
689.928022695138
689.450262574353
688.925452739237
688.34814482731
687.712537127536
687.01274329755
686.242991359514
685.397489358444
684.470883809762
683.458361583354
682.355506716623
681.158644881767
679.864997674275
678.472303561848
676.978924045832
675.384042128443
673.687377534343
671.889033140557
669.989304292206
667.988800776759
665.888047285829
663.687466966141
661.387398165032
658.988181789614
656.490145188432
653.893502091324
651.198173452276
648.404210286807
645.511854942774
642.521665238483
639.434390366735
636.250912706794
632.972160905816
629.599029448138
626.132371107163
622.572960302699
618.921569836499
615.179024989112
611.346258709091
607.424152088116
603.413531414578
599.315139161569
595.129674147214
590.857760237725
586.499987658593
582.056879175423
577.528932837
572.916586140222
568.220260274607
563.440387570451
558.577582573735
553.63240717026
548.60541861015
543.49711739237
538.308005148602
533.038529582213
527.689145133814
522.260256092587
516.752278075395
511.165577066025
505.50053390001
499.757480601669
493.936767376697
488.038696197105
482.063590362677
476.011725599556
469.883420850838
463.679074450185
457.39913754085
451.0440094917
444.614116656392
438.109833351775
431.53156337539
424.879657975275
418.154500299885
411.35642017446
404.485781733611
397.542894751477
390.528105748599
383.441705637255
376.284024499729
369.055335434781
361.755953084074
354.38613366009
346.946177212344
339.436323904931
331.856859971006
324.208010164113
316.490047615316
308.703184645564
300.847717385282
292.923910157584
284.932109861499
276.872612081069
268.745774996332
260.551880163859
252.291274001974
243.964223918469
235.571065279828
227.112051923433
218.58750881914
209.997676795919
201.342871025812
192.623319859388
183.839329224008
174.991115448107
166.078975747086
157.103114855853
148.063821865754
138.96129044352
129.795802139859
120.567539930998
111.276778279515
101.923689805946
92.5085422801074
83.0314984488233
73.4928201208896
63.8926606239347
54.2312761309677
44.5088111830159
34.7255172293437
24.8815305814661
14.9770991448568
5.01235588029907
)
;

boundaryField
{
    electrode
    {
        type            calculated;
        value           uniform 699.999999999429;
    }
    ground
    {
        type            calculated;
        value           uniform 0;
    }
    otherfaces
    {
        type            empty;
    }
}


// ************************************************************************* //
