/*--------------------------------*- C++ -*----------------------------------*\
| =========                 |                                                 |
| \\      /  F ield         | foam-extend: Open Source CFD                    |
|  \\    /   O peration     | Version:     4.0                                |
|   \\  /    A nd           | Web:         http://www.foam-extend.org         |
|    \\/     M anipulation  |                                                 |
\*---------------------------------------------------------------------------*/
FoamFile
{
    version     2.0;
    format      ascii;
    class       volScalarField;
    location    "8.8e-06";
    object      Sy_electron;
}
// * * * * * * * * * * * * * * * * * * * * * * * * * * * * * * * * * * * * * //

dimensions      [1 -3 -1 0 0 0 0];

internalField   nonuniform List<scalar> 
300
(
3.12776649404372e-09
3.12843983130201e-09
3.12867599881654e-09
3.12857449342838e-09
3.12848248272049e-09
3.12833134800278e-09
3.12812921263535e-09
3.12788091138309e-09
3.12758416288808e-09
3.12723909262093e-09
3.12684542695172e-09
3.12640279596347e-09
3.12591087213424e-09
3.12536929878559e-09
3.12477770503242e-09
3.1241357063776e-09
3.12344290316265e-09
3.12269888096143e-09
3.12190321043067e-09
3.12105544718653e-09
3.12015513172561e-09
3.11920178932893e-09
3.11819492994858e-09
3.1171340481091e-09
3.11601862278079e-09
3.1148481173407e-09
3.11362197939645e-09
3.11233964069436e-09
3.11100051702641e-09
3.10960400807987e-09
3.10814949730093e-09
3.10663635185163e-09
3.10506392244864e-09
3.10343154320244e-09
3.10173853151085e-09
3.09998418792477e-09
3.09816779600106e-09
3.09628862217904e-09
3.09434591562885e-09
3.09233890809952e-09
3.09026681376453e-09
3.08812882907123e-09
3.08592413257555e-09
3.08365188477039e-09
3.08131122792496e-09
3.07890128590075e-09
3.0764211639683e-09
3.07386994862423e-09
3.07124670737721e-09
3.06855048858152e-09
3.0657803211947e-09
3.0629352146264e-09
3.0600141584458e-09
3.05701612221971e-09
3.05394005522371e-09
3.05078488622007e-09
3.04754952317539e-09
3.0442328530163e-09
3.04083374135137e-09
3.0373510321893e-09
3.03378354765176e-09
3.03013008765331e-09
3.02638942958694e-09
3.02256032797445e-09
3.01864151417222e-09
3.01463169601991e-09
3.01052955740076e-09
3.00633375787887e-09
3.0020429323024e-09
2.99765569037876e-09
2.99317061623111e-09
2.98858626793623e-09
2.98390117706089e-09
2.97911384817286e-09
2.97422275826671e-09
2.96922635627932e-09
2.96412306250278e-09
2.95891126796905e-09
2.95358933388238e-09
2.94815559084987e-09
2.94260833838305e-09
2.93694584403781e-09
2.93116634270352e-09
2.9252680358502e-09
2.9192490906783e-09
2.91310763931101e-09
2.90684177788422e-09
2.90044956557868e-09
2.8939290236292e-09
2.88727813434818e-09
2.88049483998824e-09
2.87357704156532e-09
2.86652259787117e-09
2.85932932399468e-09
2.85199499007155e-09
2.84451731991643e-09
2.83689398956452e-09
2.82912262574042e-09
2.82120080420181e-09
2.81312604803259e-09
2.80489582605933e-09
2.79650755125731e-09
2.78795857783467e-09
2.77924619698955e-09
2.77036763803633e-09
2.76132008088171e-09
2.75210064352287e-09
2.74270629320374e-09
2.7331338539867e-09
2.72338050760312e-09
2.71344412117999e-09
2.70493847645487e-09
2.6968278088887e-09
2.68854281368821e-09
2.6800794674051e-09
2.67143377864224e-09
2.6626016707822e-09
2.6535789600625e-09
2.64436134343912e-09
2.63494439100231e-09
2.62532353912344e-09
2.61549408357065e-09
2.60545117206457e-09
2.59518979660921e-09
2.58470478516353e-09
2.5739907927982e-09
2.56304229225742e-09
2.55185356398628e-09
2.54041868528901e-09
2.52873151885616e-09
2.51678570042453e-09
2.50457462560341e-09
2.49209143569383e-09
2.47932900246681e-09
2.46627991184471e-09
2.45293644642418e-09
2.43929056649396e-09
2.42533388967306e-09
2.41105766901909e-09
2.39645276939652e-09
2.38150964187855e-09
2.36621829618352e-09
2.35056827082551e-09
2.33454860086881e-09
2.31814778300973e-09
2.30135373774087e-09
2.284153768394e-09
2.26653451624345e-09
2.24848191355142e-09
2.22998112786619e-09
2.21101651331021e-09
2.19157153121135e-09
2.1716287183315e-09
2.15116954827986e-09
2.13017447278819e-09
2.10862261522141e-09
2.08649208712735e-09
2.06375915000076e-09
2.04039938395178e-09
2.01638554672649e-09
1.9916908235124e-09
1.96628398920564e-09
1.94013932393885e-09
1.91323067197305e-09
1.88556336718185e-09
1.85890228647531e-09
1.8321152448252e-09
1.80449155152756e-09
1.77564997387841e-09
1.74554386782273e-09
1.71428468205932e-09
1.68190235823624e-09
1.6482546195265e-09
1.61306559362196e-09
1.57561783054565e-09
1.53524170815757e-09
1.4922961624617e-09
1.44689888785983e-09
1.39787608319411e-09
1.34506175082468e-09
1.28589560613435e-09
1.22325770720332e-09
1.15797944331429e-09
1.09198232156025e-09
1.02610789830132e-09
9.62522068579338e-10
9.0123003276412e-10
8.43499290536828e-10
7.99083254502684e-10
7.67222568670744e-10
7.48328438341047e-10
7.4790214147604e-10
7.72160847930443e-10
8.24045351865423e-10
9.16665722779467e-10
1.07270680710883e-09
1.31259014157377e-09
1.71143254484824e-09
2.38665816180435e-09
3.57052898971532e-09
4.92380171039344e-09
6.09789951039079e-09
7.27068371588735e-09
7.29460707976551e-09
6.3901796829953e-09
5.0877874017536e-09
3.84640635033399e-09
2.89666614303523e-09
2.26056941683172e-09
1.85881910679352e-09
1.61253459354188e-09
1.46432985326845e-09
1.37282463092518e-09
1.3220047679512e-09
1.29725646658442e-09
1.28321458677295e-09
1.27978621903603e-09
1.28238791649978e-09
1.28792007388139e-09
1.29472939921579e-09
1.30145529410073e-09
1.30578219556156e-09
1.30804318354689e-09
1.30853484135803e-09
1.30698300325122e-09
1.30326530986576e-09
1.29735010003787e-09
1.28927123599356e-09
1.27910791549755e-09
1.26697178471239e-09
1.25299714111187e-09
1.23733341329631e-09
1.22013923620578e-09
1.20157776087338e-09
1.18181293872177e-09
1.16100654859521e-09
1.1393159041882e-09
1.1168913598201e-09
1.09387494714445e-09
1.07038461802457e-09
1.04653393427309e-09
1.02244492998052e-09
9.9823023716939e-10
9.73994423733449e-10
9.49832055271696e-10
9.25827451586872e-10
9.02054991267905e-10
8.78579577673841e-10
8.55457183949208e-10
8.32735440414474e-10
8.10454245358483e-10
7.88646399072172e-10
7.6723965798585e-10
7.4635202941056e-10
7.26029538259924e-10
7.06284067735776e-10
6.87119792762007e-10
6.68532815103815e-10
6.50522059569597e-10
6.3308537810602e-10
6.16215558068897e-10
5.99903458285956e-10
5.84045178707545e-10
5.68666955883364e-10
5.53790841344519e-10
5.39404320187814e-10
5.25494713839522e-10
5.1204904894085e-10
4.9905393080501e-10
4.86495726436347e-10
4.74359916077442e-10
4.62631871179704e-10
4.51281533977253e-10
4.40280597010555e-10
4.29617770687173e-10
4.19282648771593e-10
4.09266302690004e-10
3.99560375430154e-10
3.90157184697804e-10
3.81049757688249e-10
3.722318870313e-10
3.63698256144913e-10
3.55443572783973e-10
3.47062010520983e-10
3.38658746420953e-10
3.30457077934674e-10
3.22449140786673e-10
3.14650197244285e-10
3.07077132071033e-10
2.99668877841398e-10
2.91240898184521e-10
2.82980390807397e-10
2.74942204639531e-10
2.66388265178739e-10
2.56627966186181e-10
2.47189448606174e-10
2.34867746358615e-10
2.21358609062269e-10
2.04161262773425e-10
1.79360140411559e-10
)
;

boundaryField
{
    electrode
    {
        type            zeroGradient;
    }
    ground
    {
        type            zeroGradient;
    }
    otherfaces
    {
        type            empty;
    }
}


// ************************************************************************* //
