/*--------------------------------*- C++ -*----------------------------------*\
| =========                 |                                                 |
| \\      /  F ield         | foam-extend: Open Source CFD                    |
|  \\    /   O peration     | Version:     4.0                                |
|   \\  /    A nd           | Web:         http://www.foam-extend.org         |
|    \\/     M anipulation  |                                                 |
\*---------------------------------------------------------------------------*/
FoamFile
{
    version     2.0;
    format      ascii;
    class       volScalarField;
    location    "8.8e-06";
    object      Te;
}
// * * * * * * * * * * * * * * * * * * * * * * * * * * * * * * * * * * * * * //

dimensions      [0 0 0 1 0 0 0];

internalField   nonuniform List<scalar> 
300
(
40070.8115754465
40071.0941355928
40071.263902068
40071.3646680551
40071.524493385
40071.7183073988
40071.9492656197
40072.219217091
40072.5274161529
40072.8740113706
40073.2590133026
40073.6824081595
40074.1442083005
40074.6444260163
40075.183079104
40075.7601911183
40076.3757908593
40077.029912567
40077.7225959231
40078.453886075
40079.2238336653
40080.0324948659
40080.8799314142
40081.7662106521
40082.6914055704
40083.6555948519
40084.6588629233
40085.7013000087
40086.7830021848
40087.9040714423
40089.0646157517
40090.2647491282
40091.5045917059
40092.7842698162
40094.1039160604
40095.4636694016
40096.8636752517
40098.3040855612
40099.7850589209
40101.3067606626
40102.8693629666
40104.4730449742
40106.1179929053
40107.8044001808
40109.5324675519
40111.3024032322
40113.1144230397
40114.968750542
40116.8656172079
40118.8052625668
40120.787934374
40122.8138887832
40124.8833905263
40126.9967131005
40129.1541389636
40131.355959736
40133.6024764158
40135.8939995961
40138.2308496957
40140.6133571989
40143.0418629044
40145.5167181849
40148.0382852578
40150.6069374663
40153.2230595737
40155.8870480684
40158.5993114853
40161.3602707363
40164.1703594547
40167.0300243604
40169.9397256352
40172.8999373145
40175.9111476992
40178.973859783
40182.0885916988
40185.2558771863
40188.4762660765
40191.7503248038
40195.0786369367
40198.4618037319
40201.9004447177
40205.3951983016
40208.9467224048
40212.5556951313
40216.2228154636
40219.9488039918
40223.7344036821
40227.5803806772
40231.4875251384
40235.45665213
40239.4886025453
40243.5842440816
40247.7444722641
40251.9702115191
40256.2624163052
40260.6220723064
40265.050197688
40269.5478444162
40274.1160996351
40278.7560871223
40283.4689689152
40288.2559470784
40293.1182650762
40298.0572086404
40303.0741090587
40308.1703513716
40313.3473728169
40318.6066292332
40323.949599277
40329.3779973289
40334.8939309625
40340.4993572402
40346.1957508189
40351.984676539
40357.8680300953
40363.8478370795
40369.9262149832
40376.1053713038
40382.3876059163
40388.7753156093
40395.2709994298
40401.8772645436
40408.596832567
40415.4325463976
40422.3873775774
40429.4644342439
40436.6669697186
40443.9983918021
40451.4622728501
40459.0623607029
40466.8025905676
40474.6870979504
40482.7202327584
40490.9065746952
40499.2509501104
40507.7584504594
40516.4344525732
40525.2846409607
40534.315032385
40543.5320030147
40552.942318477
40562.5531671986
40572.3721974774
40582.4075588094
40592.667948064
40603.1626611934
40613.9016514057
40624.8955944028
40636.1559628644
40647.6951087282
40659.5263618583
40671.6641307189
40684.1240420457
40696.9230534258
40710.0796714895
40723.6140398021
40737.5483470831
40751.9067375989
40766.7162103824
40782.006005595
40797.8096442484
40814.1631422557
40831.110632374
40848.702516292
40867.0136178644
40886.2212863932
40906.4745224641
40927.7131179883
40949.8821995043
40973.1105426855
40997.6321002183
41023.6701767529
41051.3917969242
41080.9270209511
41112.1780443726
41145.0724087347
41180.1653084099
41217.920551656
41257.9937171519
41300.6441832345
41346.8718771813
41396.8064460344
41451.2361347967
41512.1900928641
41580.9872139202
41660.4309763256
41755.5702216666
41872.0755659481
42018.9064351641
42209.2277455884
42459.8163666625
42794.3607806405
43247.4291696854
43865.1704168352
44721.3290477105
45908.3273856039
47552.4572598212
49884.8103004132
53216.500223114
58105.5949634398
64430.0566133701
72804.4094958731
86184.7517784986
104478.02960357
129835.659660088
165032.897485204
211925.274023923
269988.240252784
335509.514795893
403259.421781338
468678.011077416
528856.765141285
582512.797562038
629517.927325268
670389.986325604
705800.614040814
736503.894169519
763319.496322908
786923.149890497
807846.255808634
826498.995881441
843238.733630831
858376.040978801
872155.696793649
884787.861573673
896446.283319639
907271.703772585
917380.560462152
926868.953601685
935816.492374972
944289.091856573
952341.221583042
960017.698569942
967355.136296363
974383.128910344
981125.20662424
987599.731903923
993820.403453444
999798.8031795
1005537.2199003
1011035.56310115
1016296.8811707
1021318.61872305
1026096.35938632
1030623.30395023
1034890.64824851
1038887.83834961
1042602.75488578
1046021.87402637
1049130.41054786
1051912.4456793
1054351.04112958
1056428.29226272
1058125.33010952
1059421.96615722
1060298.46116947
1060723.49356056
1060698.37243789
1060189.21891591
1059175.49775325
1057634.34489448
1055543.46375158
1052880.14099029
1049621.17955164
1045742.8174122
1041220.90728151
1036031.0723826
1030148.54989024
1023548.04853006
1016204.04573751
1008090.07784828
999184.312966244
989456.388501536
978874.88282233
967416.279810664
955049.656634182
941743.101890691
927462.646447213
912172.436880126
895834.433501423
878408.082365884
859850.316094771
840114.490209182
819157.508877452
796928.437122406
773363.469932817
748400.06878099
721964.810537835
693966.630950365
664322.8141849
632923.915606765
599633.821325583
564315.808582062
526780.929820419
486793.972146207
444066.113196398
398200.176284719
348627.576982539
294526.376507109
234818.973704379
)
;

boundaryField
{
    electrode
    {
        type            electronTemperature;
        seec            0.05;
        Tse             1000;
        Edepend         1;
        TFN             1000;
        field_emission  0;
        field_enhancement_factor 55;
        work_function   5;
        value           uniform 40070.8115754465;
    }
    ground
    {
        type            electronTemperature;
        seec            0.05;
        Tse             1000;
        Edepend         1;
        TFN             1000;
        field_emission  0;
        field_enhancement_factor 55;
        work_function   5;
        value           uniform 200963.062454279;
    }
    otherfaces
    {
        type            empty;
    }
}


// ************************************************************************* //
