/*--------------------------------*- C++ -*----------------------------------*\
| =========                 |                                                 |
| \\      /  F ield         | foam-extend: Open Source CFD                    |
|  \\    /   O peration     | Version:     4.0                                |
|   \\  /    A nd           | Web:         http://www.foam-extend.org         |
|    \\/     M anipulation  |                                                 |
\*---------------------------------------------------------------------------*/
FoamFile
{
    version     2.0;
    format      ascii;
    class       volScalarField;
    location    "8.8e-06";
    object      TeMean;
}
// * * * * * * * * * * * * * * * * * * * * * * * * * * * * * * * * * * * * * //

dimensions      [0 0 0 1 0 0 0];

internalField   nonuniform List<scalar> 
300
(
36590.5105253909
36590.8023554876
36590.9427511134
36590.9685935786
36591.0242710341
36591.0878868863
36591.1624338176
36591.2504508177
36591.3517617095
36591.4668851502
36591.5962351218
36591.7401947487
36591.8991490738
36592.0734598903
36592.263479727
36592.469550855
36592.6920041822
36592.9311627688
36593.1873415011
36593.4608469621
36593.7519794662
36594.0610315454
36594.3882896984
36594.7340338839
36595.0985372357
36595.4820740875
36595.8849146806
36596.3073232658
36596.7495643712
36597.211894383
36597.6945606315
36598.1978192462
36598.7219334174
36599.2671591591
36599.8337494252
36600.4219512325
36601.0320115269
36601.6641836683
36602.3187211373
36602.9958743065
36603.6958919234
36604.4190294082
36605.1655429793
36605.9356876759
36606.7297199744
36607.5478976601
36608.3904795624
36609.2577249498
36610.1498912719
36611.0672341621
36612.0100076764
36612.9784750637
36613.9729148828
36614.9936077783
36616.0408400703
36617.1149082025
36618.2161073474
36619.3447329639
36620.5010903399
36621.6854901344
36622.8982473697
36624.1396881618
36625.4101322551
36626.7099006086
36628.0393412171
36629.3988184762
36630.7886998701
36632.2093575947
36633.6611714478
36635.1445325997
36636.6598379333
36638.2074839108
36639.7878856763
36641.4014745693
36643.0486828205
36644.7299456369
36646.4457217482
36648.1964991843
36649.9827676941
36651.8050234371
36653.6637942784
36655.5596253635
36657.4930635811
36659.4646633954
36661.4749943711
36663.5246580816
36665.6142852631
36667.7445161641
36669.9160027875
36672.1294236206
36674.3854681428
36676.684845807
36679.0283218102
36681.4166732898
36683.8506929423
36686.3312147049
36688.8590934184
36691.4352133573
36694.060485241
36696.7358535135
36699.4623083084
36702.2408536199
36705.0725273617
36707.9584302738
36710.8996989436
36713.8975064217
36716.953065863
36720.0676379404
36723.2425414848
36726.4791442812
36729.7788647252
36733.1431716228
36736.5735870131
36740.0717134321
36743.6392127993
36747.2778058248
36750.9892823567
36754.7755244409
36758.6385107657
36762.5802764709
36766.6029420811
36770.7087329173
36774.8999713973
36779.1791000842
36783.5486930727
36788.0114334286
36792.5701152418
36797.2276843507
36801.987244823
36806.8520405398
36811.8254798865
36816.9111647586
36822.1128991698
36827.4346630255
36832.8806510006
36838.4553470261
36844.1635099136
36850.010170951
36856.0006683182
36862.1406819345
36868.436263231
36874.8938609131
36881.5203559001
36888.3230965221
36895.3099754661
36902.4895069861
36909.8708704602
36917.4639854197
36925.279541987
36933.3291230513
36941.6253819276
36950.182101615
36959.0143469081
36968.138712694
36977.5734187207
36987.3386259529
36997.4566893261
37007.9527530598
37018.8553443799
37030.1981872197
37042.0286100402
37054.40616914
37067.3892017415
37081.0370121152
37095.4295221685
37110.6643292636
37126.8132057637
37143.9388088549
37162.1580758216
37181.618127474
37202.4399731926
37224.7320702006
37248.619715114
37274.1497829608
37301.3332644471
37330.4045954899
37361.6372274901
37395.1806978933
37431.5580082185
37471.7804840189
37517.1922665283
37570.1520367371
37634.5426006882
37715.9199500687
37822.8589661545
37968.3029176165
38170.7507757979
38457.5527887044
38869.5942268859
39467.9075478325
40345.6191474716
41648.9340140879
43612.4072676878
46680.6791199528
51309.0248274226
57825.3852719454
67280.9172503852
80232.0227871025
97699.1424766059
120049.441288425
147355.677049069
179469.076668113
215936.917255093
256089.417878976
299856.91714531
347103.66757792
397166.32381013
448492.188382253
498959.360171746
546614.893425528
590181.814536326
629143.422785458
663538.756033286
693742.681146526
720264.450837355
743605.908463135
764270.212665759
782713.783732471
799306.421767047
814347.555655666
828073.800356859
840682.353770515
852347.737889961
863213.095987221
873397.106076298
882996.363211779
892090.477027037
900744.923753929
909013.407225689
916939.862396862
924559.987959972
931902.490901578
938990.093889581
945840.306054902
952466.136232815
958876.702173464
965077.679793139
971071.677992699
976858.915430443
982436.753461461
987799.776108844
992941.144119999
997852.615484135
1002524.55649381
1006946.00124763
1011104.74228173
1014987.29508581
1018579.18835789
1021865.17381949
1024829.05885268
1027454.29868858
1029723.90378274
1031620.15045003
1033124.86174278
1034219.11891887
1034883.82961137
1035093.51801699
1034840.70044055
1034102.68817832
1032857.59246636
1031084.90886189
1028764.12289809
1025874.58526888
1022395.39834872
1018305.37733654
1013583.30423717
1008207.3912768
1002155.34917104
995405.015639712
987933.720048246
979718.39861814
970735.132465995
960958.533983295
950363.205726406
938922.963184439
926609.439737424
913392.843326743
899241.686488895
884122.651226716
868000.314388297
850836.972859184
832592.490165911
813226.748713963
792696.445140472
770947.898665678
747924.74511739
723565.722573197
697795.78207105
670536.568064548
641702.833724165
611186.186930516
578861.666457234
544593.181335083
508196.712235241
469448.601505704
428068.524308192
383663.665914512
335688.936428985
283350.09913858
225601.008930294
)
;

boundaryField
{
    electrode
    {
        type            calculated;
        value           uniform 36590.5105253922;
    }
    ground
    {
        type            calculated;
        value           uniform 192852.45440245;
    }
    otherfaces
    {
        type            empty;
    }
}


// ************************************************************************* //
