/*--------------------------------*- C++ -*----------------------------------*\
| =========                 |                                                 |
| \\      /  F ield         | foam-extend: Open Source CFD                    |
|  \\    /   O peration     | Version:     4.0                                |
|   \\  /    A nd           | Web:         http://www.foam-extend.org         |
|    \\/     M anipulation  |                                                 |
\*---------------------------------------------------------------------------*/
FoamFile
{
    version     2.0;
    format      ascii;
    class       volScalarField;
    location    "2.7e-06";
    object      Ar;
}
// * * * * * * * * * * * * * * * * * * * * * * * * * * * * * * * * * * * * * //

dimensions      [0 0 0 1 0 0 0];

internalField   nonuniform List<scalar> 
300
(
3.21880347159897e+22
3.21880346843166e+22
3.21880347065699e+22
3.21880347212481e+22
3.21880347415348e+22
3.21880347693112e+22
3.21880348034313e+22
3.21880348440129e+22
3.21880348910678e+22
3.2188034944541e+22
3.21880350044062e+22
3.21880350706368e+22
3.21880351432051e+22
3.2188035222084e+22
3.2188035307246e+22
3.21880353986635e+22
3.21880354963111e+22
3.21880356001586e+22
3.21880357101746e+22
3.21880358263285e+22
3.21880359485888e+22
3.21880360769233e+22
3.21880362112989e+22
3.21880363516816e+22
3.21880364980527e+22
3.21880366503642e+22
3.21880368085812e+22
3.21880369726697e+22
3.21880371425834e+22
3.2188037318284e+22
3.21880374997513e+22
3.21880376869393e+22
3.21880378797947e+22
3.21880380782769e+22
3.21880382823447e+22
3.21880384919574e+22
3.21880387070785e+22
3.21880389276651e+22
3.21880391536737e+22
3.21880393850645e+22
3.21880396217977e+22
3.21880398638322e+22
3.21880401111283e+22
3.21880403636474e+22
3.21880406213512e+22
3.21880408842024e+22
3.21880411521669e+22
3.21880414252107e+22
3.21880417033101e+22
3.21880419864361e+22
3.2188042274572e+22
3.21880425676772e+22
3.21880428657306e+22
3.21880431686894e+22
3.21880434765218e+22
3.21880437891898e+22
3.21880441066701e+22
3.21880444289419e+22
3.21880447559868e+22
3.21880450877908e+22
3.21880454243383e+22
3.21880457656183e+22
3.21880461116279e+22
3.21880464623816e+22
3.21880468178748e+22
3.21880471780841e+22
3.21880475430126e+22
3.21880479126672e+22
3.2188048287058e+22
3.21880486661988e+22
3.21880490501095e+22
3.21880494388195e+22
3.21880498323567e+22
3.21880502307436e+22
3.21880506340281e+22
3.21880510422471e+22
3.21880514554366e+22
3.21880518736476e+22
3.21880522969108e+22
3.21880527253123e+22
3.21880531588773e+22
3.21880535976679e+22
3.21880540417573e+22
3.21880544912197e+22
3.21880549461503e+22
3.2188055406625e+22
3.21880558727211e+22
3.21880563445326e+22
3.21880568221705e+22
3.21880573057318e+22
3.21880577953323e+22
3.21880582911322e+22
3.21880587931964e+22
3.21880593016489e+22
3.21880598166205e+22
3.21880603382471e+22
3.21880608666703e+22
3.21880614020369e+22
3.21880619445093e+22
3.21880624942443e+22
3.21880630513973e+22
3.21880636161334e+22
3.21880641886562e+22
3.21880647691124e+22
3.21880653576924e+22
3.21880659545909e+22
3.21880665599827e+22
3.21880671740817e+22
3.21880677970756e+22
3.21880684291613e+22
3.21880690705464e+22
3.21880697214428e+22
3.21880703820711e+22
3.21880710526492e+22
3.21880717333981e+22
3.21880724245567e+22
3.21880731263676e+22
3.21880738390315e+22
3.21880745627746e+22
3.21880752978335e+22
3.21880760444644e+22
3.21880768028841e+22
3.21880775733523e+22
3.21880783560885e+22
3.21880791513109e+22
3.21880799592502e+22
3.21880807801615e+22
3.21880816142523e+22
3.21880824617558e+22
3.21880833228935e+22
3.21880841978968e+22
3.21880850869812e+22
3.21880859903587e+22
3.21880869082566e+22
3.21880878409071e+22
3.21880887884799e+22
3.21880897511524e+22
3.21880907291229e+22
3.21880917225745e+22
3.21880927316524e+22
3.21880937565165e+22
3.21880947973158e+22
3.21880958542022e+22
3.21880969273139e+22
3.21880980167669e+22
3.21880991226168e+22
3.21881002449364e+22
3.21881013837808e+22
3.21881025391987e+22
3.21881037112343e+22
3.21881048998451e+22
3.21881061049978e+22
3.21881073266655e+22
3.21881085647248e+22
3.21881098190294e+22
3.21881110894185e+22
3.21881123756726e+22
3.21881136774653e+22
3.21881149944181e+22
3.21881163261508e+22
3.21881176719369e+22
3.21881190312885e+22
3.21881204058863e+22
3.21881217846287e+22
3.21881231655896e+22
3.21881245590054e+22
3.21881259624868e+22
3.21881273739675e+22
3.21881287814957e+22
3.21881301897919e+22
3.2188131590875e+22
3.21881329893796e+22
3.21881343970661e+22
3.21881357686199e+22
3.21881371271446e+22
3.21881384724628e+22
3.21881397477372e+22
3.21881410210652e+22
3.21881422110803e+22
3.21881433229036e+22
3.21881444119416e+22
3.21881453866956e+22
3.21881462501037e+22
3.21881470819532e+22
3.21881477758626e+22
3.21881483700169e+22
3.2188148921572e+22
3.21881493819596e+22
3.21881497507625e+22
3.21881500530554e+22
3.21881503403619e+22
3.21881505739118e+22
3.21881507568177e+22
3.21881508953565e+22
3.21881509543555e+22
3.21881509685809e+22
3.21881509371934e+22
3.21881509212557e+22
3.21881509267562e+22
3.21881509511017e+22
3.21881509831798e+22
3.21881510254519e+22
3.218815108793e+22
3.21881511497417e+22
3.21881512051976e+22
3.21881512551185e+22
3.21881512995076e+22
3.2188151339013e+22
3.21881513731679e+22
3.2188151403211e+22
3.21881514290854e+22
3.2188151463909e+22
3.2188151502342e+22
3.21881515382353e+22
3.21881515706259e+22
3.21881516010828e+22
3.21881516284538e+22
3.21881516543905e+22
3.21881516774865e+22
3.21881516995537e+22
3.2188151719011e+22
3.21881517376752e+22
3.21881517539289e+22
3.21881517698306e+22
3.21881517901862e+22
3.21881518171366e+22
3.2188151841639e+22
3.21881518664285e+22
3.21881518889046e+22
3.21881519116809e+22
3.21881519321421e+22
3.21881519530816e+22
3.21881519714783e+22
3.2188151990695e+22
3.21881520071972e+22
3.21881520248347e+22
3.21881520396758e+22
3.21881520558732e+22
3.21881520693038e+22
3.21881520842326e+22
3.21881520963798e+22
3.21881521101626e+22
3.21881521245212e+22
3.21881521462981e+22
3.21881521649738e+22
3.21881521855621e+22
3.21881522028986e+22
3.21881522223001e+22
3.21881522384213e+22
3.2188152256681e+22
3.21881522717367e+22
3.21881522889172e+22
3.21881523028916e+22
3.21881523191357e+22
3.21881523320012e+22
3.21881523473565e+22
3.21881523591892e+22
3.21881523736678e+22
3.2188152384509e+22
3.21881523981629e+22
3.21881524080324e+22
3.21881524207802e+22
3.21881524298146e+22
3.21881524416322e+22
3.21881524498419e+22
3.21881524608208e+22
3.21881524681981e+22
3.21881524787232e+22
3.21881524913864e+22
3.21881525066439e+22
3.21881525185416e+22
3.21881525330663e+22
3.21881525442699e+22
3.21881525581544e+22
3.21881525687004e+22
3.21881525820496e+22
3.21881525919504e+22
3.21881526047887e+22
3.21881526140566e+22
3.2188152626427e+22
3.21881526351136e+22
3.21881526469822e+22
3.2188152655235e+22
3.21881526666823e+22
3.21881526744963e+22
3.21881526854751e+22
3.21881526928161e+22
3.21881527033735e+22
3.21881527101414e+22
3.2188152720421e+22
3.21881527267833e+22
3.21881527367314e+22
3.21881527425739e+22
3.21881527523876e+22
3.21881527580829e+22
3.21881527677664e+22
3.21881527734706e+22
3.21881527833402e+22
3.21881527892932e+22
3.21881528018193e+22
)
;

boundaryField
{
    electrode
    {
        type            zeroGradient;
    }
    ground
    {
        type            zeroGradient;
    }
    otherfaces
    {
        type            empty;
    }
}


// ************************************************************************* //
