/*--------------------------------*- C++ -*----------------------------------*\
| =========                 |                                                 |
| \\      /  F ield         | foam-extend: Open Source CFD                    |
|  \\    /   O peration     | Version:     4.0                                |
|   \\  /    A nd           | Web:         http://www.foam-extend.org         |
|    \\/     M anipulation  |                                                 |
\*---------------------------------------------------------------------------*/
FoamFile
{
    version     2.0;
    format      ascii;
    class       volVectorField;
    location    "2.7e-06";
    object      E;
}
// * * * * * * * * * * * * * * * * * * * * * * * * * * * * * * * * * * * * * //

dimensions      [0 0 0 1 0 0 0];

internalField   nonuniform List<vector> 
300
(
(4.75366620650286 -0 -0)
(10.0129501773294 -0 -0)
(17.3480998150177 -0 -0)
(24.3840798302977 -0 -0)
(31.3002391713606 -0 -0)
(38.250650293004 -0 -0)
(45.1954039568108 -0 -0)
(52.1349879184497 -0 -0)
(59.0716395465491 -0 -0)
(66.0040618868935 -0 -0)
(72.9316979017333 -0 -0)
(79.8541023097629 -0 -0)
(86.7707672672089 -0 -0)
(93.6812144400316 -0 -0)
(100.584990353482 -0 -0)
(107.481663078058 -0 -0)
(114.370826147234 -0 -0)
(121.252100855619 -0 -0)
(128.125138498804 -0 -0)
(134.989622792289 -0 -0)
(141.845272352838 -0 -0)
(148.691843283867 -0 -0)
(155.529131827534 -0 -0)
(162.35697713335 -0 -0)
(169.175264072565 -0 -0)
(175.983926202491 -0 -0)
(182.782948814077 -0 -0)
(189.572372058524 -0 -0)
(196.352294223874 -0 -0)
(203.122875082342 -0 -0)
(209.884339366661 -0 -0)
(216.636980367125 -0 -0)
(223.381163595737 -0 -0)
(230.117330657388 -0 -0)
(236.846003105703 -0 -0)
(243.567786527313 -0 -0)
(250.283374687879 -0 -0)
(256.993553783505 -0 -0)
(263.699206874717 -0 -0)
(270.40131833636 -0 -0)
(277.100978517075 -0 -0)
(283.799388431401 -0 -0)
(290.497864646772 -0 -0)
(297.197844201178 -0 -0)
(303.900889682436 -0 -0)
(310.608694427427 -0 -0)
(317.323087822776 -0 -0)
(324.046040654811 -0 -0)
(330.779670654236 -0 -0)
(337.526248138308 -0 -0)
(344.288201664691 -0 -0)
(351.068123934129 -0 -0)
(357.868777682497 -0 -0)
(364.693101750949 -0 -0)
(371.544217209233 -0 -0)
(378.425433651612 -0 -0)
(385.340255483517 -0 -0)
(392.292388473642 -0 -0)
(399.285746241405 -0 -0)
(406.324456976621 -0 -0)
(413.412870262127 -0 -0)
(420.555563865248 -0 -0)
(427.757350815508 -0 -0)
(435.023286493628 -0 -0)
(442.358675810294 -0 -0)
(449.769080500306 -0 -0)
(457.260326544637 -0 -0)
(464.838511557337 -0 -0)
(472.510012250504 -0 -0)
(480.28149188949 -0 -0)
(488.159907555034 -0 -0)
(496.152517250103 -0 -0)
(504.266886489129 -0 -0)
(512.510894140513 -0 -0)
(520.892737156162 -0 -0)
(529.420933347063 -0 -0)
(538.104321343058 -0 -0)
(546.95205649607 -0 -0)
(555.97360026227 -0 -0)
(565.178714928444 -0 -0)
(574.577090223302 -0 -0)
(584.178530932459 -0 -0)
(593.99461618525 -0 -0)
(604.037314341835 -0 -0)
(614.31779452981 -0 -0)
(624.848949665062 -0 -0)
(635.644706832653 -0 -0)
(646.71881013368 -0 -0)
(658.085487482841 -0 -0)
(669.759421977122 -0 -0)
(681.755773801543 -0 -0)
(694.090210893871 -0 -0)
(706.778940864974 -0 -0)
(719.838743408544 -0 -0)
(733.287002139948 -0 -0)
(747.14173538833 -0 -0)
(761.421626886778 -0 -0)
(776.146056666156 -0 -0)
(791.33513267584 -0 -0)
(807.009723917474 -0 -0)
(823.191495664792 -0 -0)
(839.90294694201 -0 -0)
(857.16745100586 -0 -0)
(875.009299104547 -0 -0)
(893.453747723237 -0 -0)
(912.52706976583 -0 -0)
(932.256610079561 -0 -0)
(952.670845873282 -0 -0)
(973.79945209623 -0 -0)
(995.673372416815 -0 -0)
(1018.32489671503 -0 -0)
(1041.78774529991 -0 -0)
(1066.09716049289 -0 -0)
(1091.29000660662 -0 -0)
(1117.40487915441 -0 -0)
(1144.48222401619 -0 -0)
(1172.56446771365 -0 -0)
(1201.69616030518 -0 -0)
(1231.92413180987 -0 -0)
(1263.29766366186 -0 -0)
(1295.86867744794 -0 -0)
(1329.69194235722 -0 -0)
(1364.8253035654 -0 -0)
(1401.32993397146 -0 -0)
(1439.2706125199 -0 -0)
(1478.71603182209 -0 -0)
(1519.73913885841 -0 -0)
(1562.41751268047 -0 -0)
(1606.83378432491 -0 -0)
(1653.07610408579 -0 -0)
(1701.23866240178 -0 -0)
(1751.42227168705 -0 -0)
(1803.73501719754 -0 -0)
(1858.29298690145 -0 -0)
(1915.22109175301 -0 -0)
(1974.65398892747 -0 -0)
(2036.73712356009 -0 -0)
(2101.62790708647 -0 -0)
(2169.49705307303 -0 -0)
(2240.53009505409 -0 -0)
(2314.92911597373 -0 -0)
(2392.91472358293 -0 -0)
(2474.72831278966 -0 -0)
(2560.63466406887 -0 -0)
(2650.92493591964 -0 -0)
(2745.92012117436 -0 -0)
(2845.97505123303 -0 -0)
(2951.4830487759 -0 -0)
(3062.88135052484 -0 -0)
(3180.65744727593 -0 -0)
(3305.35651972311 -0 -0)
(3437.59018646761 -0 -0)
(3578.04682881052 -0 -0)
(3727.50381493102 -0 -0)
(3886.8420176453 -0 -0)
(4057.06309131212 -0 -0)
(4239.31014327008 -0 -0)
(4434.89287077823 -0 -0)
(4645.31652840292 -0 -0)
(4872.31664912433 -0 -0)
(5117.93352820818 -0 -0)
(5384.50998767897 -0 -0)
(5674.73240561031 -0 -0)
(5993.3909469166 -0 -0)
(6347.74318928403 -0 -0)
(6744.36315850958 -0 -0)
(7188.86830197573 -0 -0)
(7688.18567384402 -0 -0)
(8252.41252690401 -0 -0)
(8893.73764693219 -0 -0)
(9625.31243621157 -0 -0)
(10459.9643670904 -0 -0)
(11407.221221584 -0 -0)
(12481.131365341 -0 -0)
(13697.1488921846 -0 -0)
(15063.8335161597 -0 -0)
(16594.8496653401 -0 -0)
(18295.5896694819 -0 -0)
(20167.627368788 -0 -0)
(22219.1667008838 -0 -0)
(24436.4948964292 -0 -0)
(26805.1488856078 -0 -0)
(29323.5378020251 -0 -0)
(31963.7494036384 -0 -0)
(34700.2202822482 -0 -0)
(37523.6127534272 -0 -0)
(40401.6609265266 -0 -0)
(43302.8977404915 -0 -0)
(46215.2911535822 -0 -0)
(49130.3571308668 -0 -0)
(52025.4628949808 -0 -0)
(54882.3300028612 -0 -0)
(57698.0232169569 -0 -0)
(60483.5888973488 -0 -0)
(63250.4692953129 -0 -0)
(65999.8518636215 -0 -0)
(68751.457183387 -0 -0)
(71517.3796643004 -0 -0)
(74293.0024708388 -0 -0)
(77073.5490335473 -0 -0)
(79852.3378868194 -0 -0)
(82623.1730271952 -0 -0)
(85374.624675342 -0 -0)
(88098.2373631309 -0 -0)
(90793.9183422905 -0 -0)
(93463.525995873 -0 -0)
(96109.3058382582 -0 -0)
(98733.7082133902 -0 -0)
(101339.186571397 -0 -0)
(103928.154141837 -0 -0)
(106502.990857936 -0 -0)
(109062.327048288 -0 -0)
(111602.382386311 -0 -0)
(114122.809473934 -0 -0)
(116625.442347778 -0 -0)
(119111.95272755 -0 -0)
(121583.914434877 -0 -0)
(124042.756447847 -0 -0)
(126489.833198504 -0 -0)
(128926.382509672 -0 -0)
(131353.567366737 -0 -0)
(133772.476004582 -0 -0)
(136184.134226582 -0 -0)
(138589.452130865 -0 -0)
(140987.290467366 -0 -0)
(143374.373253643 -0 -0)
(145749.455921327 -0 -0)
(148113.186350854 -0 -0)
(150466.164616143 -0 -0)
(152808.973995392 -0 -0)
(155142.191147975 -0 -0)
(157466.334347551 -0 -0)
(159781.980104179 -0 -0)
(162089.595434391 -0 -0)
(164389.696964295 -0 -0)
(166682.69837969 -0 -0)
(168969.035349104 -0 -0)
(171249.074094333 -0 -0)
(173523.168150428 -0 -0)
(175791.627522817 -0 -0)
(178054.762881997 -0 -0)
(180312.845555876 -0 -0)
(182565.13242593 -0 -0)
(184809.13667955 -0 -0)
(187043.483553259 -0 -0)
(189268.453187968 -0 -0)
(191484.37190125 -0 -0)
(193691.523316569 -0 -0)
(195890.198088399 -0 -0)
(198080.667928828 -0 -0)
(200263.183255088 -0 -0)
(202437.999206969 -0 -0)
(204605.375082144 -0 -0)
(206765.526974468 -0 -0)
(208918.724576345 -0 -0)
(211065.174506695 -0 -0)
(213205.12773961 -0 -0)
(215338.792886778 -0 -0)
(217466.415183281 -0 -0)
(219588.188875853 -0 -0)
(221704.352548793 -0 -0)
(223815.12685258 -0 -0)
(225920.713354911 -0 -0)
(228021.343420716 -0 -0)
(230117.219203387 -0 -0)
(232208.548230168 -0 -0)
(234295.538867541 -0 -0)
(236378.287601654 -0 -0)
(238455.163286093 -0 -0)
(240524.702306678 -0 -0)
(242587.098884943 -0 -0)
(244642.537318759 -0 -0)
(246691.191913426 -0 -0)
(248733.222264284 -0 -0)
(250768.79452021 -0 -0)
(252798.041499418 -0 -0)
(254821.129633274 -0 -0)
(256838.184925955 -0 -0)
(258849.369217263 -0 -0)
(260854.795549163 -0 -0)
(262854.613117561 -0 -0)
(264848.950973456 -0 -0)
(266837.940934364 -0 -0)
(268821.716956014 -0 -0)
(270800.396207181 -0 -0)
(272774.099789376 -0 -0)
(274742.951201268 -0 -0)
(276707.055951993 -0 -0)
(278666.567422302 -0 -0)
(280621.589795845 -0 -0)
(282572.279283105 -0 -0)
(284518.730954567 -0 -0)
(286461.081953759 -0 -0)
(288399.409434688 -0 -0)
(290333.807280466 -0 -0)
(292264.33095451 -0 -0)
(294191.042287937 -0 -0)
(296113.981480751 -0 -0)
(298033.191147075 -0 -0)
(299948.055313854 -0 -0)
)
;

boundaryField
{
    electrode
    {
        type            calculated;
        value           uniform (3.23375975085583 -0 -0);
    }
    ground
    {
        type            calculated;
        value           uniform (300903.933587145 -0 -0);
    }
    otherfaces
    {
        type            empty;
    }
}


// ************************************************************************* //
