/*--------------------------------*- C++ -*----------------------------------*\
| =========                 |                                                 |
| \\      /  F ield         | foam-extend: Open Source CFD                    |
|  \\    /   O peration     | Version:     4.0                                |
|   \\  /    A nd           | Web:         http://www.foam-extend.org         |
|    \\/     M anipulation  |                                                 |
\*---------------------------------------------------------------------------*/
FoamFile
{
    version     2.0;
    format      ascii;
    class       volScalarField;
    location    "2.7e-06";
    object      electron;
}
// * * * * * * * * * * * * * * * * * * * * * * * * * * * * * * * * * * * * * //

dimensions      [0 0 0 1 0 0 0];

internalField   nonuniform List<scalar> 
300
(
5.93484534384055e+16
5.93464769470198e+16
5.93417386761883e+16
5.93338954757737e+16
5.93229859687862e+16
5.9309009568316e+16
5.92919652289045e+16
5.92718578174343e+16
5.9248692120511e+16
5.92224735349e+16
5.91932082727847e+16
5.9160903232809e+16
5.9125565998534e+16
5.90872048340274e+16
5.90458286693678e+16
5.90014470872375e+16
5.89540703085784e+16
5.89037091768615e+16
5.88503751411993e+16
5.8794080238273e+16
5.87348370730589e+16
5.86726587983465e+16
5.86075590930326e+16
5.85395521391871e+16
5.84686525978813e+16
5.83948755837709e+16
5.83182366384193e+16
5.82387517023605e+16
5.81564370858925e+16
5.80713094385935e+16
5.79833857175609e+16
5.7892683154364e+16
5.77992192207173e+16
5.77030115928641e+16
5.76040781146812e+16
5.75024367595104e+16
5.73981055907139e+16
5.72911027209715e+16
5.71814462703226e+16
5.70691543229712e+16
5.69542448828698e+16
5.68367358280994e+16
5.67166448640668e+16
5.6593989475543e+16
5.64687868775753e+16
5.63410539652938e+16
5.62108072626438e+16
5.60780628700935e+16
5.59428364113491e+16
5.58051429791095e+16
5.56649970799207e+16
5.55224125781733e+16
5.53774026392876e+16
5.52299796721522e+16
5.50801552708679e+16
5.49279401558567e+16
5.47733441144115e+16
5.46163759407438e+16
5.44570433756067e+16
5.42953530455759e+16
5.41313104020476e+16
5.39649196600626e+16
5.3796183737039e+16
5.3625104191491e+16
5.34516811618558e+16
5.32759133055308e+16
5.30977977382305e+16
5.29173299738003e+16
5.27345038646415e+16
5.25493115429064e+16
5.23617433626787e+16
5.21717878433886e+16
5.19794316147825e+16
5.178465936388e+16
5.15874537844761e+16
5.1387795529966e+16
5.11856631705838e+16
5.09810331565164e+16
5.07738797888362e+16
5.05641752003093e+16
5.03518893456348e+16
5.01369900598276e+16
4.99194412208857e+16
4.96992032182867e+16
4.94762356181667e+16
4.92504963895304e+16
4.9021940839493e+16
4.87905216293027e+16
4.85561887587359e+16
4.83188895617236e+16
4.80785687091415e+16
4.78351682136026e+16
4.75886274345439e+16
4.73388830835375e+16
4.70858692303761e+16
4.68295173108505e+16
4.65697561371471e+16
4.63065119116679e+16
4.60397082449845e+16
4.57692661784776e+16
4.54951042120528e+16
4.5217138337257e+16
4.49352820760408e+16
4.46494465253313e+16
4.43595404075864e+16
4.40654701274876e+16
4.37671398349074e+16
4.34644514942564e+16
4.31573049603475e+16
4.28455980609349e+16
4.25292266860224e+16
4.22080848840306e+16
4.18820649649655e+16
4.15510576106913e+16
4.12149519923691e+16
4.08736358951434e+16
4.05269958501588e+16
4.01749172739265e+16
3.98172846150575e+16
3.9453981508413e+16
3.90848909366328e+16
3.8709895398978e+16
3.83288770874469e+16
3.79417180700932e+16
3.75483004813971e+16
3.71485067195141e+16
3.67422196502207e+16
3.632932281734e+16
3.59097006593646e+16
3.54832387319178e+16
3.50498239356844e+16
3.46093447493719e+16
3.41616914672127e+16
3.37067564404571e+16
3.32444343221844e+16
3.2774622314733e+16
3.22972204189987e+16
3.18121316847368e+16
3.13192624609206e+16
3.0818522645183e+16
3.0309825931297e+16
2.97930900536046e+16
2.92682370273268e+16
2.87351933837253e+16
2.81938903992072e+16
2.76442643177246e+16
2.70862565661687e+16
2.65198139630417e+16
2.59448889216037e+16
2.53614396499852e+16
2.4769430352606e+16
2.41688314399156e+16
2.35596197571846e+16
2.29417788482046e+16
2.23152992767473e+16
2.16801790385258e+16
2.10364241068253e+16
2.03840491526365e+16
1.97230784864149e+16
1.90535473822744e+16
1.83755022329103e+16
1.76889988345023e+16
1.69941024736376e+16
1.62908126079659e+16
1.55789221915584e+16
1.48580600402861e+16
1.41279012710206e+16
1.33882811474621e+16
1.26391596060333e+16
1.18806118096059e+16
1.11129615394363e+16
1.03370143923819e+16
9.55440764622211e+15
8.76775987317463e+15
7.98065696272114e+15
7.19790439802242e+15
6.42553673124686e+15
5.67071259531241e+15
4.94160546478249e+15
4.24682803228165e+15
3.59501045026352e+15
2.99427171654115e+15
2.4512688612188e+15
1.9706850794815e+15
1.55489759027025e+15
1.2036322095713e+15
914072866768384
681172053956038
498532673037756
359034532449322
255064371798469
179386882935525
125487432713705
87868000003671.8
60506300227794.5
40780286719706.5
26935562155342.8
17119032751965.9
10651720778782.1
6722175038370.28
4468329915409.49
3200050093083.67
2479213516409.54
2060089038763.85
1810834421884.22
1660040325525.05
1568286255174.67
1512797523965.88
1479722384057.09
1460632708133.48
1450067724644.02
1444292336339.37
1440779253358.43
1437922535590.08
1434630521896.11
1430180241707.24
1424104582377.39
1416121713865.05
1406084995353.57
1393945127558.73
1379727783293.62
1363474431553.7
1345265423851.88
1325250604821.95
1303604260310.2
1280516230913.56
1256181854272.43
1230795225355.47
1204544833540.89
1177610956846.91
1150163788635.8
1122362179429.6
1094352809760.38
1066269753289.75
1038234341710.28
1010355270271.24
982728904539.025
955439727319.47
928560910456.635
902154962636.808
876274442108.836
850962716411.123
826254921511.59
802179175523.261
778757245243.941
756004568471.135
733930550308.444
712539055135.985
691828050372.949
671786107079.094
652401742392.66
633667483364.146
615573317541.754
598107446319.004
581256213207.545
565005489457.078
549339896370.621
534239581928.694
519684380775.925
505657699552.026
492142581974.199
479120725126.315
466573920440.939
454484129077.262
442833406269.388
431604118430.726
420774065577.031
410319697175.143
400223452418.666
390471037743.846
381049329134.547
371945984418.364
363149338518.18
354648403697.603
346432885147.42
338493205309.334
330820528588.017
323406789854.116
316244725565.564
309327875163.681
302650503283.073
296206692934.238
289987364113.797
283961521360.73
278107083614.359
272431531915.727
266945775013.837
261662012030.713
256592263703.995
251707034120.047
246984188235.863
242459566138.929
238173196450.142
234119881445.82
230343258841.506
226927834898.599
224012442181.613
221890711821.016
221010720245.991
222202530206.878
)
;

boundaryField
{
    electrode
    {
        type            driftDiffusionElectronDensity;
        seec            0.05;
        Edepend         1;
        field_emission  0;
        field_enhancement_factor 55;
        work_function   5;
        value           uniform 5.93484534384055e+16;
    }
    ground
    {
        type            driftDiffusionElectronDensity;
        seec            0.05;
        Edepend         1;
        field_emission  0;
        field_enhancement_factor 55;
        work_function   5;
        value           uniform 224422537960.851;
    }
    otherfaces
    {
        type            empty;
    }
}


// ************************************************************************* //
