/*--------------------------------*- C++ -*----------------------------------*\
| =========                 |                                                 |
| \\      /  F ield         | foam-extend: Open Source CFD                    |
|  \\    /   O peration     | Version:     4.0                                |
|   \\  /    A nd           | Web:         http://www.foam-extend.org         |
|    \\/     M anipulation  |                                                 |
\*---------------------------------------------------------------------------*/
FoamFile
{
    version     2.0;
    format      ascii;
    class       volVectorField;
    location    "2.7e-06";
    object      J_Arp1;
}
// * * * * * * * * * * * * * * * * * * * * * * * * * * * * * * * * * * * * * //

dimensions      [1 -1 -1 0 0 0 0];

internalField   nonuniform List<vector> 
300
(
(1.75663632739608e+16 -0 -0)
(5.93280056972967e+16 -0 -0)
(1.0416924678878e+17 -0 -0)
(1.45338875612082e+17 -0 -0)
(1.86533859290461e+17 -0 -0)
(2.27921861246504e+17 -0 -0)
(2.69194130321914e+17 -0 -0)
(3.10391193755102e+17 -0 -0)
(3.51512760052583e+17 -0 -0)
(3.92543196562652e+17 -0 -0)
(4.33473847061556e+17 -0 -0)
(4.7429576463478e+17 -0 -0)
(5.14999729570373e+17 -0 -0)
(5.55576814308021e+17 -0 -0)
(5.96018275583857e+17 -0 -0)
(6.36315554682506e+17 -0 -0)
(6.76460305765896e+17 -0 -0)
(7.16444409858301e+17 -0 -0)
(7.56259990218999e+17 -0 -0)
(7.95899428415341e+17 -0 -0)
(8.3535538020499e+17 -0 -0)
(8.74620791702581e+17 -0 -0)
(9.13688915580942e+17 -0 -0)
(9.52553327476283e+17 -0 -0)
(9.91207942221468e+17 -0 -0)
(1.029647030532e+18 -0 -0)
(1.06786523561699e+18 -0 -0)
(1.10585758974004e+18 -0 -0)
(1.14361953114263e+18 -0 -0)
(1.1811469207647e+18 -0 -0)
(1.2184360590856e+18 -0 -0)
(1.25548370309631e+18 -0 -0)
(1.29228708296082e+18 -0 -0)
(1.32884391915423e+18 -0 -0)
(1.36515243886516e+18 -0 -0)
(1.40121139290806e+18 -0 -0)
(1.4370200722136e+18 -0 -0)
(1.47257832417031e+18 -0 -0)
(1.507886569108e+18 -0 -0)
(1.54294581601449e+18 -0 -0)
(1.57775767860168e+18 -0 -0)
(1.61232439055684e+18 -0 -0)
(1.64664882094677e+18 -0 -0)
(1.68073448885252e+18 -0 -0)
(1.71458557782087e+18 -0 -0)
(1.74820694993654e+18 -0 -0)
(1.78160415942211e+18 -0 -0)
(1.81478346530771e+18 -0 -0)
(1.84775184403058e+18 -0 -0)
(1.8805170014388e+18 -0 -0)
(1.91308738351318e+18 -0 -0)
(1.94547218722827e+18 -0 -0)
(1.97768137005975e+18 -0 -0)
(2.00972565904164e+18 -0 -0)
(2.04161655871685e+18 -0 -0)
(2.07336635860431e+18 -0 -0)
(2.10498813907703e+18 -0 -0)
(2.13649577710187e+18 -0 -0)
(2.16790395008024e+18 -0 -0)
(2.19922813921196e+18 -0 -0)
(2.23048463168659e+18 -0 -0)
(2.2616905209808e+18 -0 -0)
(2.29286370675491e+18 -0 -0)
(2.32402289289879e+18 -0 -0)
(2.35518758411198e+18 -0 -0)
(2.38637808094589e+18 -0 -0)
(2.41761547338495e+18 -0 -0)
(2.44892163206181e+18 -0 -0)
(2.48031919749343e+18 -0 -0)
(2.51183156687027e+18 -0 -0)
(2.54348287743654e+18 -0 -0)
(2.57529798643707e+18 -0 -0)
(2.60730244581122e+18 -0 -0)
(2.63952247049801e+18 -0 -0)
(2.67198489836386e+18 -0 -0)
(2.70471713771046e+18 -0 -0)
(2.73774709826189e+18 -0 -0)
(2.77110309969701e+18 -0 -0)
(2.80481374602506e+18 -0 -0)
(2.83890782504634e+18 -0 -0)
(2.87341240218525e+18 -0 -0)
(2.90835370204169e+18 -0 -0)
(2.94376511024741e+18 -0 -0)
(2.97968021795477e+18 -0 -0)
(3.01612700623797e+18 -0 -0)
(3.05313996601871e+18 -0 -0)
(3.0907565427065e+18 -0 -0)
(3.12901117872966e+18 -0 -0)
(3.16793841287061e+18 -0 -0)
(3.20757261396882e+18 -0 -0)
(3.24794795065956e+18 -0 -0)
(3.28909839343081e+18 -0 -0)
(3.33105771248749e+18 -0 -0)
(3.37385946776604e+18 -0 -0)
(3.41753698517092e+18 -0 -0)
(3.46212331633053e+18 -0 -0)
(3.50765118703789e+18 -0 -0)
(3.55415293424609e+18 -0 -0)
(3.60166043338964e+18 -0 -0)
(3.65020501990691e+18 -0 -0)
(3.69981740571858e+18 -0 -0)
(3.75052759058384e+18 -0 -0)
(3.80236477103306e+18 -0 -0)
(3.85535724653251e+18 -0 -0)
(3.90953232227999e+18 -0 -0)
(3.96491620922531e+18 -0 -0)
(4.02153392191447e+18 -0 -0)
(4.07940917424062e+18 -0 -0)
(4.13856427121722e+18 -0 -0)
(4.19901999817616e+18 -0 -0)
(4.26079550865326e+18 -0 -0)
(4.32390820871049e+18 -0 -0)
(4.38837363809581e+18 -0 -0)
(4.45420534957837e+18 -0 -0)
(4.52141478601377e+18 -0 -0)
(4.59001115425943e+18 -0 -0)
(4.66000129675262e+18 -0 -0)
(4.73138956219537e+18 -0 -0)
(4.80417767299566e+18 -0 -0)
(4.87836459013371e+18 -0 -0)
(4.95394637824201e+18 -0 -0)
(5.03091606813292e+18 -0 -0)
(5.10926351739826e+18 -0 -0)
(5.18897526975291e+18 -0 -0)
(5.27003441468165e+18 -0 -0)
(5.35242044545018e+18 -0 -0)
(5.43610911654929e+18 -0 -0)
(5.52107230047089e+18 -0 -0)
(5.60727784544962e+18 -0 -0)
(5.69468943332064e+18 -0 -0)
(5.78326643815478e+18 -0 -0)
(5.87296378621372e+18 -0 -0)
(5.96373181656515e+18 -0 -0)
(6.05551614477075e+18 -0 -0)
(6.14825752993506e+18 -0 -0)
(6.24189174337018e+18 -0 -0)
(6.33634944172853e+18 -0 -0)
(6.43155604552885e+18 -0 -0)
(6.52743162242372e+18 -0 -0)
(6.6238907766701e+18 -0 -0)
(6.72084254664569e+18 -0 -0)
(6.81819030993331e+18 -0 -0)
(6.91583169833122e+18 -0 -0)
(7.01365852400214e+18 -0 -0)
(7.1115567166718e+18 -0 -0)
(7.20940627461736e+18 -0 -0)
(7.30708123111444e+18 -0 -0)
(7.40444963679871e+18 -0 -0)
(7.50137356020984e+18 -0 -0)
(7.59770910773114e+18 -0 -0)
(7.69330646618563e+18 -0 -0)
(7.78800996593192e+18 -0 -0)
(7.88165817358868e+18 -0 -0)
(7.97408400947243e+18 -0 -0)
(8.06511491788484e+18 -0 -0)
(8.15457297681747e+18 -0 -0)
(8.24227502607901e+18 -0 -0)
(8.32803448261012e+18 -0 -0)
(8.41166115831706e+18 -0 -0)
(8.49292505171838e+18 -0 -0)
(8.57175002538696e+18 -0 -0)
(8.64793661146265e+18 -0 -0)
(8.7196278347855e+18 -0 -0)
(8.79352881332287e+18 -0 -0)
(8.85507218276275e+18 -0 -0)
(8.91591717858625e+18 -0 -0)
(8.97452069257976e+18 -0 -0)
(9.02869242394201e+18 -0 -0)
(9.07991676631487e+18 -0 -0)
(9.12471671550947e+18 -0 -0)
(9.16390302377334e+18 -0 -0)
(9.20436050473058e+18 -0 -0)
(9.24094296290408e+18 -0 -0)
(9.26757031477381e+18 -0 -0)
(9.29162840305179e+18 -0 -0)
(9.32081236438938e+18 -0 -0)
(9.34000380044277e+18 -0 -0)
(9.34773322526001e+18 -0 -0)
(9.37841589227146e+18 -0 -0)
(9.37306249205923e+18 -0 -0)
(9.38931628091158e+18 -0 -0)
(9.39649450986017e+18 -0 -0)
(9.4046465957085e+18 -0 -0)
(9.40306696388952e+18 -0 -0)
(9.42134559277755e+18 -0 -0)
(9.41438379577047e+18 -0 -0)
(9.42316028696307e+18 -0 -0)
(9.42233966564106e+18 -0 -0)
(9.42807250919463e+18 -0 -0)
(9.42457928508185e+18 -0 -0)
(9.42793274981262e+18 -0 -0)
(9.42945663279924e+18 -0 -0)
(9.44376480323515e+18 -0 -0)
(9.47063301422577e+18 -0 -0)
(9.55873988159742e+18 -0 -0)
(9.71175583331571e+18 -0 -0)
(9.94629910048237e+18 -0 -0)
(1.01894925118916e+19 -0 -0)
(1.04086414301265e+19 -0 -0)
(1.05860538198781e+19 -0 -0)
(1.07347777289458e+19 -0 -0)
(1.08394615555411e+19 -0 -0)
(1.09384494917756e+19 -0 -0)
(1.10161876751143e+19 -0 -0)
(1.1086706316209e+19 -0 -0)
(1.11509258873159e+19 -0 -0)
(1.1213215650449e+19 -0 -0)
(1.12729023644513e+19 -0 -0)
(1.13327126763315e+19 -0 -0)
(1.13913536891712e+19 -0 -0)
(1.1451532452849e+19 -0 -0)
(1.1510170741232e+19 -0 -0)
(1.15709484305194e+19 -0 -0)
(1.16300920023989e+19 -0 -0)
(1.16910753551481e+19 -0 -0)
(1.17502204082583e+19 -0 -0)
(1.18114476509355e+19 -0 -0)
(1.18704090418716e+19 -0 -0)
(1.1931661315007e+19 -0 -0)
(1.19902540681921e+19 -0 -0)
(1.20511385978337e+19 -0 -0)
(1.21091919179009e+19 -0 -0)
(1.21695085659012e+19 -0 -0)
(1.22263199850276e+19 -0 -0)
(1.22854835546211e+19 -0 -0)
(1.2340051298138e+19 -0 -0)
(1.23975311179222e+19 -0 -0)
(1.24495939795123e+19 -0 -0)
(1.250462150569e+19 -0 -0)
(1.255437003737e+19 -0 -0)
(1.26074527673382e+19 -0 -0)
(1.26548954698841e+19 -0 -0)
(1.27067012210866e+19 -0 -0)
(1.27518924729969e+19 -0 -0)
(1.28023503405645e+19 -0 -0)
(1.28452218370994e+19 -0 -0)
(1.28939222736613e+19 -0 -0)
(1.29343801330958e+19 -0 -0)
(1.29808009936637e+19 -0 -0)
(1.30185715473724e+19 -0 -0)
(1.30625561582732e+19 -0 -0)
(1.30975279602835e+19 -0 -0)
(1.31390286910939e+19 -0 -0)
(1.3171127446271e+19 -0 -0)
(1.32109323825447e+19 -0 -0)
(1.32406781400503e+19 -0 -0)
(1.327903248332e+19 -0 -0)
(1.33068767352739e+19 -0 -0)
(1.33437095508124e+19 -0 -0)
(1.33698447715426e+19 -0 -0)
(1.34049835087784e+19 -0 -0)
(1.34295103629146e+19 -0 -0)
(1.34633481745043e+19 -0 -0)
(1.34860585283867e+19 -0 -0)
(1.35189898798754e+19 -0 -0)
(1.35400125462839e+19 -0 -0)
(1.35720473898222e+19 -0 -0)
(1.35916378297133e+19 -0 -0)
(1.36229264434665e+19 -0 -0)
(1.36411092732913e+19 -0 -0)
(1.36717743725974e+19 -0 -0)
(1.36890862053657e+19 -0 -0)
(1.3718835914136e+19 -0 -0)
(1.37356010339497e+19 -0 -0)
(1.37646119364145e+19 -0 -0)
(1.37806891413098e+19 -0 -0)
(1.38091992740814e+19 -0 -0)
(1.38248619784409e+19 -0 -0)
(1.38525017917924e+19 -0 -0)
(1.38677804401738e+19 -0 -0)
(1.38948556473503e+19 -0 -0)
(1.39094433683583e+19 -0 -0)
(1.39358979140783e+19 -0 -0)
(1.39496294626002e+19 -0 -0)
(1.39755110692268e+19 -0 -0)
(1.3988170939472e+19 -0 -0)
(1.40136295897759e+19 -0 -0)
(1.40252608816301e+19 -0 -0)
(1.40503706935445e+19 -0 -0)
(1.40609197892907e+19 -0 -0)
(1.40856305952636e+19 -0 -0)
(1.40954422966362e+19 -0 -0)
(1.41196268772917e+19 -0 -0)
(1.412888438153e+19 -0 -0)
(1.41524431231125e+19 -0 -0)
(1.41610711765833e+19 -0 -0)
(1.4184191459853e+19 -0 -0)
(1.41920664960936e+19 -0 -0)
(1.42152786704152e+19 -0 -0)
(1.42224734720934e+19 -0 -0)
(1.42459167767117e+19 -0 -0)
(1.42523892068434e+19 -0 -0)
(1.42758740522024e+19 -0 -0)
(1.42814403514753e+19 -0 -0)
(1.43044099812633e+19 -0 -0)
(1.43088169085578e+19 -0 -0)
(1.43308664989458e+19 -0 -0)
(1.43339483680955e+19 -0 -0)
(1.43547918074082e+19 -0 -0)
(1.43467188025569e+19 -0 -0)
)
;

boundaryField
{
    electrode
    {
        type            calculated;
        value           uniform (193962500571.145 -0 -0);
    }
    ground
    {
        type            calculated;
        value           uniform (1.43656018628559e+19 -0 -0);
    }
    otherfaces
    {
        type            empty;
    }
}


// ************************************************************************* //
