/*--------------------------------*- C++ -*----------------------------------*\
| =========                 |                                                 |
| \\      /  F ield         | foam-extend: Open Source CFD                    |
|  \\    /   O peration     | Version:     4.0                                |
|   \\  /    A nd           | Web:         http://www.foam-extend.org         |
|    \\/     M anipulation  |                                                 |
\*---------------------------------------------------------------------------*/
FoamFile
{
    version     2.0;
    format      ascii;
    class       volScalarField;
    location    "2.7e-06";
    object      N_electronMean;
}
// * * * * * * * * * * * * * * * * * * * * * * * * * * * * * * * * * * * * * //

dimensions      [0 0 0 1 0 0 0];

internalField   nonuniform List<scalar> 
300
(
6.04406288904566e+16
6.04393094718987e+16
6.0435317044751e+16
6.04280467347796e+16
6.04175111694731e+16
6.04036508841919e+16
6.03864238895963e+16
6.03658020073397e+16
6.03417608496397e+16
6.03142816293322e+16
6.02833503621753e+16
6.02489574518821e+16
6.02110973226354e+16
6.0169768075989e+16
6.01249712516169e+16
6.00767115890818e+16
6.00249968288195e+16
5.99698375434629e+16
5.99112469750155e+16
5.98492408823474e+16
5.97838374088389e+16
5.97150569586951e+16
5.96429220789218e+16
5.95674573388156e+16
5.94886892474799e+16
5.94066461938212e+16
5.93213583214638e+16
5.92328574051253e+16
5.91411767541892e+16
5.9046351076036e+16
5.89484163958654e+16
5.88474100520157e+16
5.87433705753392e+16
5.86363374814269e+16
5.85263511286829e+16
5.84134526103202e+16
5.82976836491024e+16
5.8179086503738e+16
5.80577038647064e+16
5.79335787485715e+16
5.78067544164812e+16
5.76772742900162e+16
5.75451818450519e+16
5.7410520516329e+16
5.72733336183792e+16
5.71336642691775e+16
5.69915553207857e+16
5.6847049300663e+16
5.67001883728613e+16
5.65510143187328e+16
5.63995685635541e+16
5.62458922048206e+16
5.6090025966939e+16
5.59320100938462e+16
5.57718841837188e+16
5.56096870177092e+16
5.54454564158277e+16
5.52792291279434e+16
5.5111040754616e+16
5.49409256705427e+16
5.47689169578317e+16
5.45950463453169e+16
5.44193441386655e+16
5.42418392194497e+16
5.40625591270051e+16
5.38815299892105e+16
5.36987763116503e+16
5.35143208559635e+16
5.33281845859158e+16
5.31403866105396e+16
5.29509441250252e+16
5.27598723872216e+16
5.25671847629177e+16
5.23728926950083e+16
5.21770055848783e+16
5.19795307981615e+16
5.17804737158751e+16
5.15798376717746e+16
5.1377623782075e+16
5.11738308371642e+16
5.09684552815268e+16
5.07614910325082e+16
5.05529293035904e+16
5.03427585354778e+16
5.01309643569038e+16
4.99175295966073e+16
4.97024341891455e+16
4.94856549931305e+16
4.92671656966664e+16
4.90469367862277e+16
4.88249354565189e+16
4.86011256179181e+16
4.83754679294438e+16
4.81479195667013e+16
4.79184339996447e+16
4.76869609082907e+16
4.74534460945492e+16
4.72178313935304e+16
4.6980054583566e+16
4.67400493223259e+16
4.64977450787193e+16
4.62530670087201e+16
4.60059359112354e+16
4.57562682336853e+16
4.55039759250742e+16
4.52489663207669e+16
4.499114208331e+16
4.47304011100165e+16
4.44666364833185e+16
4.41997363520695e+16
4.39295837874533e+16
4.36560566986844e+16
4.33790277771645e+16
4.3098364484867e+16
4.28139289996708e+16
4.25255781610946e+16
4.22331635397869e+16
4.19365314334288e+16
4.16355227027793e+16
4.13299726324036e+16
4.10197109392674e+16
4.0704561831584e+16
4.03843440487651e+16
4.00588709297391e+16
3.97279503323389e+16
3.93913844495969e+16
3.90489697937297e+16
3.87004972522999e+16
3.83457520551321e+16
3.79845137734281e+16
3.76165563954637e+16
3.72416484072701e+16
3.68595528552695e+16
3.6470027412213e+16
3.6072824613133e+16
3.56676921558392e+16
3.5254372946342e+16
3.48326051016679e+16
3.44021221928434e+16
3.39626535073229e+16
3.35139241515665e+16
3.30556551832452e+16
3.25875638630366e+16
3.21093639725867e+16
3.16207662633502e+16
3.11214788676611e+16
3.06112075119041e+16
3.0089655712439e+16
2.95565249903264e+16
2.90115152863022e+16
2.84543255732257e+16
2.78846542415023e+16
2.73021995526966e+16
2.67066602533552e+16
2.60977360168223e+16
2.54751280445181e+16
2.48385399308919e+16
2.41876785914965e+16
2.35222551500397e+16
2.28419859933344e+16
2.21465941424493e+16
2.14358103041692e+16
2.07093728976894e+16
1.99670252755111e+16
1.92085016113515e+16
1.84334986906329e+16
1.76416557496942e+16
1.68325627757244e+16
1.60057840611722e+16
1.51608929054085e+16
1.42975241567333e+16
1.34154719550616e+16
1.25149371753163e+16
1.15968766133115e+16
1.06633229945684e+16
9.71774049434687e+15
8.7654296591222e+15
7.81384517724144e+15
6.87270663775856e+15
5.95384902099826e+15
5.07073201842489e+15
4.23760715719409e+15
3.46835240210417e+15
2.77511309427081e+15
2.16700400571898e+15
1.64903317667771e+15
1.22154664803971e+15
880322694650928
617257356307321
421550571866683
281080357483037
183749848213605
118539007896022
76232385267482.7
48919619380718.8
31302526075268.4
20035602282895
12949671340107.3
8680064305046.85
6183440492222.03
4758637179788.48
3955409693114.39
3489463687024.19
3201152713558.02
3009238756026.48
2872411698244.52
2768731674160.26
2685764336591.71
2616064944173.18
2554950354374.38
2499419124284.72
2447463412144.47
2397733174143.53
2349308393012.54
2301561531491.05
2254066408050.33
2206546543504.48
2158834825886.61
2110843452654.3
2062544947595.84
2013956443739.34
1965103998035.47
1916039169423.34
1866852336383.37
1817650168679.88
1768547558879.47
1719661869934.52
1671107256101.87
1622992893253.44
1575420683373.62
1528483828635.24
1482267673444.42
1436847481578.87
1392289170329.7
1348650063785.9
1305978211359.54
1264312564153.06
1223684858695.76
1184118361330.75
1145629263754.63
1108228025943.06
1071918694675.33
1036701199687.68
1002570942227.38
969519139985.784
937533412383.36
906596016663.372
876686180395.156
847781273232.625
819857805967.427
792892614150.332
766861713866.654
741740200416.621
717502025797.958
694120993506.539
671571221414.699
649827631539.193
628863411526.222
608650248866.924
589163153232.997
570378764056.141
552272332994.868
534819679844.188
517996643823.47
501779762579.005
486146787602.4
471075969583.346
456545597601.765
442533802818.559
429019250245.405
415981043888.043
403400592800.049
391261423931.101
379548882293.113
368249163065.847
357349329567.581
346837106761.461
336700617412.114
326928920795.882
317512032836.157
308440633696.519
299704823421.808
291295018692.728
283191495411.635
275369728764.874
267821749312.2
260551178639.236
253562751968.238
246861350206.073
240432811027.402
234256637565.712
228343485690.867
222725058125.016
217398270887.352
212386243122.426
207756429166.046
203612549182.276
200167442942.904
197767697121.926
197036892398.527
)
;

boundaryField
{
    electrode
    {
        type            calculated;
        value           uniform 6.04406288908933e+16;
    }
    ground
    {
        type            calculated;
        value           uniform 197956934895.923;
    }
    otherfaces
    {
        type            empty;
    }
}


// ************************************************************************* //
