/*--------------------------------*- C++ -*----------------------------------*\
| =========                 |                                                 |
| \\      /  F ield         | foam-extend: Open Source CFD                    |
|  \\    /   O peration     | Version:     4.0                                |
|   \\  /    A nd           | Web:         http://www.foam-extend.org         |
|    \\/     M anipulation  |                                                 |
\*---------------------------------------------------------------------------*/
FoamFile
{
    version     2.0;
    format      ascii;
    class       volScalarField;
    location    "2.7e-06";
    object      Sy_electron;
}
// * * * * * * * * * * * * * * * * * * * * * * * * * * * * * * * * * * * * * //

dimensions      [1 -3 -1 0 0 0 0];

internalField   nonuniform List<scalar> 
300
(
8.70506283320263e-12
8.70651582889557e-12
8.70709893731984e-12
8.70686815668217e-12
8.70658526233216e-12
8.70618019454296e-12
8.70564091913443e-12
8.70497844471695e-12
8.70419171457987e-12
8.70328059337293e-12
8.7022456235424e-12
8.70108718446278e-12
8.69980572614171e-12
8.69840178307938e-12
8.69687595302114e-12
8.69522889950359e-12
8.6934613459148e-12
8.69157408699141e-12
8.68956797960637e-12
8.68744393778496e-12
8.68520293339378e-12
8.68284599379872e-12
8.68037419942705e-12
8.67778868113922e-12
8.67509058849564e-12
8.672281167709e-12
8.66936168128776e-12
8.66633342717736e-12
8.66319775919377e-12
8.65995604663648e-12
8.65660965259605e-12
8.65316000872924e-12
8.64960857758449e-12
8.64595681323579e-12
8.64220617896106e-12
8.63835814233281e-12
8.63441416237008e-12
8.63037570373823e-12
8.62624422080812e-12
8.62202114463389e-12
8.61770788315244e-12
8.6133058181217e-12
8.60881629301811e-12
8.60424060843374e-12
8.5995800151423e-12
8.59483570678844e-12
8.5900088087913e-12
8.58510037564116e-12
8.58011136604606e-12
8.5750426618852e-12
8.56989502925001e-12
8.56466917264077e-12
8.55936565140546e-12
8.55398494138065e-12
8.548527368918e-12
8.54299313185549e-12
8.53738225308638e-12
8.53169459218492e-12
8.525929834995e-12
8.52008747987372e-12
8.51416683697476e-12
8.5081670066967e-12
8.50208686290014e-12
8.495925025946e-12
8.48967991204076e-12
8.48334972006572e-12
8.4769323438904e-12
8.47042539876195e-12
8.46382620841831e-12
8.45713179201432e-12
8.45033884753522e-12
8.44344373151764e-12
8.4364424646867e-12
8.42933072311685e-12
8.42210377476988e-12
8.41475652247975e-12
8.40728347297567e-12
8.3996786952339e-12
8.3919358598617e-12
8.38404810799305e-12
8.37600816639267e-12
8.36781038749236e-12
8.35944721391565e-12
8.35090357236483e-12
8.34216927724313e-12
8.33323846583782e-12
8.32410077559164e-12
8.31474533710543e-12
8.3051606134395e-12
8.29533447144349e-12
8.28525413723723e-12
8.27490615206662e-12
8.26427657684458e-12
8.25335074017801e-12
8.24211330333576e-12
8.2305482460421e-12
8.21863884949525e-12
8.20636767996055e-12
8.19371655731036e-12
8.18066657199347e-12
8.1671980629562e-12
8.15329058620947e-12
8.1389228591288e-12
8.12407288684531e-12
8.10871780044172e-12
8.09283390124092e-12
8.07639668395914e-12
8.05938073729239e-12
8.04175982669427e-12
8.02350683093336e-12
8.00459372733113e-12
7.98499159054814e-12
7.9646705743726e-12
7.9435999170197e-12
7.92174792280638e-12
7.89908193024515e-12
7.875568322869e-12
7.85117258321796e-12
7.82585918762476e-12
7.79959161909784e-12
7.77233234587091e-12
7.74404289345532e-12
7.71468372271612e-12
7.68421433484361e-12
7.65259320941693e-12
7.61977777602588e-12
7.58572438925414e-12
7.55038841731333e-12
7.51372413193386e-12
7.47568474906458e-12
7.43622238796339e-12
7.39528809374942e-12
7.35283180715806e-12
7.30880232420525e-12
7.26314729492862e-12
7.21581329153638e-12
7.16674569521682e-12
7.11588865562658e-12
7.06318511079129e-12
7.00857678500091e-12
6.95200408636867e-12
6.89340609986889e-12
6.83272052446617e-12
6.76988364278531e-12
6.70483027291103e-12
6.63749374879171e-12
6.56780574758581e-12
6.49569624799434e-12
6.42109342060152e-12
6.34392351717356e-12
6.26411084758377e-12
6.18157752670324e-12
6.09624332677486e-12
6.00802562963585e-12
5.91683915057637e-12
5.82259573137837e-12
5.72520424430792e-12
5.62457053916988e-12
5.52059698614234e-12
5.41318815029462e-12
5.30225425675549e-12
5.18769866413081e-12
5.06969900859916e-12
4.94870146190518e-12
4.82446084291137e-12
4.69598701442141e-12
4.56259912709811e-12
4.42424732471577e-12
4.28086705306446e-12
4.13183968571742e-12
3.97613171238604e-12
3.81221680517977e-12
3.63948319863361e-12
3.45845642918691e-12
3.26865989521172e-12
3.07085242598586e-12
2.86700987992484e-12
2.65925299838273e-12
2.45280602590127e-12
2.25303946265719e-12
2.06606771928376e-12
1.90268454457325e-12
1.77413037822109e-12
1.67722948397566e-12
1.59208708598098e-12
1.59124375375552e-12
1.72840259554645e-12
2.12909222615875e-12
3.04976908150719e-12
5.68231489263521e-12
2.10990135776343e-11
1.60894007044404e-10
5.47810860384743e-10
1.52651941780753e-09
3.28585097711527e-09
5.0623977850506e-09
6.44253025560633e-09
6.37818020861172e-09
5.50644355691129e-09
4.43213381186458e-09
3.49437998151897e-09
2.82416198378543e-09
2.37043892946157e-09
2.07711124090176e-09
1.89764856210449e-09
1.78246279941955e-09
1.71945625511039e-09
1.67728977867858e-09
1.65677841781734e-09
1.64954882787799e-09
1.6501217994143e-09
1.65068717188879e-09
1.65211005025423e-09
1.65374004216685e-09
1.65441231622301e-09
1.65336025648291e-09
1.65009399594231e-09
1.64432518400762e-09
1.63591307275521e-09
1.62482318715842e-09
1.61110452565039e-09
1.59481796245991e-09
1.57606672137644e-09
1.55433289581595e-09
1.53003362195824e-09
1.5039729873581e-09
1.47638263996762e-09
1.4474925196344e-09
1.41752582301077e-09
1.38669601538936e-09
1.35520467181035e-09
1.32324002963307e-09
1.29097603443433e-09
1.25857183822062e-09
1.2261716452401e-09
1.19390483681758e-09
1.16188632881672e-09
1.13021709195241e-09
1.09898481684296e-09
1.06826466809968e-09
1.03812011337749e-09
1.00860380642025e-09
9.79758707004552e-10
9.51619518452593e-10
9.24213467832549e-10
8.97560306412253e-10
8.71672647244776e-10
8.46556552537111e-10
8.2221112590724e-10
7.98624082397666e-10
7.75783141201295e-10
7.53680975795084e-10
7.32307086661048e-10
7.11648830347648e-10
6.91691291409001e-10
6.72418983729518e-10
6.53814576468665e-10
6.35855929324562e-10
6.18520623107811e-10
6.01789647775523e-10
5.85643912778309e-10
5.70062629813032e-10
5.55025093773667e-10
5.40510751396171e-10
5.26499105065192e-10
5.12970054376567e-10
4.99897924459915e-10
4.87255339785225e-10
4.75022150211041e-10
4.63182021967534e-10
4.51719934450851e-10
4.40621743408299e-10
4.29874058111374e-10
4.19464242041637e-10
4.09380429124722e-10
3.99611550199726e-10
3.90147358239301e-10
3.8097845769932e-10
3.72096335447802e-10
3.6349335594472e-10
3.55162670194201e-10
3.4691061717899e-10
3.38523611898104e-10
3.30346286016861e-10
3.22352327679094e-10
3.14550210111941e-10
3.06951241783851e-10
2.99567657010984e-10
2.92411643223982e-10
2.84298024445902e-10
2.76333643012394e-10
2.68560985290135e-10
2.6101698471272e-10
2.51797603135434e-10
2.42728757180542e-10
2.32759405064774e-10
2.2131367201869e-10
2.07519441126968e-10
1.90312853105254e-10
1.66299910905419e-10
)
;

boundaryField
{
    electrode
    {
        type            zeroGradient;
    }
    ground
    {
        type            zeroGradient;
    }
    otherfaces
    {
        type            empty;
    }
}


// ************************************************************************* //
