/*--------------------------------*- C++ -*----------------------------------*\
| =========                 |                                                 |
| \\      /  F ield         | foam-extend: Open Source CFD                    |
|  \\    /   O peration     | Version:     4.0                                |
|   \\  /    A nd           | Web:         http://www.foam-extend.org         |
|    \\/     M anipulation  |                                                 |
\*---------------------------------------------------------------------------*/
FoamFile
{
    version     2.0;
    format      ascii;
    class       volScalarField;
    location    "2.7e-06";
    object      Te;
}
// * * * * * * * * * * * * * * * * * * * * * * * * * * * * * * * * * * * * * //

dimensions      [0 0 0 1 0 0 0];

internalField   nonuniform List<scalar> 
300
(
32666.7667815994
32666.9818393438
32667.1393937911
32667.2527896479
32667.4154865034
32667.6188504966
32667.8614402701
32668.1445666254
32668.4680592739
32668.8318595135
32669.2359869052
32669.6804365712
32670.1652081674
32670.6903075001
32671.2557440419
32671.8615313884
32672.5076873673
32673.1942339964
32673.9211975017
32674.6886083333
32675.4965011833
32676.3449150054
32677.2338930362
32678.1634828179
32679.1337362243
32680.14470949
32681.1964632395
32682.2890625207
32683.4225768412
32684.5970802055
32685.8126511573
32687.0693728223
32688.3673329569
32689.7066239968
32691.0873431107
32692.5095922592
32693.9734782543
32695.4791128255
32697.026612688
32698.6160996153
32700.2477005177
32701.9215475246
32703.6377780718
32705.396534993
32707.1979666206
32709.042226889
32710.9294754426
32712.8598777522
32714.8336052419
32716.8508354149
32718.9117519927
32721.0165450619
32723.1654112257
32725.3585537667
32727.5961828191
32729.8785155466
32732.2057763355
32734.5781969944
32736.9960169649
32739.4594835488
32741.9688521385
32744.5243864649
32747.1263588623
32749.7750505372
32752.4707518558
32755.2137626485
32758.0043925229
32760.8429611902
32763.7297988093
32766.6652463363
32769.6496558846
32772.6833910886
32775.7668274587
32778.9003527272
32782.0843671564
32785.3192837868
32788.6055286054
32791.9435405941
32795.3337717182
32798.7766874468
32802.2727532077
32805.8229096571
32809.4274382252
32813.0860970494
32816.7996948319
32820.5691332924
32824.3950050211
32828.2779301756
32832.2185476727
32836.2175189418
32840.2755310993
32844.3932989746
32848.571566551
32852.8111081684
32857.1127296329
32861.4772693778
32865.9055997461
32870.3986284002
32874.9572998889
32879.5825973781
32884.2755445233
32889.037207493
32893.868697146
32898.7711713495
32903.745837446
32908.7939548853
32913.9168380337
32919.1158591556
32924.3924515827
32929.7481131155
32935.1844096532
32940.7029790564
32946.3055352903
32951.9938728727
32957.7698716356
32963.6355018315
32969.5928296394
32975.6440230865
32981.7913584108
32988.0372269493
32994.3841425826
33000.8347497722
33007.3918322687
33014.058322579
33020.8373122514
33027.7320630593
33034.7460191935
33041.8828205863
33049.1463174985
33056.5405864938
33064.0699479867
33071.7389855458
33079.5525671789
33087.5158688713
33095.6344006364
33103.914035419
33112.3610412715
33120.9821172414
33129.7844334855
33138.7756762485
33147.9640984322
33157.3585765918
33166.9686753832
33176.8047206411
33186.8778824864
33197.2002701673
33207.7850406208
33218.6465231329
33229.8003629745
33241.2636874622
33253.0552985701
33265.1958971128
33277.7083445718
33290.6179699744
33303.9529306097
33317.7446392436
33332.0282825603
33346.843449193
33362.234824586
33378.2542336229
33394.9626520255
33412.4293989164
33430.7937313035
33450.2782266623
33470.9972249321
33492.9312971111
33516.1447739198
33540.8694587921
33567.3754320842
33595.8436145514
33626.3803746346
33658.9610736462
33693.7758652867
33731.3253988081
33771.796386374
33815.6959443616
33863.9175486441
33917.4275123322
33978.5438103915
34050.1526398668
34136.2068627023
34244.2883509453
34384.3017350362
34569.6789207622
34821.6792912597
35170.0266151135
35657.8940343196
36343.0507175146
37307.257885247
38691.164858714
40688.8156117016
43588.8463673231
47867.1141514124
54511.7882831476
63685.3538835862
75615.765342603
93938.9088498687
117739.548669608
149464.220996725
190219.332000672
239411.020794876
294212.910462666
350744.644458593
405584.178060421
456496.643104022
502357.09557921
542971.60513916
578668.856751349
609929.67360205
637396.698931507
661660.38976887
683208.972247373
702462.510010325
719812.959601441
735573.779809058
750005.304276644
763321.827795081
775700.653601507
787288.918706072
798208.387910464
808564.414721758
818435.432927423
827885.312816538
836977.655307278
845761.804517043
854278.009049203
862558.941212088
870630.82512281
878514.332161287
886225.392330407
893775.78488117
901173.644269341
908423.874491712
915528.507405011
922487.011986903
929296.559455617
935952.262353716
942447.379711879
948773.507778474
954920.746719578
960877.85422427
966632.354998963
972170.649831344
977478.287979741
982540.139929291
987340.335050217
991862.364220317
996089.401855986
1000004.86655356
1003588.61212431
1006821.31108515
1009686.63748629
1012166.10624984
1014241.22564519
1015892.9029665
1017102.44823621
1017845.1657068
1018106.50251054
1017875.2217361
1017124.63422028
1015835.55674299
1013987.770022
1011561.34137408
1008536.16505563
1004891.77658121
1000609.26597177
995667.054389482
990041.596072357
983712.412431057
976657.97399073
968855.353812721
960280.715907221
950909.279088025
940715.234655945
929671.613819092
917750.138407959
904921.046725476
891152.895591122
876412.347929214
860663.929915452
843870.051212413
825991.173219861
806992.174523499
786821.561434617
765424.328088852
742749.899816676
718729.248329706
693285.433216478
666348.349706732
637826.591161331
607607.298363299
575572.635798496
541578.86990203
505439.203235625
466932.293989011
425773.787248516
381565.30368039
333759.924355109
281552.77521255
223891.445858801
)
;

boundaryField
{
    electrode
    {
        type            electronTemperature;
        seec            0.05;
        Tse             1000;
        Edepend         1;
        TFN             1000;
        field_emission  0;
        field_enhancement_factor 55;
        work_function   5;
        value           uniform 32666.7667815994;
    }
    ground
    {
        type            electronTemperature;
        seec            0.05;
        Tse             1000;
        Edepend         1;
        TFN             1000;
        field_emission  0;
        field_enhancement_factor 55;
        work_function   5;
        value           uniform 191146.705794415;
    }
    otherfaces
    {
        type            empty;
    }
}


// ************************************************************************* //
