/*--------------------------------*- C++ -*----------------------------------*\
| =========                 |                                                 |
| \\      /  F ield         | foam-extend: Open Source CFD                    |
|  \\    /   O peration     | Version:     4.0                                |
|   \\  /    A nd           | Web:         http://www.foam-extend.org         |
|    \\/     M anipulation  |                                                 |
\*---------------------------------------------------------------------------*/
FoamFile
{
    version     2.0;
    format      ascii;
    class       volScalarField;
    location    "3.1e-06";
    object      Ar;
}
// * * * * * * * * * * * * * * * * * * * * * * * * * * * * * * * * * * * * * //

dimensions      [0 0 0 1 0 0 0];

internalField   nonuniform List<scalar> 
300
(
3.21880355030235e+22
3.21880354680129e+22
3.2188035491816e+22
3.21880355051051e+22
3.21880355244962e+22
3.21880355513453e+22
3.21880355842225e+22
3.21880356234204e+22
3.21880356689239e+22
3.21880357206735e+22
3.21880357786506e+22
3.21880358428307e+22
3.21880359131891e+22
3.21880359897023e+22
3.21880360723469e+22
3.21880361610994e+22
3.21880362559388e+22
3.21880363568397e+22
3.21880364637758e+22
3.21880365767221e+22
3.21880366956528e+22
3.21880368205415e+22
3.21880369513617e+22
3.21880370880861e+22
3.21880372307029e+22
3.21880373791714e+22
3.21880375334645e+22
3.2188037693556e+22
3.21880378594079e+22
3.21880380309904e+22
3.21880382082922e+22
3.21880383912765e+22
3.21880385798996e+22
3.21880387741305e+22
3.21880389739384e+22
3.21880391792927e+22
3.21880393901676e+22
3.21880396065313e+22
3.21880398283515e+22
3.21880400555998e+22
3.21880402882483e+22
3.21880405262679e+22
3.21880407696314e+22
3.21880410183123e+22
3.21880412722854e+22
3.21880415315263e+22
3.2188041796014e+22
3.2188042065728e+22
3.21880423406581e+22
3.2188042620789e+22
3.21880429061181e+22
3.21880431966187e+22
3.21880434922838e+22
3.21880437930849e+22
3.21880440990046e+22
3.21880444100193e+22
3.21880447261202e+22
3.2188045047301e+22
3.21880453735577e+22
3.21880457048909e+22
3.21880460412994e+22
3.21880463827866e+22
3.21880467293639e+22
3.21880470810601e+22
3.21880474378844e+22
3.21880477998273e+22
3.21880481669057e+22
3.21880485391398e+22
3.2188048916553e+22
3.2188049299172e+22
3.21880496870289e+22
3.21880500801657e+22
3.21880504786218e+22
3.21880508824312e+22
3.21880512916526e+22
3.21880517063334e+22
3.21880521265196e+22
3.21880525522711e+22
3.21880529836278e+22
3.21880534206839e+22
3.21880538634721e+22
3.21880543120617e+22
3.2188054766531e+22
3.21880552269571e+22
3.2188055693438e+22
3.21880561660534e+22
3.21880566448828e+22
3.21880571300214e+22
3.21880576215804e+22
3.21880581196556e+22
3.21880586243603e+22
3.21880591358512e+22
3.21880596541883e+22
3.21880601794893e+22
3.21880607118773e+22
3.21880612514792e+22
3.2188061798426e+22
3.21880623528524e+22
3.21880629149072e+22
3.2188063484732e+22
3.2188064062465e+22
3.2188064648253e+22
3.21880652422789e+22
3.21880658446673e+22
3.21880664555843e+22
3.21880670751987e+22
3.21880677036574e+22
3.21880683411442e+22
3.21880689878149e+22
3.21880696438322e+22
3.21880703093677e+22
3.21880709845949e+22
3.21880716696938e+22
3.21880723648398e+22
3.21880730702089e+22
3.21880737859928e+22
3.21880745123847e+22
3.21880752495334e+22
3.21880759976114e+22
3.21880767567988e+22
3.21880775272932e+22
3.21880783092506e+22
3.21880791028673e+22
3.21880799082976e+22
3.21880807256918e+22
3.21880815552108e+22
3.21880823970375e+22
3.21880832513053e+22
3.2188084118171e+22
3.21880849977779e+22
3.2188085890277e+22
3.21880867958016e+22
3.21880877144798e+22
3.21880886464534e+22
3.21880895918673e+22
3.21880905508025e+22
3.21880915233466e+22
3.21880925096066e+22
3.21880935096735e+22
3.21880945235995e+22
3.21880955514507e+22
3.21880965932821e+22
3.2188097649151e+22
3.21880987191011e+22
3.21880998031543e+22
3.2188100901272e+22
3.21881020134339e+22
3.21881031396029e+22
3.21881042797365e+22
3.21881054337896e+22
3.2188106601632e+22
3.21881077831451e+22
3.21881089782191e+22
3.21881101866513e+22
3.21881114082186e+22
3.21881126426859e+22
3.21881138897862e+22
3.21881151490898e+22
3.21881164201541e+22
3.21881177030877e+22
3.21881189957102e+22
3.2188120299873e+22
3.21881216047947e+22
3.21881229119801e+22
3.21881242333652e+22
3.2188125563333e+22
3.21881268990777e+22
3.21881282295618e+22
3.2188129565496e+22
3.21881308900849e+22
3.21881322125637e+22
3.21881335646221e+22
3.21881348681623e+22
3.21881361513356e+22
3.21881374706593e+22
3.21881387162965e+22
3.21881399114277e+22
3.21881411317955e+22
3.21881422515388e+22
3.21881433146903e+22
3.21881443483514e+22
3.2188145279583e+22
3.21881461210671e+22
3.21881469333887e+22
3.21881476165042e+22
3.21881482141964e+22
3.21881487688292e+22
3.21881492479101e+22
3.21881496286314e+22
3.21881499498299e+22
3.21881502475384e+22
3.21881505012084e+22
3.21881506896071e+22
3.21881508434604e+22
3.21881509044573e+22
3.21881509291369e+22
3.21881508942495e+22
3.21881508755645e+22
3.21881508659649e+22
3.21881508721858e+22
3.21881509019334e+22
3.21881509410891e+22
3.21881509959729e+22
3.21881510609767e+22
3.21881511208662e+22
3.21881511757907e+22
3.21881512252166e+22
3.21881512701077e+22
3.21881513088765e+22
3.21881513437811e+22
3.21881513734372e+22
3.21881514118784e+22
3.21881514538897e+22
3.21881514936417e+22
3.21881515290263e+22
3.21881515628736e+22
3.21881515927976e+22
3.2188151621695e+22
3.2188151646976e+22
3.21881516716514e+22
3.2188151692961e+22
3.21881517139753e+22
3.21881517318152e+22
3.21881517497745e+22
3.2188151771447e+22
3.21881517999726e+22
3.2188151825413e+22
3.21881518514055e+22
3.21881518744803e+22
3.21881518982527e+22
3.21881519193048e+22
3.21881519411499e+22
3.21881519603676e+22
3.21881519804369e+22
3.21881519979635e+22
3.21881520163858e+22
3.21881520322803e+22
3.21881520491904e+22
3.21881520635566e+22
3.21881520790536e+22
3.21881520920015e+22
3.21881521061891e+22
3.21881521206797e+22
3.21881521426935e+22
3.21881521619294e+22
3.21881521826877e+22
3.21881522007212e+22
3.21881522203042e+22
3.218815223718e+22
3.21881522556319e+22
3.21881522713622e+22
3.2188152288768e+22
3.21881523033208e+22
3.21881523197604e+22
3.21881523332266e+22
3.21881523487473e+22
3.21881523612558e+22
3.21881523759478e+22
3.21881523876135e+22
3.21881524015041e+22
3.21881524123698e+22
3.21881524254936e+22
3.21881524355404e+22
3.21881524478991e+22
3.21881524571101e+22
3.21881524687032e+22
3.21881524770648e+22
3.21881524879312e+22
3.21881525008725e+22
3.21881525168877e+22
3.21881525295338e+22
3.21881525448607e+22
3.21881525567748e+22
3.21881525714843e+22
3.21881525827562e+22
3.21881525969295e+22
3.21881526076226e+22
3.21881526213015e+22
3.21881526313963e+22
3.2188152644572e+22
3.21881526540873e+22
3.21881526667833e+22
3.21881526758352e+22
3.21881526881726e+22
3.21881526966988e+22
3.21881527086001e+22
3.21881527165859e+22
3.21881527280634e+22
3.21881527355203e+22
3.21881527467744e+22
3.21881527539513e+22
3.21881527648997e+22
3.21881527715827e+22
3.21881527824123e+22
3.21881527889167e+22
3.21881527995573e+22
3.21881528059719e+22
3.21881528167877e+22
3.21881528233794e+22
3.21881528369642e+22
)
;

boundaryField
{
    electrode
    {
        type            zeroGradient;
    }
    ground
    {
        type            zeroGradient;
    }
    otherfaces
    {
        type            empty;
    }
}


// ************************************************************************* //
