/*--------------------------------*- C++ -*----------------------------------*\
| =========                 |                                                 |
| \\      /  F ield         | foam-extend: Open Source CFD                    |
|  \\    /   O peration     | Version:     4.0                                |
|   \\  /    A nd           | Web:         http://www.foam-extend.org         |
|    \\/     M anipulation  |                                                 |
\*---------------------------------------------------------------------------*/
FoamFile
{
    version     2.0;
    format      ascii;
    class       volScalarField;
    location    "3.1e-06";
    object      Arp1;
}
// * * * * * * * * * * * * * * * * * * * * * * * * * * * * * * * * * * * * * //

dimensions      [0 0 0 1 0 0 0];

internalField   nonuniform List<scalar> 
300
(
5.89467726264819e+16
5.89817267450537e+16
5.89604644408676e+16
5.89533777366279e+16
5.89436500817441e+16
5.89298813786086e+16
5.89134592483079e+16
5.88940554294988e+16
5.88716556449623e+16
5.88462932803359e+16
5.88179662615135e+16
5.87866796080695e+16
5.87524399572298e+16
5.87152536933168e+16
5.8675127837757e+16
5.86320699448999e+16
5.85860880393884e+16
5.85371906182185e+16
5.84853866331918e+16
5.84306854712652e+16
5.83730969349547e+16
5.83126312221634e+16
5.8249298904155e+16
5.81831109024918e+16
5.81140784652884e+16
5.8042213141844e+16
5.79675267560611e+16
5.78900313794701e+16
5.78097393025763e+16
5.77266630048584e+16
5.76408151241693e+16
5.75522084255623e+16
5.74608557674e+16
5.73667700678624e+16
5.72699642703828e+16
5.7170451306944e+16
5.70682440614799e+16
5.69633553320786e+16
5.68557977916029e+16
5.67455839482076e+16
5.66327261045262e+16
5.65172363159844e+16
5.63991263485475e+16
5.62784076351573e+16
5.61550912320591e+16
5.60291877737267e+16
5.59007074279216e+16
5.57696598492798e+16
5.56360541324296e+16
5.54998987655033e+16
5.53612015820598e+16
5.5219969712779e+16
5.50762095374115e+16
5.49299266357883e+16
5.47811257387445e+16
5.46298106789714e+16
5.44759843417378e+16
5.43196486156151e+16
5.41608043429424e+16
5.39994512705336e+16
5.38355880013771e+16
5.36692119453214e+16
5.35003192706217e+16
5.3328904856858e+16
5.31549622472502e+16
5.29784836013129e+16
5.27994596504362e+16
5.26178796522283e+16
5.24337313459162e+16
5.22470009103375e+16
5.20576729219928e+16
5.18657303141756e+16
5.1671154338844e+16
5.1473924528527e+16
5.12740186602985e+16
5.10714127231342e+16
5.08660808846549e+16
5.06579954613977e+16
5.04471268918285e+16
5.02334437098477e+16
5.00169125223744e+16
4.9797497989199e+16
4.95751628050582e+16
4.93498676847437e+16
4.91215713515753e+16
4.88902305291509e+16
4.86557999360697e+16
4.84182322836785e+16
4.81774782783442e+16
4.7933486627626e+16
4.76862040490958e+16
4.74355752839515e+16
4.71815431158564e+16
4.69240483922589e+16
4.66630300514225e+16
4.63984251539114e+16
4.61301689190556e+16
4.58581947660821e+16
4.55824343598278e+16
4.53028176632129e+16
4.50192729942835e+16
4.47317270877429e+16
4.44401051637271e+16
4.41443310025397e+16
4.38443270236784e+16
4.35400143718092e+16
4.32313130098007e+16
4.29181418172122e+16
4.2600418694532e+16
4.22780606753545e+16
4.19509840454463e+16
4.16191044663196e+16
4.12823371082191e+16
4.09405967898037e+16
4.05937981227234e+16
4.02418556665322e+16
3.98846840893512e+16
3.95221983354246e+16
3.91543138020624e+16
3.87809465229969e+16
3.84020133601487e+16
3.80174322035094e+16
3.76271221788193e+16
3.72310038650178e+16
3.68289995194158e+16
3.64210333113164e+16
3.60070315676224e+16
3.55869230266291e+16
3.51606391014002e+16
3.47281141574085e+16
3.42892858004879e+16
3.38440951770497e+16
3.3392487291112e+16
3.29344113359638e+16
3.24698210438673e+16
3.19986750573251e+16
3.15209373218675e+16
3.10365775074887e+16
3.05455714616681e+16
3.00479016976821e+16
2.95435579275299e+16
2.90325376483545e+16
2.85148467897365e+16
2.79905004347304e+16
2.74595236356284e+16
2.69219523380638e+16
2.63778344383619e+16
2.58272310087076e+16
2.5270217723716e+16
2.47068865354381e+16
2.41373476525306e+16
2.35617319068841e+16
2.29801936509003e+16
2.2392913653138e+16
2.1800104570269e+16
2.12020169077378e+16
2.05989205123902e+16
1.99911986923458e+16
1.93792600387177e+16
1.87629801984599e+16
1.81445179809237e+16
1.75220067089266e+16
1.69063394267868e+16
1.62962737474633e+16
1.56802614644467e+16
1.50642441498823e+16
1.44511369106483e+16
1.38520205976694e+16
1.32562081046321e+16
1.26803710997666e+16
1.21148537728277e+16
1.15269216180346e+16
1.09928001693571e+16
1.04818883321967e+16
9.93427900589592e+15
9.45526259248575e+15
9.01639776253563e+15
8.53578629101058e+15
8.13213967588877e+15
7.75406264041672e+15
7.36708671064554e+15
7.0371406420612e+15
6.74566048907264e+15
6.42758140118183e+15
6.18031905857563e+15
5.95979923622607e+15
5.72527790097342e+15
5.51250183081982e+15
5.34896104512527e+15
5.20150134793583e+15
5.04061710171248e+15
4.89317216675616e+15
4.78611983294069e+15
4.69018712654766e+15
4.64555792566053e+15
4.59673835573186e+15
4.59821441610622e+15
4.61013839386472e+15
4.63459764106317e+15
4.65358529590359e+15
4.6522602745558e+15
4.63911685138167e+15
4.60533043423223e+15
4.55646441709112e+15
4.50865538712957e+15
4.46280199468182e+15
4.42077272182048e+15
4.38190398423102e+15
4.34806680660041e+15
4.31739702967618e+15
4.29199212889776e+15
4.25795678831177e+15
4.22032738012348e+15
4.18496693163486e+15
4.15402115907793e+15
4.12472267033503e+15
4.09950595982912e+15
4.07545743859954e+15
4.05518887781556e+15
4.03569028996616e+15
4.01970354522056e+15
4.00416240974153e+15
3.99193409764354e+15
3.9798274440991e+15
3.96421766588337e+15
3.9418111764403e+15
3.92251492178094e+15
3.90268348421029e+15
3.8857642631147e+15
3.86811511337061e+15
3.85315076523564e+15
3.83733964137526e+15
3.82407994082536e+15
3.80988807268877e+15
3.79815099315075e+15
3.78540700196148e+15
3.77508988409665e+15
3.76363282476248e+15
3.75460299134955e+15
3.74431295125277e+15
3.73644031449817e+15
3.72720316919196e+15
3.71752328292966e+15
3.70019478061278e+15
3.68551341897832e+15
3.66916481236922e+15
3.6554119329262e+15
3.63997487630845e+15
3.6271101892764e+15
3.61254519423161e+15
3.60057298020314e+15
3.5868028978536e+15
3.57576866047974e+15
3.56272715591615e+15
3.55254715787703e+15
3.54020314507904e+15
3.53076303499946e+15
3.51904648119984e+15
3.51025409484341e+15
3.49914211496942e+15
3.49095408726312e+15
3.48041921781036e+15
3.47286898588681e+15
3.46292207230968e+15
3.45603959591601e+15
3.44669473643943e+15
3.44050760077017e+15
3.43174398791481e+15
3.42084336934177e+15
3.40679952134423e+15
3.39606210367094e+15
3.3825748980847e+15
3.37244373343716e+15
3.35945350482943e+15
3.34984876665175e+15
3.33729123536036e+15
3.32816357723418e+15
3.31599913911894e+15
3.30736538337877e+15
3.29560328105326e+15
3.28745480250226e+15
3.27610003246198e+15
3.26843344229303e+15
3.25746680928387e+15
3.25027030471455e+15
3.23966728862253e+15
3.23294139607418e+15
3.22268477831121e+15
3.21641798708201e+15
3.20648377709836e+15
3.20063968343598e+15
3.19098752427918e+15
3.18556383011708e+15
3.17619309307407e+15
3.17115198373502e+15
3.16203792581427e+15
3.15735043222555e+15
3.14844848181752e+15
3.14404696803175e+15
3.13311188092436e+15
)
;

boundaryField
{
    electrode
    {
        type            driftDiffusionPositiveIonDensity;
        seec            0;
        fieldName       Arp1;
        value           uniform 5.88048981375092e+16;
    }
    ground
    {
        type            driftDiffusionPositiveIonDensity;
        seec            0;
        fieldName       Arp1;
        value           uniform 3.13311188092436e+15;
    }
    otherfaces
    {
        type            empty;
    }
}


// ************************************************************************* //
