/*--------------------------------*- C++ -*----------------------------------*\
| =========                 |                                                 |
| \\      /  F ield         | foam-extend: Open Source CFD                    |
|  \\    /   O peration     | Version:     4.0                                |
|   \\  /    A nd           | Web:         http://www.foam-extend.org         |
|    \\/     M anipulation  |                                                 |
\*---------------------------------------------------------------------------*/
FoamFile
{
    version     2.0;
    format      ascii;
    class       volScalarField;
    location    "3.1e-06";
    object      electron;
}
// * * * * * * * * * * * * * * * * * * * * * * * * * * * * * * * * * * * * * //

dimensions      [0 0 0 1 0 0 0];

internalField   nonuniform List<scalar> 
300
(
5.8955387052959e+16
5.89535650692153e+16
5.89490750282897e+16
5.89415668484142e+16
5.89310873376867e+16
5.89176286196017e+16
5.89011886329123e+16
5.88817717981815e+16
5.88593816664813e+16
5.88340224635271e+16
5.88056990881988e+16
5.87744169527692e+16
5.87401820077005e+16
5.87030007307832e+16
5.86628801108637e+16
5.86198276345885e+16
5.85738512713677e+16
5.85249594570711e+16
5.84731610766815e+16
5.8418465445807e+16
5.8360882291051e+16
5.83004217292374e+16
5.82370942454981e+16
5.8170910670223e+16
5.81018821548665e+16
5.80300201466251e+16
5.79553363619942e+16
5.78778427591987e+16
5.77975515095133e+16
5.77144749674812e+16
5.76286256400403e+16
5.75400161545637e+16
5.74486592258401e+16
5.73545676219981e+16
5.72577541293938e+16
5.7158231516485e+16
5.7056012496699e+16
5.69511096903314e+16
5.68435355854934e+16
5.67333024981259e+16
5.66204225311179e+16
5.65049075325646e+16
5.63867690531773e+16
5.62660183028929e+16
5.61426661067331e+16
5.60167228599265e+16
5.58881984823509e+16
5.5757102372343e+16
5.56234433599102e+16
5.54872296594124e+16
5.53484688217531e+16
5.52071676861318e+16
5.50633323314323e+16
5.49169680272995e+16
5.47680791849685e+16
5.46166693079038e+16
5.44627409423403e+16
5.43062956277804e+16
5.41473338475284e+16
5.39858549793472e+16
5.38218572463071e+16
5.36553376679254e+16
5.34862920116742e+16
5.33147147449463e+16
5.31405989875735e+16
5.29639364650053e+16
5.27847174622333e+16
5.26029307785657e+16
5.24185636833606e+16
5.22316018728182e+16
5.2042029427951e+16
5.18498287738463e+16
5.16549806403183e+16
5.14574640240809e+16
5.1257256152566e+16
5.10543324494984e+16
5.08486665023541e+16
5.06402300318277e+16
5.04289928634436e+16
5.02149229014293e+16
4.99979861049976e+16
4.97781464671566e+16
4.95553659961828e+16
4.93296046999054e+16
4.9100820572927e+16
4.88689695869212e+16
4.86340056841419e+16
4.83958807742789e+16
4.81545447348115e+16
4.7909945414994e+16
4.7662028643591e+16
4.74107382405192e+16
4.71560160325298e+16
4.68978018730512e+16
4.66360336663331e+16
4.63706473960319e+16
4.6101577158338e+16
4.58287551997797e+16
4.55521119598334e+16
4.52715761184474e+16
4.49870746485797e+16
4.4698532873863e+16
4.44058745315019e+16
4.41090218404834e+16
4.38078955751814e+16
4.35024151444392e+16
4.31924986761996e+16
4.2878063107723e+16
4.25590242814435e+16
4.22352970465053e+16
4.19067953659953e+16
4.15734324298618e+16
4.12351207735255e+16
4.08917724021559e+16
4.05432989205472e+16
4.01896116685507e+16
3.98306218619668e+16
3.94662407387803e+16
3.90963797106128e+16
3.87209505192319e+16
3.83398653979193e+16
3.79530372374803e+16
3.75603797566518e+16
3.71618076766064e+16
3.67572368992242e+16
3.6346584688781e+16
3.59297698566402e+16
3.55067129484855e+16
3.50773364335979e+16
3.46415648956397e+16
3.41993252243229e+16
3.37505468073034e+16
3.32951617215998e+16
3.28331049237573e+16
3.23643144379219e+16
3.18887315409369e+16
3.14063009435223e+16
3.09169709665547e+16
3.04206937114034e+16
2.9917425223269e+16
2.94071256464688e+16
2.8889759370633e+16
2.8365295166818e+16
2.78337063126877e+16
2.72949707061194e+16
2.67490709668632e+16
2.61959945263537e+16
2.56357337064369e+16
2.5068285788691e+16
2.44936530773052e+16
2.39118429603117e+16
2.33228679763867e+16
2.27267458974624e+16
2.2123499843837e+16
2.15131584473669e+16
2.08957560740308e+16
2.02713332252976e+16
1.9639936797474e+16
1.90016198710459e+16
1.83564431980451e+16
1.77044640316825e+16
1.70457127053482e+16
1.63801156917522e+16
1.57073980635873e+16
1.50271850358882e+16
1.43392066664288e+16
1.36433327572126e+16
1.29394755952884e+16
1.22275824480894e+16
1.15077350928429e+16
1.07802856185352e+16
1.00462455312381e+16
9.3073947071355e+15
8.56601126749221e+15
7.82529083956135e+15
7.08961009400096e+15
6.36405045832489e+15
5.65456826385273e+15
4.96807388034317e+15
4.31177392274701e+15
3.69288089621928e+15
3.11825790847401e+15
2.59370540490656e+15
2.12358826750918e+15
1.71053475834602e+15
1.35492653642411e+15
1.05510475417978e+15
807867881499041
608623146680686
451777298378944
330925399262712
239794539793984
172495881372897
123567503326373
87824440911076.5
61165676249727.6
41756328029640.2
27771165286336.6
17769163895198.7
11105787216765.9
6993236341481.7
4600313393438.91
3242130934540.19
2467652454147.87
2017043538496.71
1748896730703.38
1586279372660.23
1486843511180
1426170532768.43
1389538249559.02
1368057624160.56
1355928090731.91
1349236485049.82
1345387705047.2
1342692657209.3
1339992581673.78
1336507891898.18
1331722403716
1325310262248.31
1317083027436.78
1306949733385.4
1294859340200.34
1280830239544.28
1264962319789.6
1247386720441.52
1228257978418.35
1207743205337.42
1186014852044.22
1163245449454.38
1139604222985.3
1115254531864.38
1090351983158.66
1065043058433.89
1039464169437.35
1013741064971.95
987988530052.939
962310319067.174
936799288498.862
911537682366.67
886597538910.764
862041197872.177
837921887656.961
814284507884.144
791166726088.559
768599617534.005
746607626926.774
725208739932.353
704415058909.044
684231525357.314
664654547069.158
645680549781.802
627308074459.199
609532683489.745
592347630454.463
575743798137.73
559711710979.665
544239025807.448
529308342766.974
514903940176.029
501012287253.827
487618179035.98
474705446721.336
462257701859.033
450258504011.891
438691227420.595
427538837314.021
416778410408.238
406388282368.086
396353730856.861
386661123546.822
377297926446.974
368252182453.485
359512527641.479
351068194748.727
342909047201.566
335025611304.439
327409110319.679
320051500615.671
312945501026.498
306084609926.418
299462900129.871
293074331441.515
286907167068.715
280931147844.9
275127602169.102
269503869966.696
264070631031.673
258839528079.57
253822062158.629
248986084253.547
244310089217.603
239832894587.454
235591035056.279
231579980746.664
227846616022.175
224471404259.881
221589727043.557
219497926972.651
218636728527.294
219828089546.567
)
;

boundaryField
{
    electrode
    {
        type            driftDiffusionElectronDensity;
        seec            0.05;
        Edepend         1;
        field_emission  0;
        field_enhancement_factor 55;
        work_function   5;
        value           uniform 5.8955387052959e+16;
    }
    ground
    {
        type            driftDiffusionElectronDensity;
        seec            0.05;
        Edepend         1;
        field_emission  0;
        field_enhancement_factor 55;
        work_function   5;
        value           uniform 222031218486.999;
    }
    otherfaces
    {
        type            empty;
    }
}


// ************************************************************************* //
