/*--------------------------------*- C++ -*----------------------------------*\
| =========                 |                                                 |
| \\      /  F ield         | foam-extend: Open Source CFD                    |
|  \\    /   O peration     | Version:     4.0                                |
|   \\  /    A nd           | Web:         http://www.foam-extend.org         |
|    \\/     M anipulation  |                                                 |
\*---------------------------------------------------------------------------*/
FoamFile
{
    version     2.0;
    format      ascii;
    class       volVectorField;
    location    "3.1e-06";
    object      J_electron;
}
// * * * * * * * * * * * * * * * * * * * * * * * * * * * * * * * * * * * * * //

dimensions      [1 -1 -1 0 0 0 0];

internalField   nonuniform List<vector> 
300
(
(-1.24379986230227e+19 0 0)
(-1.26220672469049e+19 0 0)
(-1.48027133216216e+19 0 0)
(-1.44966879523731e+19 0 0)
(-1.44435655060431e+19 0 0)
(-1.443689682937e+19 0 0)
(-1.43871884561637e+19 0 0)
(-1.43442734732582e+19 0 0)
(-1.4302341685612e+19 0 0)
(-1.42595748845734e+19 0 0)
(-1.42170241213714e+19 0 0)
(-1.41745675509299e+19 0 0)
(-1.41321664283277e+19 0 0)
(-1.40898481056974e+19 0 0)
(-1.40476151383795e+19 0 0)
(-1.4005470710245e+19 0 0)
(-1.396341942964e+19 0 0)
(-1.39214650824193e+19 0 0)
(-1.38796112556461e+19 0 0)
(-1.38378611302964e+19 0 0)
(-1.37962176631302e+19 0 0)
(-1.37546834451682e+19 0 0)
(-1.37132607238348e+19 0 0)
(-1.36719513471355e+19 0 0)
(-1.36307568918502e+19 0 0)
(-1.35896784406152e+19 0 0)
(-1.35487167339444e+19 0 0)
(-1.35078720600563e+19 0 0)
(-1.34671443311973e+19 0 0)
(-1.34265329424881e+19 0 0)
(-1.33860368870125e+19 0 0)
(-1.33456546960319e+19 0 0)
(-1.33053843555539e+19 0 0)
(-1.32652234438488e+19 0 0)
(-1.32251689818503e+19 0 0)
(-1.31852174515875e+19 0 0)
(-1.3145364905137e+19 0 0)
(-1.31056067649831e+19 0 0)
(-1.30659379557346e+19 0 0)
(-1.30263528454352e+19 0 0)
(-1.29868452817405e+19 0 0)
(-1.29474084036611e+19 0 0)
(-1.29080349751282e+19 0 0)
(-1.28687170535988e+19 0 0)
(-1.28294461117248e+19 0 0)
(-1.27902130910058e+19 0 0)
(-1.27510083034232e+19 0 0)
(-1.27118214327876e+19 0 0)
(-1.26726416854451e+19 0 0)
(-1.26334574868517e+19 0 0)
(-1.25942568194962e+19 0 0)
(-1.2555026990929e+19 0 0)
(-1.25157547399229e+19 0 0)
(-1.24764261800568e+19 0 0)
(-1.24370267974371e+19 0 0)
(-1.23975416476915e+19 0 0)
(-1.23579549493992e+19 0 0)
(-1.23182506192633e+19 0 0)
(-1.22784117617716e+19 0 0)
(-1.22384210884388e+19 0 0)
(-1.21982606857231e+19 0 0)
(-1.21579120954413e+19 0 0)
(-1.21173563155756e+19 0 0)
(-1.20765738879274e+19 0 0)
(-1.2035544816753e+19 0 0)
(-1.19942485762287e+19 0 0)
(-1.19526642553012e+19 0 0)
(-1.1910770390843e+19 0 0)
(-1.18685451544392e+19 0 0)
(-1.18259662932075e+19 0 0)
(-1.17830111758068e+19 0 0)
(-1.17396566963813e+19 0 0)
(-1.16958795750624e+19 0 0)
(-1.16516560520248e+19 0 0)
(-1.16069622086587e+19 0 0)
(-1.15617737442842e+19 0 0)
(-1.15160661983767e+19 0 0)
(-1.14698149006593e+19 0 0)
(-1.14229949482247e+19 0 0)
(-1.13755814241797e+19 0 0)
(-1.13275491349391e+19 0 0)
(-1.12788729833424e+19 0 0)
(-1.12295277438291e+19 0 0)
(-1.11794882434278e+19 0 0)
(-1.1128729309546e+19 0 0)
(-1.10772258956428e+19 0 0)
(-1.10249530416345e+19 0 0)
(-1.09718860624953e+19 0 0)
(-1.0918000343879e+19 0 0)
(-1.08632715959206e+19 0 0)
(-1.08076758531425e+19 0 0)
(-1.07511894406144e+19 0 0)
(-1.06937890888284e+19 0 0)
(-1.06354519796645e+19 0 0)
(-1.05761558049173e+19 0 0)
(-1.05158786123348e+19 0 0)
(-1.04545992317463e+19 0 0)
(-1.0392296952688e+19 0 0)
(-1.03289518045916e+19 0 0)
(-1.02645443823534e+19 0 0)
(-1.01990561484741e+19 0 0)
(-1.01324692387345e+19 0 0)
(-1.00647666124293e+19 0 0)
(-9.99593201204986e+18 0 0)
(-9.925950124998e+18 0 0)
(-9.85480641356916e+18 0 0)
(-9.78248724731606e+18 0 0)
(-9.70897994238237e+18 0 0)
(-9.63427268643049e+18 0 0)
(-9.55835459849421e+18 0 0)
(-9.48121559804674e+18 0 0)
(-9.40284664481684e+18 0 0)
(-9.3232393528667e+18 0 0)
(-9.24238624184546e+18 0 0)
(-9.16028058037545e+18 0 0)
(-9.07691621632128e+18 0 0)
(-8.99228764987825e+18 0 0)
(-8.90638981155311e+18 0 0)
(-8.81921800913132e+18 0 0)
(-8.73076766658213e+18 0 0)
(-8.64103426860673e+18 0 0)
(-8.55001307408971e+18 0 0)
(-8.45769882571217e+18 0 0)
(-8.36408556437583e+18 0 0)
(-8.2691662420257e+18 0 0)
(-8.17293236182293e+18 0 0)
(-8.07537343726984e+18 0 0)
(-7.97647670497352e+18 0 0)
(-7.87622639172059e+18 0 0)
(-7.77460302530111e+18 0 0)
(-7.67158286573948e+18 0 0)
(-7.56713695192705e+18 0 0)
(-7.46123014053246e+18 0 0)
(-7.35382006067207e+18 0 0)
(-7.24485582961561e+18 0 0)
(-7.13427673427686e+18 0 0)
(-7.02201057726064e+18 0 0)
(-6.90797182880789e+18 0 0)
(-6.79205972100199e+18 0 0)
(-6.67415581576449e+18 0 0)
(-6.55412148466562e+18 0 0)
(-6.43179478219909e+18 0 0)
(-6.30698737002453e+18 0 0)
(-6.17948058457158e+18 0 0)
(-6.04902123683866e+18 0 0)
(-5.91531696987727e+18 0 0)
(-5.77803110808289e+18 0 0)
(-5.63677675331571e+18 0 0)
(-5.49111067952179e+18 0 0)
(-5.34052661538954e+18 0 0)
(-5.18444790673782e+18 0 0)
(-5.02221875722374e+18 0 0)
(-4.85310751356066e+18 0 0)
(-4.67625418392863e+18 0 0)
(-4.49064683911407e+18 0 0)
(-4.29560660023365e+18 0 0)
(-4.08809951576929e+18 0 0)
(-3.86515757651984e+18 0 0)
(-3.63352736865871e+18 0 0)
(-3.31984423380058e+18 0 0)
(-2.92661332136899e+18 0 0)
(-2.1771637588356e+18 0 0)
(-1.20907220345946e+18 0 0)
(-8.17366820651532e+17 0 0)
(-7.33461900861374e+17 0 0)
(-4.07564850938511e+17 0 0)
(2.94200001016365e+17 0 0)
(8.66807030768206e+17 0 0)
(1.32173753345167e+18 0 0)
(1.50391268177556e+18 0 0)
(3.52789259693851e+17 0 0)
(1.36200638784602e+17 0 0)
(5.45327547699692e+17 0 0)
(-1.33693900329792e+18 0 0)
(-2.24217068395299e+18 0 0)
(-1.8214159326013e+18 0 0)
(-3.4037797748369e+18 0 0)
(-3.83279266043265e+18 0 0)
(-2.79724591249306e+18 0 0)
(-2.33908898176591e+18 0 0)
(-6.26377389457277e+17 0 0)
(2.19121046112017e+18 0 0)
(4.72185112271153e+18 0 0)
(7.76062595144404e+18 0 0)
(1.17002295518508e+19 0 0)
(1.35430984565601e+19 0 0)
(1.44753972592456e+19 0 0)
(1.50585217292624e+19 0 0)
(1.41968348940502e+19 0 0)
(1.3934865454349e+19 0 0)
(1.01570967907099e+19 0 0)
(8.42855573103667e+18 0 0)
(5.75040608330783e+18 0 0)
(5.33378150912705e+18 0 0)
(1.71729259449693e+18 0 0)
(-2.79403567598495e+18 0 0)
(-2.2014629613577e+17 0 0)
(-3.05194578946169e+18 0 0)
(-2.85357975237442e+18 0 0)
(-2.75533289623393e+18 0 0)
(-2.77674575094444e+18 0 0)
(-2.95421928710003e+18 0 0)
(-3.14685457252055e+18 0 0)
(-3.27511674950383e+18 0 0)
(-3.33407531963894e+18 0 0)
(-3.34274717082692e+18 0 0)
(-3.33021154310041e+18 0 0)
(-3.29281133515995e+18 0 0)
(-3.25453836036748e+18 0 0)
(-3.20717971524748e+18 0 0)
(-3.15723241713154e+18 0 0)
(-3.10490705024026e+18 0 0)
(-3.05259265489055e+18 0 0)
(-2.99818217514842e+18 0 0)
(-2.94326582799128e+18 0 0)
(-2.88777402202043e+18 0 0)
(-2.83195230298202e+18 0 0)
(-2.775930599431e+18 0 0)
(-2.71983929057809e+18 0 0)
(-2.6637919271668e+18 0 0)
(-2.60765697863775e+18 0 0)
(-2.55254971771956e+18 0 0)
(-2.49739331192938e+18 0 0)
(-2.44283120818172e+18 0 0)
(-2.38888360092279e+18 0 0)
(-2.33565252840221e+18 0 0)
(-2.28320788267142e+18 0 0)
(-2.23162204994557e+18 0 0)
(-2.18094976016292e+18 0 0)
(-2.13123819262062e+18 0 0)
(-2.08252600800113e+18 0 0)
(-2.03484462699835e+18 0 0)
(-1.98821840002099e+18 0 0)
(-1.94266526212098e+18 0 0)
(-1.89819713443421e+18 0 0)
(-1.85482043777693e+18 0 0)
(-1.81253676697017e+18 0 0)
(-1.77134303589097e+18 0 0)
(-1.73123241764646e+18 0 0)
(-1.69219444372116e+18 0 0)
(-1.65421577334199e+18 0 0)
(-1.61728177008121e+18 0 0)
(-1.5813758680673e+18 0 0)
(-1.54647108093162e+18 0 0)
(-1.51254452246155e+18 0 0)
(-1.47957615033775e+18 0 0)
(-1.44754328276636e+18 0 0)
(-1.41639887908979e+18 0 0)
(-1.3861373664506e+18 0 0)
(-1.35682627080267e+18 0 0)
(-1.32828072006075e+18 0 0)
(-1.3005497663993e+18 0 0)
(-1.27360012634433e+18 0 0)
(-1.24740689927559e+18 0 0)
(-1.22196945983056e+18 0 0)
(-1.19718931089858e+18 0 0)
(-1.17311773046433e+18 0 0)
(-1.14976058714611e+18 0 0)
(-1.12699805051976e+18 0 0)
(-1.10485304562577e+18 0 0)
(-1.083312283467e+18 0 0)
(-1.06234809838397e+18 0 0)
(-1.04194116291764e+18 0 0)
(-1.02206840073059e+18 0 0)
(-1.00271408719005e+18 0 0)
(-9.83798199538847e+17 0 0)
(-9.65506107180883e+17 0 0)
(-9.47608867001099e+17 0 0)
(-9.30170770256097e+17 0 0)
(-9.13164428680065e+17 0 0)
(-8.96582409603918e+17 0 0)
(-8.80410580716891e+17 0 0)
(-8.64636308976686e+17 0 0)
(-8.49246908901195e+17 0 0)
(-8.34230289438649e+17 0 0)
(-8.19574661245336e+17 0 0)
(-8.05268730207596e+17 0 0)
(-7.91301358711791e+17 0 0)
(-7.7766187631733e+17 0 0)
(-7.64337682786292e+17 0 0)
(-7.51316193110745e+17 0 0)
(-7.38543156185113e+17 0 0)
(-7.26004777608489e+17 0 0)
(-7.14124170188689e+17 0 0)
(-7.0231292495133e+17 0 0)
(-6.90796459152947e+17 0 0)
(-6.795289115602e+17 0 0)
(-6.68552522383278e+17 0 0)
(-6.57468492355209e+17 0 0)
(-6.47459331791258e+17 0 0)
(-6.37344617194989e+17 0 0)
(-6.27408190174847e+17 0 0)
(-6.1758716391631e+17 0 0)
(-6.08829650442561e+17 0 0)
(-5.99531582903061e+17 0 0)
(-5.91492076181631e+17 0 0)
(-5.83409417770822e+17 0 0)
(-5.7684450063275e+17 0 0)
(-5.70743463481433e+17 0 0)
(-5.60886138102763e+17 0 0)
)
;

boundaryField
{
    electrode
    {
        type            calculated;
        value           uniform (-1.46669077553199e+19 0 0);
    }
    ground
    {
        type            calculated;
        value           uniform (-5.58326772381318e+17 0 0);
    }
    otherfaces
    {
        type            empty;
    }
}


// ************************************************************************* //
