/*--------------------------------*- C++ -*----------------------------------*\
| =========                 |                                                 |
| \\      /  F ield         | foam-extend: Open Source CFD                    |
|  \\    /   O peration     | Version:     4.0                                |
|   \\  /    A nd           | Web:         http://www.foam-extend.org         |
|    \\/     M anipulation  |                                                 |
\*---------------------------------------------------------------------------*/
FoamFile
{
    version     2.0;
    format      ascii;
    class       volScalarField;
    location    "3.1e-06";
    object      N_electronMean;
}
// * * * * * * * * * * * * * * * * * * * * * * * * * * * * * * * * * * * * * //

dimensions      [0 0 0 1 0 0 0];

internalField   nonuniform List<scalar> 
300
(
6.0274152904661e+16
6.0272758704983e+16
6.02686862077022e+16
6.02613638847536e+16
6.0250808249581e+16
6.02369669717287e+16
6.02198032759714e+16
6.01992932215278e+16
6.01754161072393e+16
6.01481561920193e+16
6.01175020146134e+16
6.00834460130829e+16
6.00459842062133e+16
6.00051158937633e+16
5.996084344607e+16
5.99131720948244e+16
5.9862109757827e+16
5.98076668899935e+16
5.97498563393142e+16
5.968869321165e+16
5.96241947529249e+16
5.95563802387212e+16
5.94852708686493e+16
5.94108896584011e+16
5.93332613647688e+16
5.92524124300887e+16
5.91683708698496e+16
5.90811661614172e+16
5.89908291562905e+16
5.88973919571632e+16
5.88008878440222e+16
5.87013512658614e+16
5.85988177312536e+16
5.84933236228636e+16
5.83849060691746e+16
5.82736028456005e+16
5.81594522778466e+16
5.80424931552787e+16
5.7922764634949e+16
5.78003061441516e+16
5.76751573039205e+16
5.75473578500759e+16
5.74169475349973e+16
5.72839660385927e+16
5.71484528933946e+16
5.70104474119116e+16
5.68699886199543e+16
5.67271151991452e+16
5.65818654466526e+16
5.64342772518103e+16
5.62843881126471e+16
5.61322351537953e+16
5.59778550801999e+16
5.58212840767106e+16
5.56625576571735e+16
5.55017105082618e+16
5.53387763569056e+16
5.51737878682837e+16
5.50067765697684e+16
5.4837772777128e+16
5.46668055292905e+16
5.44939025283711e+16
5.43190900717016e+16
5.41423930439434e+16
5.39638349813618e+16
5.37834380045615e+16
5.36012226279354e+16
5.34172076468858e+16
5.32314100841149e+16
5.30438451334677e+16
5.28545261019441e+16
5.2663464382854e+16
5.24706694890278e+16
5.22761490199082e+16
5.20799085523687e+16
5.18819516400417e+16
5.1682279852398e+16
5.14808927149464e+16
5.12777875559392e+16
5.10729594073414e+16
5.08664009828948e+16
5.06581025161077e+16
5.04480516026178e+16
5.02362331369772e+16
5.00226292753376e+16
4.98072194429029e+16
4.95899802495734e+16
4.93708853297342e+16
4.9149905258431e+16
4.89270075232514e+16
4.87021564452816e+16
4.84753131855494e+16
4.82464357742004e+16
4.80154789093947e+16
4.77823937653016e+16
4.75471279208203e+16
4.73096252855081e+16
4.70698260256742e+16
4.6827666489979e+16
4.65830791584158e+16
4.63359925882893e+16
4.60863313120486e+16
4.58340158055263e+16
4.55789625002104e+16
4.53210836634138e+16
4.5060287306821e+16
4.47964771446088e+16
4.45295525233975e+16
4.42594083902575e+16
4.39859352013723e+16
4.37090188093927e+16
4.34285404037054e+16
4.31443764763078e+16
4.28563988270339e+16
4.25644745321348e+16
4.22684659140319e+16
4.19682306197035e+16
4.16636216358034e+16
4.13544871653766e+16
4.10406705268831e+16
4.07220101828159e+16
4.03983398128607e+16
4.00694883713609e+16
3.97352801702229e+16
3.93955348328101e+16
3.90500671587209e+16
3.86986871352261e+16
3.83412000121687e+16
3.79774062996516e+16
3.76071017942239e+16
3.72300776721796e+16
3.68461205875187e+16
3.64550127544211e+16
3.60565320327503e+16
3.56504521616911e+16
3.52365430495353e+16
3.48145708411501e+16
3.43842979480207e+16
3.39454832870675e+16
3.34978825358381e+16
3.30412482477699e+16
3.25753299924308e+16
3.2099874598964e+16
3.16146264560938e+16
3.11193279249259e+16
3.06137197176572e+16
3.00975411026949e+16
2.95705300935994e+16
2.90324236534921e+16
2.84829580733229e+16
2.79218695222025e+16
2.73488944010287e+16
2.67637697579401e+16
2.61662338478052e+16
2.55560265490439e+16
2.49328899305519e+16
2.42965690640191e+16
2.36468129024605e+16
2.29833751477394e+16
2.23060152166262e+16
2.16144990888536e+16
2.09085994234108e+16
2.01880899999012e+16
1.94527294953381e+16
1.87022452305063e+16
1.79363283035178e+16
1.71546356207224e+16
1.63567963918193e+16
1.55424275164873e+16
1.47111665983453e+16
1.38627372959275e+16
1.29970837043639e+16
1.21146088293578e+16
1.12164616019178e+16
1.03048494600106e+16
9.38338322390054e+15
8.45739579123141e+15
7.5342271956809e+15
6.6233178307576e+15
5.73599237725612e+15
4.88498933736085e+15
4.08368224799863e+15
3.34495673373113e+15
2.67996981570184e+15
2.09697771622777e+15
1.60035419534626e+15
1.19011995052428e+15
862073090133680
608437580275721
418962776503710
282202143153334
186753726557767
122208415513587
79835805801580.4
52009885841552.4
33708740813609.5
21785833115114.1
14100458431939.3
9337719520890.92
6497457295406.79
4860410170002.67
3934698705149.85
3400738708314.37
3075957851699.22
2865463565529.15
2720251893790.55
2614107828067.59
2532188899059.99
2465642859999.64
2408951388480.94
2358604743536.85
2312255150423.73
2268321524850.11
2225738154553.69
2183782872244.15
2141965657291.13
2099966978692.39
2057590984541.84
2014731568068.08
1971350047979.39
1927457819671.4
1883077116604.75
1838259284939.67
1793099568543.96
1747710725723.24
1702215193088.94
1656738687212.15
1611404375620.47
1566330713849.46
1521629064223.96
1477402170770.32
1433744691365.64
1390741122467.66
1348466350229.02
1306986260330.81
1266357132197.9
1226625808297.14
1187831372558.38
1150004111969.94
1113166800532.89
1077335948156.04
1042521294631.63
1008727922587.5
975956049130.342
944201412440.361
913455780947.848
883705450452.557
854933337817.865
827119953948.832
800243846299.646
774283795506.367
749218321918.912
725024786430.149
701679294474.625
679157550468.927
657435479896.608
636489444791.732
616293682817.448
596821211614.637
578048315436.668
559952567924.179
542510185167.999
525697870353.105
509492353168.063
493870962440.948
478812103373.065
464293862676.489
450294396932.914
436792636050.897
423768196093.736
411201225138.075
399073962654.354
387370574697.184
376076892503.397
365179572894.302
354666117450.747
344524696574.112
334743923912.718
325313329544.588
316223378919.143
307465198376.419
299029391212.982
290906234553.911
283074604333.457
275510550875.996
268208088301.897
261171762247.741
254407229954.703
247920255524.206
241694493202.92
235709284370.602
229978767362.886
224535455145.125
219376043711.551
214526553573.359
210056335149.731
206073383729.94
202801190107.888
200598910059.919
200116193335.8
)
;

boundaryField
{
    electrode
    {
        type            calculated;
        value           uniform 6.02741529050416e+16;
    }
    ground
    {
        type            calculated;
        value           uniform 201202798193.294;
    }
    otherfaces
    {
        type            empty;
    }
}


// ************************************************************************* //
