/*--------------------------------*- C++ -*----------------------------------*\
| =========                 |                                                 |
| \\      /  F ield         | foam-extend: Open Source CFD                    |
|  \\    /   O peration     | Version:     4.0                                |
|   \\  /    A nd           | Web:         http://www.foam-extend.org         |
|    \\/     M anipulation  |                                                 |
\*---------------------------------------------------------------------------*/
FoamFile
{
    version     2.0;
    format      ascii;
    class       volScalarField;
    location    "3.1e-06";
    object      Phi;
}
// * * * * * * * * * * * * * * * * * * * * * * * * * * * * * * * * * * * * * //

dimensions      [0 0 0 1 0 0 0];

internalField   nonuniform List<scalar> 
300
(
699.999937628162
699.999719336609
699.999229083605
699.99848442284
699.997495989204
699.996260095411
699.994777183546
699.993047474759
699.991070940394
699.988847652733
699.986377687092
699.983661121127
699.980698041845
699.977488542691
699.974032722582
699.970330685106
699.966382537412
699.962188389051
699.957748350728
699.953062532966
699.948131044671
699.9429539916
699.937531474727
699.931863588516
699.925950419077
699.919792042227
699.913388521434
699.906739905652
699.899846227043
699.89270749858
699.885323711532
699.877694832823
699.869820802274
699.861701529707
699.853336891926
699.84472672956
699.835870843775
699.826768992838
699.817420888548
699.807826192516
699.797984512302
699.787895397396
699.777558335048
699.766972745941
699.756137979707
699.745053310279
699.733717931074
699.722130950017
699.710291384385
699.698198155484
699.685850083146
699.673245880052
699.660384145863
699.647263361177
699.633881881294
699.620237929789
699.606329591891
699.592154807673
699.577711365028
699.562996892462
699.54800885166
699.532744529859
699.517201032
699.501375272667
699.485263967802
699.468863626196
699.452170540757
699.435180779533
699.417890176509
699.400294322148
699.38238855369
699.364167945188
699.345627297291
699.326761126736
699.307563655586
699.288028800159
699.268150159669
699.247921004555
699.227334264492
699.206382516063
699.185057970093
699.163352458609
699.14125742143
699.118763892353
699.095862484924
699.072543377773
699.048796299473
699.024610512924
698.999974799206
698.974877440892
698.949306204768
698.923248323937
698.89669047926
698.869618780092
698.842018744252
698.813875277203
698.785172650348
698.755894478409
698.726023695797
698.695542531919
698.664432485322
698.632674296586
698.600247919888
698.567132493099
698.533306306317
698.498746768705
698.463430373486
698.427332660947
698.390428179277
698.352690443063
698.314091889227
698.274603830196
698.234196404037
698.192838521314
698.150497808334
698.107140546486
698.062731607278
698.017234382691
697.970610710389
697.92282079329
697.873823112962
697.823574336202
697.772029214149
697.719140473139
697.664858696473
697.609132196123
697.551906873334
697.493126066889
697.432730387709
697.37065753825
697.306842114983
697.241215391991
697.173705083489
697.104235082729
697.032725174443
696.959090717529
696.883242294242
696.805085321587
696.72451961997
696.641438933388
696.55573039458
696.467273927494
696.375941578191
696.281596763831
696.184093427684
696.083275085986
695.978973750015
695.871008703816
695.759185114413
695.643292447105
695.523102653275
695.398368091962
695.268819138677
695.134161426233
694.994072653168
694.848198864481
694.696150137569
694.537495623118
694.371757086032
694.19840253511
694.016839403329
693.826390911954
693.626281947248
693.415517597793
693.192887993747
692.957083335222
692.706638353509
692.439850920245
692.154652377383
691.848672886541
691.519071307884
691.162694547426
690.776403089259
690.35619816241
689.897622539675
689.396557173829
688.847947000706
688.24622721502
687.586576856621
686.863429421403
686.071249855197
685.205280603341
684.260630241314
683.232663445612
682.118226438156
680.914003780742
679.617267276686
678.226690491787
676.741557711016
675.161187548169
673.485326809011
671.714779135892
669.850670945387
667.89382447002
665.845118259173
663.704571942143
661.472904160956
659.149640705057
656.734157962275
654.225859338464
651.624224017795
648.929194429127
646.140981699443
643.260236238716
640.287925332995
637.225002818554
634.072386136584
630.830917864543
627.501377915887
624.084445443628
620.5807365895
616.990761732943
613.315204908766
609.554822548246
605.710325546809
601.782336025972
597.771442993298
593.678153380263
589.502950598834
585.246242037883
580.908419571337
576.489804417127
571.9907087924
567.41137829382
562.752056013813
558.013055452075
553.194826719966
548.297757377286
543.322245709184
538.268631437565
533.137268930885
527.928458573802
522.642517754709
517.27971256577
511.840327825869
506.324599005457
500.732781810384
495.065083162248
489.321732896725
483.50291206184
477.608827040148
471.639635627022
465.595523053665
459.476683469188
453.283464804105
447.01616178822
440.675102673398
434.260563545337
427.772854354336
421.212233351547
414.578992978841
407.873373570322
401.095651611235
394.246048599892
387.324826395686
380.332189348804
373.26838530748
366.133603775787
358.9280800124
351.651990507911
344.305558391061
336.888948022771
329.402370948783
321.845978726664
314.219971099957
306.524486220503
298.759711744589
290.925771858098
283.022842550058
275.051142787476
267.010954734089
258.902494090214
250.726031839179
242.481771504079
234.169974086878
225.790832537276
217.344599168123
208.831457347677
200.251651496825
191.60535506469
182.892804392816
174.114163183569
165.269659601449
156.359447667776
147.383747749037
138.342704427289
129.236530764673
120.06536188386
110.829403895993
101.528782703195
92.163697935425
82.7342670072853
73.2406838890876
63.6830575477308
54.0615763073979
44.3763414621151
34.6275361892809
24.8152547321875
14.9396760368739
5.0008883681933
)
;

boundaryField
{
    electrode
    {
        type            fixedValue;
        value           uniform 700;
    }
    ground
    {
        type            fixedValue;
        value           uniform 0;
    }
    otherfaces
    {
        type            empty;
    }
}


// ************************************************************************* //
