/*--------------------------------*- C++ -*----------------------------------*\
| =========                 |                                                 |
| \\      /  F ield         | foam-extend: Open Source CFD                    |
|  \\    /   O peration     | Version:     4.0                                |
|   \\  /    A nd           | Web:         http://www.foam-extend.org         |
|    \\/     M anipulation  |                                                 |
\*---------------------------------------------------------------------------*/
FoamFile
{
    version     2.0;
    format      ascii;
    class       volScalarField;
    location    "3.1e-06";
    object      Sy_electron;
}
// * * * * * * * * * * * * * * * * * * * * * * * * * * * * * * * * * * * * * //

dimensions      [1 -3 -1 0 0 0 0];

internalField   nonuniform List<scalar> 
300
(
1.34132529440407e-10
1.34153338319934e-10
1.3416078814842e-10
1.34156450977023e-10
1.34151278257942e-10
1.341437920354e-10
1.34133964492386e-10
1.34121975043067e-10
1.34107786782187e-10
1.34091401011971e-10
1.34072823908144e-10
1.34052057910052e-10
1.34029107079492e-10
1.34003976354488e-10
1.33976671314355e-10
1.33947198270873e-10
1.33915564222055e-10
1.33881776829164e-10
1.33845844378613e-10
1.33807775743203e-10
1.33767580347166e-10
1.3372526812589e-10
1.33680849482963e-10
1.33634335245166e-10
1.33585736585691e-10
1.33535065054482e-10
1.33482332448589e-10
1.33427550778918e-10
1.3337073223612e-10
1.33311889093255e-10
1.33251033624699e-10
1.33188178118401e-10
1.33123334773986e-10
1.33056515596256e-10
1.32987732343159e-10
1.32916996448724e-10
1.32844318934808e-10
1.32769710348236e-10
1.32693180664807e-10
1.32614739193054e-10
1.32534394489176e-10
1.32452154266123e-10
1.32368025290414e-10
1.32282013283961e-10
1.32194122821558e-10
1.32104357224474e-10
1.32012718447956e-10
1.31919206974785e-10
1.3182382168347e-10
1.31726559758213e-10
1.31627416538391e-10
1.31526385457888e-10
1.31423457845114e-10
1.3131862286541e-10
1.31211867333406e-10
1.31103175609721e-10
1.3099252942849e-10
1.30879907780402e-10
1.3076528677127e-10
1.30648639475456e-10
1.30529935800322e-10
1.30409142327609e-10
1.30286222157936e-10
1.30161134743666e-10
1.30033835795296e-10
1.29904277124616e-10
1.29772406412356e-10
1.29638167087516e-10
1.29501498166701e-10
1.2936233409231e-10
1.292206045659e-10
1.29076234377879e-10
1.28929143261695e-10
1.28779245733182e-10
1.28626450876235e-10
1.28470662234176e-10
1.28311777627118e-10
1.28149688960346e-10
1.27984282113542e-10
1.27815436654635e-10
1.27643025860271e-10
1.27466916394814e-10
1.27286968190695e-10
1.27103034303422e-10
1.26914960715603e-10
1.26722586240891e-10
1.26525742338067e-10
1.2632425293246e-10
1.26117934263156e-10
1.25906594784491e-10
1.2569003496799e-10
1.25468047120914e-10
1.25240415462726e-10
1.25006915752467e-10
1.24767315238381e-10
1.24521372534638e-10
1.24268837499336e-10
1.24009451117709e-10
1.2374294537532e-10
1.23469043184887e-10
1.23187458278665e-10
1.22897895096935e-10
1.22600048658659e-10
1.22293604619396e-10
1.21978239047806e-10
1.21653618413754e-10
1.21319399562591e-10
1.20975229573497e-10
1.20620745805335e-10
1.20255575803919e-10
1.1987933726505e-10
1.19491638016262e-10
1.19092075988471e-10
1.18680239218013e-10
1.18255705829875e-10
1.17818044013343e-10
1.17366812045976e-10
1.16901558364277e-10
1.164218214801e-10
1.15927130018458e-10
1.15417002722739e-10
1.14890948554663e-10
1.14348466602025e-10
1.1378904621099e-10
1.13212166948656e-10
1.12617298595809e-10
1.12003901136667e-10
1.11371424853145e-10
1.10719310209723e-10
1.10046987875469e-10
1.09353878648005e-10
1.08639393419225e-10
1.07902933064875e-10
1.07143888295315e-10
1.06361639511202e-10
1.05555556689604e-10
1.04724999043925e-10
1.03869314704886e-10
1.02987840402968e-10
1.0207990106091e-10
1.01144809210497e-10
1.00181864419816e-10
9.91903525671839e-11
9.81695450398298e-11
9.71186977955368e-11
9.60370503185296e-11
9.49238242743553e-11
9.37782221327188e-11
9.25994255438855e-11
9.13865935174185e-11
9.01388604779657e-11
8.8855333878443e-11
8.75350915997122e-11
8.61771794918092e-11
8.47806089706973e-11
8.33443503097601e-11
8.18646290354702e-11
8.02636364180511e-11
7.86198352066283e-11
7.69325933422618e-11
7.52017774441201e-11
7.34294108153023e-11
7.16183446692188e-11
6.97622730899823e-11
6.78490651372903e-11
6.58738531103564e-11
6.38385030482774e-11
6.17414844799603e-11
5.95761303396031e-11
5.73342485371313e-11
5.49956128060073e-11
5.25534740055521e-11
5.00259541271053e-11
4.73991297072449e-11
4.46642500468409e-11
4.18617091532126e-11
3.9003452331692e-11
3.6101786437519e-11
3.32235170619255e-11
3.04224051261043e-11
2.7754777645896e-11
2.53152365987312e-11
2.31912235357914e-11
2.14813246621152e-11
2.03587442015716e-11
2.02780021400387e-11
2.16280058410773e-11
2.55604221695807e-11
3.88465180855569e-11
9.02251031777639e-11
2.2605655344242e-10
4.57550624815949e-10
8.69660519962246e-10
1.65079597386503e-09
3.0562665788346e-09
4.75967905151621e-09
6.25835298885984e-09
7.07236202742239e-09
6.70845958771364e-09
5.6962885597024e-09
4.55474860418734e-09
3.55022843803365e-09
2.83152061587406e-09
2.3442261509494e-09
2.02750806224303e-09
1.83109490760015e-09
1.70364780889935e-09
1.63145332233945e-09
1.583454493715e-09
1.5588099343454e-09
1.54870092916437e-09
1.54633492233243e-09
1.54466312997546e-09
1.54556717287743e-09
1.54724311864444e-09
1.5484513395193e-09
1.54836159104205e-09
1.54642859592353e-09
1.54231417518332e-09
1.53583015737985e-09
1.52689535472056e-09
1.51546695807938e-09
1.5015801673612e-09
1.48413094390302e-09
1.46457815814908e-09
1.44313075225083e-09
1.41998812776465e-09
1.39535554608495e-09
1.36943806226802e-09
1.34243664472832e-09
1.31454522768935e-09
1.28594854155599e-09
1.25682053067424e-09
1.22732326648016e-09
1.19760626461444e-09
1.16780614100876e-09
1.13804653721186e-09
1.1084382782982e-09
1.07907970671483e-09
1.05005715788901e-09
1.02144555204637e-09
9.93309078453881e-10
9.65702109642503e-10
9.38670503238929e-10
9.12252355405254e-10
8.86477932341181e-10
8.61369857737073e-10
8.3694381929453e-10
8.13207005484271e-10
7.90156296059758e-10
7.67788695180074e-10
7.46103855437672e-10
7.25097770730932e-10
7.04763677626797e-10
6.85091930949306e-10
6.66072496049511e-10
6.4769137347618e-10
6.29929736004043e-10
6.12769839184298e-10
5.96196449671412e-10
5.80192458274298e-10
5.64739561617118e-10
5.4981915785925e-10
5.3541254095794e-10
5.21500738737408e-10
5.08064329756327e-10
4.95076687916436e-10
4.82512666346921e-10
4.70355497354173e-10
4.5858956425684e-10
4.47200519118036e-10
4.36174645067488e-10
4.25498883367121e-10
4.15160835616051e-10
4.05148802168572e-10
3.95451817720198e-10
3.86059687657578e-10
3.76963026514274e-10
3.6815328650761e-10
3.5962277338742e-10
3.51364399655137e-10
3.43125077014051e-10
3.34815100925559e-10
3.26712416277749e-10
3.18794767444076e-10
3.11070344556727e-10
3.0355018154818e-10
2.96245854434715e-10
2.89104909895461e-10
2.8107751647378e-10
2.73203977005979e-10
2.65523431032315e-10
2.58068804961821e-10
2.48884000559851e-10
2.39934129902604e-10
2.30008514414476e-10
2.1872058344227e-10
2.05026841890954e-10
1.87969302076342e-10
1.64212808903016e-10
)
;

boundaryField
{
    electrode
    {
        type            zeroGradient;
    }
    ground
    {
        type            zeroGradient;
    }
    otherfaces
    {
        type            empty;
    }
}


// ************************************************************************* //
