/*--------------------------------*- C++ -*----------------------------------*\
| =========                 |                                                 |
| \\      /  F ield         | foam-extend: Open Source CFD                    |
|  \\    /   O peration     | Version:     4.0                                |
|   \\  /    A nd           | Web:         http://www.foam-extend.org         |
|    \\/     M anipulation  |                                                 |
\*---------------------------------------------------------------------------*/
FoamFile
{
    version     2.0;
    format      ascii;
    class       volScalarField;
    location    "3.1e-06";
    object      Te;
}
// * * * * * * * * * * * * * * * * * * * * * * * * * * * * * * * * * * * * * //

dimensions      [0 0 0 1 0 0 0];

internalField   nonuniform List<scalar> 
300
(
35910.3876271322
35910.6411892235
35910.8206768511
35910.9502155852
35911.1400238757
35911.3752982278
35911.6558465962
35911.9834422077
35912.3576895108
35912.7785750491
35913.2461286972
35913.7603397394
35914.3212107396
35914.9287501606
35915.5829703091
35916.2838885259
35917.0315270775
35917.8259131203
35918.6670787469
35919.5550610116
35920.4899019594
35921.4716486539
35922.5003532124
35923.5760728433
35924.6988698832
35925.8688118386
35927.0859714348
35928.3504266626
35929.6622608312
35931.0215626252
35932.4284261652
35933.8829510694
35935.385242525
35936.9354113597
35938.5335741177
35940.1798531457
35941.8743766753
35943.6172789171
35945.4087001597
35947.2487868711
35949.1376918059
35951.0755741261
35953.0625995191
35955.0989403238
35957.1847756714
35959.3202916261
35961.5056813335
35963.7411451835
35966.0268909722
35968.3631340814
35970.7500976642
35973.1880128361
35975.6771188814
35978.2176634692
35980.809902882
35983.4541022482
35986.1505357964
35988.8994871172
35991.7012494376
35994.5561259139
35997.4644299323
36000.4264854318
36003.4426272404
36006.5132014259
36009.6385656638
36012.8190896296
36016.055155405
36019.3471579057
36022.6955053319
36026.100619637
36029.5629370221
36033.0829084604
36036.6610002382
36040.2976945262
36043.9934899827
36047.7489023833
36051.5644652834
36055.4407307122
36059.3782699052
36063.3776740673
36067.4395551826
36071.5645468605
36075.753305222
36080.0065098386
36084.3248647156
36088.7090993267
36093.1599697036
36097.6782595775
36102.2647815865
36106.9203785512
36111.6459248077
36116.4423276184
36121.3105286625
36126.2515056036
36131.2662737417
36136.3558877702
36141.5214436213
36146.7640804148
36152.0849825269
36157.4853817807
36162.9665597594
36168.5298502584
36174.1766418911
36179.9083808536
36185.7265738541
36191.6327912314
36197.6286702768
36203.7159187627
36209.8963187032
36216.1717303665
36222.5440965647
36229.0154472241
36235.5879042806
36242.2636869275
36249.0451172237
36255.9346261251
36262.9347599607
36270.0481873906
36277.2777069028
36284.6262548961
36292.0969144037
36299.6929245185
36307.4176906041
36315.2747953585
36323.2680108189
36331.4013114187
36339.6788882098
36348.105164368
36356.6848121288
36365.4227713388
36374.3242697866
36383.3948455322
36392.6403714913
36402.0670825486
36411.6816055204
36421.4909923396
36431.50275689
36441.7249159984
36452.1660351457
36462.8352795721
36473.7424715648
36484.8981548531
36496.3136671691
36508.0012222487
36519.9740027923
36532.2462661382
36544.8334647508
36557.7523840528
36571.02130059
36584.6601640898
36598.6908077606
36613.137192197
36628.0256877714
36643.3854087364
36659.2486130662
36675.6511053749
36692.6330313791
36710.2398648398
36728.5216974927
36747.5452782685
36767.39781926
36788.2256686179
36810.2223911093
36833.4348029104
36857.8090311015
36883.4509486968
36910.6357431065
36939.6065447083
36970.5311594361
37003.5736870782
37038.5967368102
37075.7552206425
37115.8787516567
37158.9165641449
37204.8294371101
37255.0624502973
37310.2040419035
37370.7491452285
37439.3685817689
37518.7320371328
37612.2593859075
37726.453786981
37869.4042119272
38052.0834034447
38292.8567584796
38614.8006071211
39045.5692278888
39629.6085489146
40430.5147730072
41546.2416613822
43104.3900069961
45284.4823791229
48410.0406072794
52971.2046838251
59488.576165972
67971.7976148725
79635.1881287495
96516.5562136144
118666.526969651
148462.482880078
187185.273104961
234742.311244462
288843.818140438
345806.775118756
401994.73963129
454814.539993402
502790.868898853
545501.920652445
583127.802602369
616086.950782142
645025.059705001
670526.230549762
693097.077690544
713195.551487716
731235.760665994
747552.142101473
762423.493025803
776079.957690079
788712.395407812
800479.401487752
811515.020463395
821920.481431967
831782.44104724
841183.200382532
850185.89976296
858843.294201151
867198.712501485
875287.601644406
883138.625722993
890774.693790513
898213.721008431
905469.26695888
912551.062267542
919465.453774706
926215.782164639
932802.70730714
939224.487771147
945477.227745132
951555.09418656
957450.508569659
963154.320041063
968655.936850249
973943.437485466
979003.847554375
983823.346180995
988387.219072376
992679.912067124
996685.629630741
1000387.97607801
1003767.50805077
1006805.91365849
1009486.78936631
1011791.854879
1013702.70521603
1015200.07922851
1016265.70272562
1016871.34555295
1017011.64427912
1016665.1431966
1015808.87292755
1014422.74676155
1012486.45352636
1009979.67688957
1006881.97406558
1003172.67994097
998832.838461591
993839.249363638
988168.466189094
981800.781313198
974713.44725573
966883.286847347
958286.128653474
948896.938720778
938689.680932868
927637.19762012
915711.055716733
902881.374601721
889116.632389396
874383.44196518
858646.379564853
841867.790348138
824009.362544536
805034.451596807
784891.524302292
763527.174036677
740889.466889914
716909.803742064
691511.439960524
664625.709366326
636160.611677958
606003.429468936
574038.516477279
540120.833525012
504064.137484307
465648.603537714
424590.392826349
380491.853915928
332807.80779309
280735.86577312
223226.662831207
)
;

boundaryField
{
    electrode
    {
        type            electronTemperature;
        seec            0.05;
        Tse             1000;
        Edepend         1;
        TFN             1000;
        field_emission  0;
        field_enhancement_factor 55;
        work_function   5;
        value           uniform 35910.3876271322;
    }
    ground
    {
        type            electronTemperature;
        seec            0.05;
        Tse             1000;
        Edepend         1;
        TFN             1000;
        field_emission  0;
        field_enhancement_factor 55;
        work_function   5;
        value           uniform 190569.672620288;
    }
    otherfaces
    {
        type            empty;
    }
}


// ************************************************************************* //
