/*--------------------------------*- C++ -*----------------------------------*\
| =========                 |                                                 |
| \\      /  F ield         | foam-extend: Open Source CFD                    |
|  \\    /   O peration     | Version:     4.0                                |
|   \\  /    A nd           | Web:         http://www.foam-extend.org         |
|    \\/     M anipulation  |                                                 |
\*---------------------------------------------------------------------------*/
FoamFile
{
    version     2.0;
    format      ascii;
    class       regIOobject;
    location    "5.5e-06/uniform";
    object      profilingInfo;
}
// * * * * * * * * * * * * * * * * * * * * * * * * * * * * * * * * * * * * * //

profilingInfo
(

    {
        id              20;
        parentId        16;
        description     "Foam::Time::writeObject - outputTime";
        calls           55;
        totalTime       0.299806;
        childTime       0;
        onStack         1;
    }

    {
        id              16;
        parentId        1;
        description     "Foam::Time::writeObject";
        calls           55000;
        totalTime       0.379578999999738;
        childTime       0.299806;
        onStack         1;
    }

    {
        id              1;
        description     "application::main";
        calls           1;
        totalTime       1131.550126;
        childTime       17.3768779999887;
        onStack         1;
    }

    {
        id              18;
        parentId        17;
        description     "FO::dumpObjects::execute";
        calls           54999;
        totalTime       0.226600000000083;
        childTime       0;
        onStack         0;
    }

    {
        id              4;
        parentId        3;
        description     "FO::dumpObjects::start";
        calls           1;
        totalTime       2.5e-05;
        childTime       0;
        onStack         0;
    }

    {
        id              19;
        parentId        17;
        description     "FO::fieldAverage1::execute";
        calls           54999;
        totalTime       3.01421200000091;
        childTime       0;
        onStack         0;
    }

    {
        id              5;
        parentId        3;
        description     "FO::fieldAverage1::start";
        calls           1;
        totalTime       0.00045;
        childTime       0;
        onStack         0;
    }

    {
        id              3;
        parentId        2;
        description     "functionObjectList::read";
        calls           1;
        totalTime       0.007644;
        childTime       0.000475;
        onStack         0;
    }

    {
        id              17;
        parentId        1;
        description     "functionObjects_.execute()";
        calls           54999;
        totalTime       3.34811400000099;
        childTime       3.24081199999911;
        onStack         0;
    }

    {
        id              2;
        parentId        1;
        description     "functionObjects_.start()";
        calls           1;
        totalTime       0.007656;
        childTime       0.007644;
        onStack         0;
    }

    {
        id              12;
        parentId        1;
        description     "fvMatrix::solve_N_Arm";
        calls           55133;
        totalTime       2.50637600000109;
        childTime       1.28516000000091;
        onStack         0;
    }

    {
        id              10;
        parentId        1;
        description     "fvMatrix::solve_N_Arp1";
        calls           55828;
        totalTime       2.66177199999889;
        childTime       1.32328300000105;
        onStack         0;
    }

    {
        id              8;
        parentId        1;
        description     "fvMatrix::solve_N_electron";
        calls           55721;
        totalTime       2.76248600000141;
        childTime       1.37446200000055;
        onStack         0;
    }

    {
        id              6;
        parentId        1;
        description     "fvMatrix::solve_Phi";
        calls           55000;
        totalTime       2.83731500000121;
        childTime       1.41440500000056;
        onStack         0;
    }

    {
        id              14;
        parentId        1;
        description     "fvMatrix::solve_Te";
        calls           56002;
        totalTime       2.87358000000102;
        childTime       1.38203400000057;
        onStack         0;
    }

    {
        id              13;
        parentId        12;
        description     "lduMatrix::solver_N_Arm";
        calls           55133;
        totalTime       1.28516000000091;
        childTime       0;
        onStack         0;
    }

    {
        id              11;
        parentId        10;
        description     "lduMatrix::solver_N_Arp1";
        calls           55828;
        totalTime       1.32328300000105;
        childTime       0;
        onStack         0;
    }

    {
        id              9;
        parentId        8;
        description     "lduMatrix::solver_N_electron";
        calls           55721;
        totalTime       1.37446200000055;
        childTime       0;
        onStack         0;
    }

    {
        id              7;
        parentId        6;
        description     "lduMatrix::solver_Phi";
        calls           55000;
        totalTime       1.41440500000056;
        childTime       0;
        onStack         0;
    }

    {
        id              15;
        parentId        14;
        description     "lduMatrix::solver_Te";
        calls           56002;
        totalTime       1.38203400000057;
        childTime       0;
        onStack         0;
    }
);


// ************************************************************************* //
