/*--------------------------------*- C++ -*----------------------------------*\
| =========                 |                                                 |
| \\      /  F ield         | foam-extend: Open Source CFD                    |
|  \\    /   O peration     | Version:     4.0                                |
|   \\  /    A nd           | Web:         http://www.foam-extend.org         |
|    \\/     M anipulation  |                                                 |
\*---------------------------------------------------------------------------*/
FoamFile
{
    version     2.0;
    format      ascii;
    class       volVectorField;
    location    "1e-09";
    object      E;
}
// * * * * * * * * * * * * * * * * * * * * * * * * * * * * * * * * * * * * * //

dimensions      [0 0 0 1 0 0 0];

internalField   nonuniform List<vector> 
249
(
(-0 22653.7983654219 -0)
(-0 15102.7298910844 -0)
(-0 15102.730548379 -0)
(-0 15102.7309608564 -0)
(-0 15102.7313658017 -0)
(-0 15102.7313641099 -0)
(-0 15102.7305340493 -0)
(-0 15102.7297106154 -0)
(-0 15102.7288998193 -0)
(-0 15102.7284934276 -0)
(-0 15102.7284955204 -0)
(-0 15102.7284993962 -0)
(-0 15102.7285014595 -0)
(-0 15102.7297487966 -0)
(-0 15102.730172462 -0)
(-0 15102.7305907402 -0)
(-0 15102.7314242427 -0)
(-0 15102.7310152134 -0)
(-0 15102.7314271325 -0)
(-0 15102.7318467612 -0)
(-0 15102.7318511589 -0)
(-0 15102.7318501168 -0)
(-0 15102.7318550147 -0)
(-0 15102.7314487666 -0)
(-0 15102.7306250176 -0)
(-0 15102.7302215033 -0)
(-0 15102.7302268574 -0)
(-0 15102.7314629714 -0)
(-0 15102.7327017983 -0)
(-0 15102.7335326476 -0)
(-0 15102.7335393633 -0)
(-0 15102.7327142656 -0)
(-0 15102.7335379254 -0)
(-0 15102.734778647 -0)
(-0 15102.733958623 -0)
(-0 15102.7331381394 -0)
(-0 15102.7335547866 -0)
(-0 15102.7343848726 -0)
(-0 15102.7348033069 -0)
(-0 15102.735222659 -0)
(-0 15102.736055013 -0)
(-0 15102.7372971736 -0)
(-0 15102.7385366594 -0)
(-0 15102.7393681804 -0)
(-0 15102.7401951413 -0)
(-0 15102.7401965857 -0)
(-0 15102.7402057525 -0)
(-0 15102.7410341286 -0)
(-0 15102.7414467918 -0)
(-0 15102.7414528001 -0)
(-0 15102.740227649 -0)
(-0 15102.7398207415 -0)
(-0 15102.7406427717 -0)
(-0 15102.7402340801 -0)
(-0 15102.7402433606 -0)
(-0 15102.7410767603 -0)
(-0 15102.7419010627 -0)
(-0 15102.7418985424 -0)
(-0 15102.741084644 -0)
(-0 15102.7410935352 -0)
(-0 15102.7419174914 -0)
(-0 15102.7427450887 -0)
(-0 15102.7435727096 -0)
(-0 15102.7437847094 -0)
(-0 15102.7437967935 -0)
(-0 15102.7438052999 -0)
(-0 15102.74360533 -0)
(-0 15102.743611433 -0)
(-0 15102.7430007834 -0)
(-0 15102.7421845361 -0)
(-0 15102.7423964621 -0)
(-0 15102.7424050383 -0)
(-0 15102.7422093718 -0)
(-0 15102.7420114443 -0)
(-0 15102.741189958 -0)
(-0 15102.7409870876 -0)
(-0 15102.7411965691 -0)
(-0 15102.7411961383 -0)
(-0 15102.7420205211 -0)
(-0 15102.7426416166 -0)
(-0 15102.7426505065 -0)
(-0 15102.7436864162 -0)
(-0 15102.744306212 -0)
(-0 15102.7443129248 -0)
(-0 15102.7447326157 -0)
(-0 15102.7443242958 -0)
(-0 15102.7437088593 -0)
(-0 15102.7445339001 -0)
(-0 15102.7451606615 -0)
(-0 15102.7453776518 -0)
(-0 15102.7455868494 -0)
(-0 15102.7460020236 -0)
(-0 15102.7468274847 -0)
(-0 15102.7474489951 -0)
(-0 15102.748281561 -0)
(-0 15102.7484957373 -0)
(-0 15102.7476776116 -0)
(-0 15102.7468629737 -0)
(-0 15102.746662484 -0)
(-0 15102.7466654552 -0)
(-0 15102.7470868138 -0)
(-0 15102.7473001211 -0)
(-0 15102.7466892433 -0)
(-0 15102.7464871644 -0)
(-0 15102.7464858574 -0)
(-0 15102.7466959355 -0)
(-0 15102.7471156986 -0)
(-0 15102.7471233364 -0)
(-0 15102.7475422928 -0)
(-0 15102.7479608194 -0)
(-0 15102.7473508107 -0)
(-0 15102.7471512247 -0)
(-0 15102.7471569064 -0)
(-0 15102.7469573408 -0)
(-0 15102.7471665937 -0)
(-0 15102.7473758763 -0)
(-0 15102.7473797472 -0)
(-0 15102.7469712864 -0)
(-0 15102.7467710842 -0)
(-0 15102.7467797071 -0)
(-0 15102.7467873529 -0)
(-0 15102.7465888384 -0)
(-0 15102.7461881383 -0)
(-0 15102.745989963 -0)
(-0 15102.7457901575 -0)
(-0 15102.7457980647 -0)
(-0 15102.7462168652 -0)
(-0 15102.7460183138 -0)
(-0 15102.7456128362 -0)
(-0 15102.7454140679 -0)
(-0 15102.7454187769 -0)
(-0 15102.7456271391 -0)
(-0 15102.7458395587 -0)
(-0 15102.7462568525 -0)
(-0 15102.7462621958 -0)
(-0 15102.7464726179 -0)
(-0 15102.747095213 -0)
(-0 15102.7473055474 -0)
(-0 15102.74730722 -0)
(-0 15102.7473112911 -0)
(-0 15102.7475238371 -0)
(-0 15102.7475295744 -0)
(-0 15102.7473301521 -0)
(-0 15102.7473394598 -0)
(-0 15102.7473448666 -0)
(-0 15102.747141186 -0)
(-0 15102.7471459892 -0)
(-0 15102.7473587897 -0)
(-0 15102.7473641211 -0)
(-0 15102.7477798247 -0)
(-0 15102.7481992265 -0)
(-0 15102.7484136865 -0)
(-0 15102.7484198821 -0)
(-0 15102.7484273543 -0)
(-0 15102.7486392981 -0)
(-0 15102.7486451221 -0)
(-0 15102.7488572344 -0)
(-0 15102.7489644936 -0)
(-0 15102.74897111 -0)
(-0 15102.7490823853 -0)
(-0 15102.7492957886 -0)
(-0 15102.7495075611 -0)
(-0 15102.7493080693 -0)
(-0 15102.749006512 -0)
(-0 15102.7490131004 -0)
(-0 15102.7492270466 -0)
(-0 15102.7490302455 -0)
(-0 15102.7491392173 -0)
(-0 15102.7497623205 -0)
(-0 15102.7500785444 -0)
(-0 15102.750186015 -0)
(-0 15102.7502918117 -0)
(-0 15102.7505035187 -0)
(-0 15102.7505079732 -0)
(-0 15102.7507151102 -0)
(-0 15102.7509261709 -0)
(-0 15102.7507285713 -0)
(-0 15102.7507349406 -0)
(-0 15102.7508428106 -0)
(-0 15102.7510555641 -0)
(-0 15102.7512702072 -0)
(-0 15102.7511744446 -0)
(-0 15102.7512836645 -0)
(-0 15102.751394779 -0)
(-0 15102.7514036447 -0)
(-0 15102.75151385 -0)
(-0 15102.7515224298 -0)
(-0 15102.7515314157 -0)
(-0 15102.751537999 -0)
(-0 15102.7514423382 -0)
(-0 15102.7513467582 -0)
(-0 15102.7515579456 -0)
(-0 15102.7516668801 -0)
(-0 15102.7516749834 -0)
(-0 15102.7518884652 -0)
(-0 15102.7521006086 -0)
(-0 15102.7523127314 -0)
(-0 15102.7524231604 -0)
(-0 15102.7523275059 -0)
(-0 15102.7520269223 -0)
(-0 15102.7520347011 -0)
(-0 15102.7524531659 -0)
(-0 15102.7526671637 -0)
(-0 15102.7527767209 -0)
(-0 15102.752784499 -0)
(-0 15102.7527918447 -0)
(-0 15102.7527987933 -0)
(-0 15102.7527030981 -0)
(-0 15102.7529155112 -0)
(-0 15102.7532311388 -0)
(-0 15102.7532370201 -0)
(-0 15102.7530906915 -0)
(-0 15102.7529951684 -0)
(-0 15102.7530028082 -0)
(-0 15102.7531135412 -0)
(-0 15102.7532751855 -0)
(-0 15102.753283365 -0)
(-0 15102.753291074 -0)
(-0 15102.7532988432 -0)
(-0 15102.7532036344 -0)
(-0 15102.7531598203 -0)
(-0 15102.7531154569 -0)
(-0 15102.7531229902 -0)
(-0 15102.7530292389 -0)
(-0 15102.7529353883 -0)
(-0 15102.7529933757 -0)
(-0 15102.7529488439 -0)
(-0 15102.7529565115 -0)
(-0 15102.7530159008 -0)
(-0 15102.7529727137 -0)
(-0 15102.7529804779 -0)
(-0 15102.7529895627 -0)
(-0 15102.7529468146 -0)
(-0 15102.7529036812 -0)
(-0 15102.7529650418 -0)
(-0 15102.7529990091 -0)
(-0 15102.7529812254 -0)
(-0 15102.7529894525 -0)
(-0 15102.7530212129 -0)
(-0 15102.7531052829 -0)
(-0 15102.7531911721 -0)
(-0 15102.7531492496 -0)
(-0 15102.7530533979 -0)
(-0 15102.7530093349 -0)
(-0 15102.7529926107 -0)
(-0 15102.7530342407 -0)
(-0 15102.753068882 -0)
(-0 15102.753296721 -0)
(-0 22654.9084624325 -0)
)
;

boundaryField
{
    dielectric_2
    {
        type            calculated;
        value           nonuniform 0();
    }
    dielectric_1
    {
        type            calculated;
        value           nonuniform 0();
    }
    otherfaces
    {
        type            empty;
    }
    procBoundary0to1
    {
        type            processor;
        value           uniform (-0 22653.4382871167 -0);
    }
    procBoundary0to2
    {
        type            processor;
        value           uniform (-0 22654.9115665629 -0);
    }
}


// ************************************************************************* //
