/*--------------------------------*- C++ -*----------------------------------*\
| =========                 |                                                 |
| \\      /  F ield         | foam-extend: Open Source CFD                    |
|  \\    /   O peration     | Version:     4.0                                |
|   \\  /    A nd           | Web:         http://www.foam-extend.org         |
|    \\/     M anipulation  |                                                 |
\*---------------------------------------------------------------------------*/
FoamFile
{
    version     2.0;
    format      ascii;
    class       volScalarField;
    location    "1e-09";
    object      N_Arp1;
}
// * * * * * * * * * * * * * * * * * * * * * * * * * * * * * * * * * * * * * //

dimensions      [0 0 0 1 0 0 0];

internalField   nonuniform List<scalar> 
249
(
10089934755.9151
10106635218.7656
10041107140.2012
10026005964.0275
10023109709.5239
10022607299.0705
10022526816.6376
10022514730.7294
10022513008.1685
10022512771.7709
10022512745.5195
10022512750.8683
10022512752.7606
10022512749.7356
10022512749.9307
10022512753.9097
10022512755.8011
10022512748.6761
10022512744.092
10022512747.1152
10022512749.077
10022512750.7785
10022512751.3115
10022512753.9462
10022512756.8691
10022512754.188
10022512748.781
10022512744.0791
10022512745.1757
10022512752.6838
10022512757.5884
10022512750.9182
10022512742.6238
10022512746.8661
10022512754.5345
10022512749.7291
10022512736.7866
10022512734.6274
10022512741.5581
10022512745.1567
10022512745.2612
10022512742.3323
10022512738.167
10022512741.1063
10022512748.704
10022512747.5264
10022512741.4992
10022512743.87
10022512749.9799
10022512753.805
10022512753.0702
10022512746.6297
10022512743.2529
10022512745.3322
10022512749.0679
10022512747.8926
10022512741.3511
10022512739.5917
10022512740.3698
10022512737.5917
10022512737.4483
10022512743.0379
10022512749.6938
10022512752.7788
10022512752.7388
10022512750.5186
10022512744.7107
10022512740.9213
10022512742.274
10022512743.8551
10022512747.5242
10022512751.4625
10022512749.4565
10022512747.7937
10022512749.9091
10022512748.9815
10022512746.744
10022512744.4376
10022512741.0305
10022512742.5366
10022512742.7034
10022512741.8101
10022512748.3996
10022512752.7472
10022512751.0722
10022512747.3461
10022512742.6378
10022512743.1432
10022512745.9915
10022512746.8072
10022512745.043
10022512739.4393
10022512737.6439
10022512740.9346
10022512745.08
10022512749.8814
10022512751.1213
10022512749.5243
10022512749.7987
10022512746.9364
10022512742.6815
10022512745.0313
10022512748.8315
10022512749.9142
10022512750.4201
10022512749.5029
10022512747.9
10022512748.7649
10022512753.1012
10022512758.2839
10022512756.4233
10022512748.6585
10022512743.2051
10022512742.3388
10022512744.6264
10022512746.0067
10022512747.9747
10022512749.8029
10022512749.2521
10022512751.3427
10022512753.7072
10022512751.2522
10022512746.1493
10022512744.766
10022512748.0723
10022512748.517
10022512746.6634
10022512746.6658
10022512747.7753
10022512749.612
10022512750.6665
10022512749.3188
10022512745.3718
10022512743.0878
10022512741.873
10022512738.577
10022512739.5291
10022512745.7974
10022512750.5586
10022512750.4336
10022512746.9968
10022512745.0563
10022512745.1702
10022512745.5704
10022512746.7949
10022512746.8909
10022512745.2514
10022512744.1829
10022512744.968
10022512746.8686
10022512747.8758
10022512746.2159
10022512742.9661
10022512742.0149
10022512744.3389
10022512745.0298
10022512743.9522
10022512744.4996
10022512745.6815
10022512747.3819
10022512748.4025
10022512748.1159
10022512746.8259
10022512745.1954
10022512745.1885
10022512746.204
10022512746.2456
10022512745.4129
10022512745.3756
10022512747.1135
10022512747.6456
10022512745.6086
10022512744.5557
10022512743.8843
10022512743.7574
10022512745.3404
10022512745.4545
10022512744.4759
10022512744.3102
10022512743.5028
10022512744.0995
10022512747.2757
10022512748.707
10022512748.1031
10022512748.8632
10022512750.5488
10022512750.6528
10022512749.001
10022512748.6574
10022512749.992
10022512748.3245
10022512745.5875
10022512745.777
10022512747.0498
10022512747.4722
10022512745.592
10022512744.2169
10022512745.7552
10022512746.7901
10022512745.6359
10022512743.9201
10022512744.3106
10022512745.7646
10022512745.6684
10022512745.6747
10022512746.4736
10022512746.0192
10022512744.761
10022512745.0445
10022512746.3982
10022512747.6751
10022512748.7055
10022512748.6846
10022512747.4361
10022512746.5003
10022512747.0054
10022512746.9819
10022512745.9157
10022512745.2461
10022512745.0013
10022512745.5344
10022512746.5229
10022512747.2506
10022512746.9545
10022512746.2333
10022512746.487
10022512746.4525
10022512746.3965
10022512747.2087
10022512747.4924
10022512747.1983
10022512746.9903
10022512746.8128
10022512746.4749
10022512746.0943
10022512746.0888
10022512746.108
10022512745.7766
10022512743.638
10022512724.4539
10022512568.2281
10022511367.6102
10022502541.0715
10022440936.4211
10022037119.4866
10019584622.7656
10006036556.4373
9939693985.54294
9950885184.58204
)
;

boundaryField
{
    dielectric_2
    {
        type            driftDiffusionPositiveIonDensity;
        seec            0;
        value           nonuniform 0();
    }
    dielectric_1
    {
        type            driftDiffusionPositiveIonDensity;
        seec            0;
        value           nonuniform 0();
    }
    otherfaces
    {
        type            empty;
    }
    procBoundary0to1
    {
        type            processor;
        value           uniform 9950871097.40869;
    }
    procBoundary0to2
    {
        type            processor;
        value           uniform 10089962468.5673;
    }
}


// ************************************************************************* //
