/*--------------------------------*- C++ -*----------------------------------*\
| =========                 |                                                 |
| \\      /  F ield         | foam-extend: Open Source CFD                    |
|  \\    /   O peration     | Version:     4.0                                |
|   \\  /    A nd           | Web:         http://www.foam-extend.org         |
|    \\/     M anipulation  |                                                 |
\*---------------------------------------------------------------------------*/
FoamFile
{
    version     2.0;
    format      ascii;
    class       volScalarField;
    location    "1e-09";
    object      N_electron;
}
// * * * * * * * * * * * * * * * * * * * * * * * * * * * * * * * * * * * * * //

dimensions      [0 0 0 1 0 0 0];

internalField   nonuniform List<scalar> 
249
(
8841351995.80322
8826412013.75978
8822445300.14462
8819979741.70623
8817982757.36051
8816023932.80058
8814061389.77432
8812076369.10622
8810067346.49069
8808033558.39997
8805974970.57181
8803891566.25496
8801783358.17349
8799650357.46578
8797492576.83311
8795310029.84698
8793102728.66495
8790870686.38373
8788613915.42445
8786332426.85318
8784026232.80619
8781695345.20683
8779339775.32648
8776959534.60863
8774554634.76119
8772125086.5001
8769670899.48173
8767192082.33516
8764688643.88806
8762160594.09897
8759607941.55908
8757030694.68749
8754428832.90072
8751802269.82504
8749150835.94436
8746474375.37143
8743772824.81386
8741046176.36991
8738294442.72174
8735517635.20753
8732715766.58649
8729888848.95421
8727036894.56343
8724159916.37689
8721257927.38042
8718330940.90829
8715378970.0765
8712402026.22666
8709400121.09336
8706373267.55936
8703321479.19261
8700244768.18814
8697143144.12394
8694016618.43623
8690865203.29657
8687688908.88531
8684487745.70656
8681261725.70321
8678010861.50032
8674735164.07527
8671434642.76533
8668109307.64304
8664759169.52203
8661384239.73378
8657984529.68473
8654560050.03753
8651110811.3176
8647636823.7154
8644138097.76458
8640614644.41461
8637066472.98421
8633493592.72309
8629896013.97398
8626273746.75665
8622626801.44036
8618955187.74319
8615258914.27868
8611537990.3822
8607792424.9082
8604022226.66214
8600227405.82581
8596407971.20002
8592563931.05355
8588695294.5905
8584802068.95318
8580884259.29109
8576941868.05491
8572974890.11022
8568983309.23437
8564967092.65174
8560926195.43718
8556858335.16966
8552760672.20796
8548632645.04277
8544474299.13714
8540285682.29431
8536066843.76142
8531817831.66975
8527538692.13091
8523229470.61242
8518890212.30505
8514520962.37576
8510121766.8374
8505692670.68607
8501233717.47861
8496744950.54101
8492226412.76099
8487678147.25549
8483100196.62343
8478492602.70432
8473855408.32506
8469188633.19883
8464492214.08276
8459765995.5497
8455009610.73281
8450222757.81715
8445405357.51367
8440557384.20981
8435678884.83839
8430769905.35001
8425830491.57903
8420860689.38662
8415860544.38548
8410830101.37805
8405769404.66418
8400678498.26015
8395557425.412
8390406229.79959
8385224955.34995
8380013644.8774
8374772340.54229
8369501084.1824
8364199917.42149
8358868881.49267
8353508017.76538
8348117367.33617
8342696970.19277
8337246866.71819
8331767097.68476
8326257703.13642
8320718722.35217
8315150194.50938
8309552158.95882
8303924654.39115
8298267719.03271
8292581391.27116
8286865709.02937
8281120709.58099
8275346428.68533
8269542901.00411
8263710146.58897
8257848131.81473
8251956717.07842
8246035704.6056
8240084970.61157
8234104494.9503
8228094307.60547
8222054449.92179
8215984964.21053
8209885892.69007
8203757273.95382
8197599139.83667
8191411513.90001
8185194416.0518
8178947870.83612
8172671911.35637
8166366577.7128
8160031912.72273
8153667959.1832
8147274760.71509
8140852361.67202
8134400805.99948
8127920137.17029
8121410160.99354
8114867649.56712
8108289650.81354
8101676266.92878
8095027599.11018
8088343747.25816
8081624810.63913
8074870887.88415
8068082077.31227
8061258476.32234
8054400181.26382
8047507288.06681
8040579891.88923
8033618087.22967
8026621967.99364
8019591627.28642
8012527157.65561
8005428651.01491
7998296198.20592
7991129889.53294
7983929815.12103
7976696064.19855
7969428725.2895
7962127886.48933
7954793635.37059
7947426019.65032
7940024987.28901
7932590285.76655
7925121408.02377
7917617997.94882
7910079989.06665
7902507407.68425
7894900339.75908
7887258850.37742
7879582974.29464
7871872735.85296
7864128182.41857
7856349389.79679
7848536450.12968
7840689461.35654
7832808522.87159
7824893733.83112
7816945192.92705
7808962998.61773
7800947248.88144
7792898041.00839
7784815471.873
7776699637.79387
7768550634.5028
7760368557.23697
7752153500.83587
7743905559.69992
7735624827.50523
7727311397.57974
7718965362.88892
7710586815.78832
7702175848.35153
7693732552.21571
7685257018.48128
7676749337.93555
7668209600.96762
7659637897.41283
7651034316.7317
7642398948.10899
7633731879.48199
7625033194.7914
7616302969.39869
7607541206.37135
7598747767.8905
7589920001.14323
7581052542.33402
7572124894.26453
7563083906.98345
7553475397.6486
7541933311.89098
7517974765.87093
)
;

boundaryField
{
    dielectric_2
    {
        type            driftDiffusionElectronDensity;
        seec            0.05;
        Edepend         1;
        field_emission  0;
        field_enhancement_factor 1;
        work_function   1;
        value           nonuniform 0();
    }
    dielectric_1
    {
        type            driftDiffusionElectronDensity;
        seec            0.05;
        Edepend         1;
        field_emission  0;
        field_enhancement_factor 1;
        work_function   1;
        value           nonuniform 0();
    }
    otherfaces
    {
        type            empty;
    }
    procBoundary0to1
    {
        type            processor;
        value           uniform 8866331812.16623;
    }
    procBoundary0to2
    {
        type            processor;
        value           uniform 7483146376.97098;
    }
}


// ************************************************************************* //
