/*--------------------------------*- C++ -*----------------------------------*\
| =========                 |                                                 |
| \\      /  F ield         | foam-extend: Open Source CFD                    |
|  \\    /   O peration     | Version:     4.0                                |
|   \\  /    A nd           | Web:         http://www.foam-extend.org         |
|    \\/     M anipulation  |                                                 |
\*---------------------------------------------------------------------------*/
FoamFile
{
    version     2.0;
    format      ascii;
    class       volScalarField;
    location    "1e-09";
    object      Phi;
}
// * * * * * * * * * * * * * * * * * * * * * * * * * * * * * * * * * * * * * //

dimensions      [0 0 0 1 0 0 0];

internalField   nonuniform List<scalar> 
249
(
2.31852094566546
2.31550039965199
2.31247985370903
2.30945930743264
2.30643876132468
2.30341821488631
2.30039766877904
2.2973771226727
2.29435657689479
2.29133603111277
2.28831548549742
2.28529493971456
2.28227439409766
2.27925384831398
2.27623330219814
2.27321275624499
2.27019220996185
2.26717166367529
2.26415111755576
2.26113057110444
2.25811002481706
2.25508947836398
2.25206893207701
2.24904838562197
2.24602783949751
2.24300729337196
2.23998674740891
2.23696620128122
2.23394565482372
2.2309251082005
2.22790456141066
2.22488401478476
2.22186346832495
2.21884292136959
2.21582237441349
2.21280182778614
2.20978128115824
2.20676073436422
2.20374018740429
2.2007196404429
2.19769909331522
2.19467854602089
2.19165799839635
2.18863745060623
2.18561690264908
2.18259635452817
2.17957580657045
2.17655525844587
2.1735347101568
2.17051416186716
2.16749361357568
2.1644730657761
2.16145251764738
2.15843196951899
2.15541142155375
2.15239087342164
2.14937032512304
2.14634977666122
2.14332922836363
2.14030868022736
2.13728813192621
2.13426758346036
2.13124703482818
2.12822648603128
2.12520593731429
2.12218538851256
2.11916483979217
2.11614429107043
2.1131237423476
2.11010319387012
2.10708264547378
2.10406209691153
2.10104154851177
2.09802100002779
2.09500045170719
2.0919799035518
2.08895935531236
2.08593880707317
2.0829182588339
2.07989771026497
2.07687716177726
2.07385661320476
2.07083606430269
2.06781551548228
2.06479496657752
2.06177441758923
2.0587538688478
2.05573332010569
2.05271277103424
2.04969222204142
2.04667167288318
2.04365112380668
2.04063057448237
2.03761002507569
2.03458947550277
2.03156892576307
2.02854837610448
2.02552782669202
2.02250727735929
2.01948672802703
2.0164661786931
2.0134456291923
2.01042507977306
2.00740453051661
2.00438398117819
2.00136343192226
1.99834288249981
1.99532233307598
1.99230178365048
1.98928123405907
1.98626068446615
1.98324013511874
1.98021958560566
1.97719903625598
1.97417848682273
1.97115793738934
1.96813738787238
1.96511683843744
1.96209628908386
1.95907573972901
1.95605519037198
1.95303464101407
1.95001409173644
1.94699354253881
1.94397299334046
1.94095244422275
1.93793189502123
1.93491134573601
1.93189079661391
1.92887024749087
1.92584969844828
1.92282914932336
1.91980860019742
1.91678805098754
1.91376750169468
1.91074695248266
1.90772640310564
1.90470585364457
1.90168530418342
1.89866475472168
1.8956442052589
1.89262365571215
1.88960310624707
1.88658255678009
1.88356200731129
1.88054145784214
1.87752090845481
1.87450035898375
1.8714798095113
1.8684592600381
1.86543871039937
1.86241816075841
1.85939761103389
1.85637706139045
1.85335651166295
1.85033596193474
1.8473154122049
1.84429486239184
1.8412743126191
1.8382537628034
1.83523321298615
1.83221266308508
1.82919211318312
1.82617156336186
1.82315101358052
1.82013046375662
1.8171099138897
1.81408936414452
1.81106881423401
1.80804826423959
1.8050277142026
1.80200716416518
1.79898661408587
1.79596606396377
1.79294551388268
1.78992496367773
1.78690441351221
1.7838838633863
1.78086331321824
1.77784276304918
1.77482221279601
1.7718016625411
1.76878111232623
1.76576056202763
1.76274001176832
1.75971946146617
1.75669891116278
1.7536783608572
1.75065781055022
1.747637260242
1.74461670997328
1.7415961597033
1.7385756093501
1.73555505903655
1.73253450868011
1.72951395828116
1.72649340783987
1.72347285735607
1.7204523068706
1.71743175642506
1.71441120605983
1.71139065561118
1.70837010507857
1.70534955454432
1.70232900396788
1.69930845343052
1.69628790285114
1.693267352311
1.6902468017699
1.6872262511448
1.68420570047745
1.68118514984999
1.67816459924117
1.67514404865192
1.67212349804005
1.6691029474065
1.66608239672997
1.66306184609316
1.66004129541354
1.65702074477362
1.65400019413209
1.65097964350969
1.64795909288591
1.6449385422605
1.64191799167421
1.63889744108634
1.63587689047686
1.6328563399068
1.62983578929426
1.62681523870044
1.62379468810517
1.62077413750825
1.61775358690935
1.61473303632953
1.61171248574787
1.60869193514351
1.60567138454827
1.60265083395102
1.59963028335249
1.59660973274253
1.59358918211038
1.59056863146607
1.58754808085067
1.58452753024471
1.58150697964694
1.57848642904766
1.57546587843324
1.57244532782011
1.56942477711456
)
;

boundaryField
{
    dielectric_2
    {
        type            coupledPotential;
        surfaceCharge   true;
        remoteField     Phi;
        value           nonuniform 0();
    }
    dielectric_1
    {
        type            coupledPotential;
        surfaceCharge   true;
        remoteField     Phi;
        value           nonuniform 0();
    }
    otherfaces
    {
        type            empty;
    }
    procBoundary0to1
    {
        type            processor;
        value           uniform 2.32154143233181;
    }
    procBoundary0to2
    {
        type            processor;
        value           uniform 1.56640407077485;
    }
}


// ************************************************************************* //
