/*--------------------------------*- C++ -*----------------------------------*\
| =========                 |                                                 |
| \\      /  F ield         | foam-extend: Open Source CFD                    |
|  \\    /   O peration     | Version:     4.0                                |
|   \\  /    A nd           | Web:         http://www.foam-extend.org         |
|    \\/     M anipulation  |                                                 |
\*---------------------------------------------------------------------------*/
FoamFile
{
    version     2.0;
    format      ascii;
    class       volScalarField;
    location    "1e-09";
    object      Te;
}
// * * * * * * * * * * * * * * * * * * * * * * * * * * * * * * * * * * * * * //

dimensions      [0 0 0 1 0 0 0];

internalField   nonuniform List<scalar> 
249
(
8379.83400379642
8379.40990230935
8375.98108323618
8370.64216534472
8365.16978179291
8359.59713545845
8354.00646003745
8348.39827504452
8342.77627966519
8337.14046283296
8331.49100755513
8325.82793475929
8320.15127706206
8314.46105938843
8308.75730775628
8303.04004871221
8297.30930769969
8291.5651111786
8285.80748541444
8280.03645585988
8274.25204890872
8268.45429081046
8262.64320750703
8256.81882518209
8250.98117037367
8245.13026925111
8239.26614783796
8233.38883180196
8227.4983469474
8221.59471997721
8215.67797696128
8209.74815249038
8203.80528440786
8197.84941895172
8191.88060990828
8185.89891073283
8179.90436666054
8173.89701357405
8167.87688373605
8161.84400221573
8155.79839527347
8149.74008851718
8143.66910765492
8137.58547876105
8131.48922768118
8125.38038047643
8119.25896338942
8113.12500161421
8106.97852062522
8100.8195463328
8094.64810509351
8088.46422285226
8082.26792396471
8076.059234177
8069.83817964812
8063.60478514838
8057.35907573232
8051.10107711609
8044.83081541599
8038.54831593594
8032.25360317796
8025.94670218657
8019.62763814815
8013.29643636821
8006.95312223084
8000.59772069648
7994.23025683629
7987.85075548441
7981.45924161699
7975.05574061675
7968.64027681381
7962.21287454655
7955.77355882401
7949.32235419576
7942.85928554738
7936.38437748053
7929.89765392254
7923.39913947562
7916.88885831279
7910.36683436308
7903.83309254045
7897.28765680736
7890.73055096083
7884.1618000538
7877.58142884885
7870.98946293522
7864.38592938023
7857.77085566308
7851.14427400456
7844.50622528051
7837.85716864756
7831.19696244501
7824.52527055658
7817.84245993163
7811.14866616061
7804.44391341886
7797.72822663908
7791.00163045225
7784.26414892446
7777.51580642939
7770.75662756556
7763.98663705579
7757.205860505
7750.41432328233
7743.6120504066
7736.79906733925
7729.97539952494
7723.14107293306
7716.29611353246
7709.44054696611
7702.57440402622
7695.69771790972
7688.81051738871
7681.91297253062
7675.00537557507
7668.08797962503
7661.16088298863
7654.22409174604
7647.27764279165
7640.32155928416
7633.35586457106
7626.38058217595
7619.39573574401
7612.40134869752
7605.39744442881
7598.38404645702
7591.36117792396
7584.32886239078
7577.28712375704
7570.23598543288
7563.17547077142
7556.10560316787
7549.02640611948
7541.93790300194
7534.84011743127
7527.73307309771
7520.6167930967
7513.49130088869
7506.35662023392
7499.21277461091
7492.05978729205
7484.89768166145
7477.72648137427
7470.54620979661
7463.35689014981
7456.15854593973
7448.9512005368
7441.73487733943
7434.50959924483
7427.27539304104
7420.0322928815
7412.78034511834
7405.51961164275
7398.25016087504
7390.97205268256
7383.68533092372
7376.39002802425
7369.0861682924
7361.77377330958
7354.45286555889
7347.12346823114
7339.78560635203
7332.43930727325
7325.08459921135
7317.72150867357
7310.3500596562
7302.97027473618
7295.58217533042
7288.18578169606
7280.78111423503
7273.36819358841
7265.9470400627
7258.51771676326
7251.08077737557
7243.63601992265
7236.18330217755
7228.72319533117
7221.25571687784
7213.78088427527
7206.29871534426
7198.80922809871
7191.31244102712
7183.80837269996
7176.2970416996
7168.77846706272
7161.25266792394
7153.7196636241
7146.17947377729
7138.63211809487
7131.07761654735
7123.51598934698
7115.94725663337
7108.37143877298
7100.7885565713
7093.19863077551
7085.6016822636
7077.99773218449
7070.38680895343
7062.76893742186
7055.14416698262
7047.51270434267
7039.87487007907
7032.23091745645
7024.58093135974
7016.92492199468
7009.2629233532
7001.59496438258
6993.92108386052
6986.24132335186
6978.55571709841
6970.8642897757
6963.1670604237
6955.4640455442
6947.75526100908
6940.04072238662
6932.32044515755
6924.59444494731
6916.86273738782
6909.12533799493
6901.38226237873
6893.63352611904
6885.87914474924
6878.11913379585
6870.35350882515
6862.58228545455
6854.80547912564
6847.02310535799
6839.23517972158
6831.4417176374
6823.64273462628
6815.83824618327
6808.02826770468
6800.212814641
6792.39190243539
6784.56554641734
6776.73376191131
6768.89656443137
6761.05396964265
6753.20599362097
6745.35266713703
6737.49402765103
6729.63058108181
6721.76273309615
6713.89382296908
6706.02697351606
6698.23966884035
6690.62315595207
6684.9183653378
6683.71256978208
)
;

boundaryField
{
    dielectric_2
    {
        type            electronTemperature;
        seec            0.05;
        Tse             1000;
        Edepend         1;
        TFN             1000;
        field_emission  0;
        field_enhancement_factor 1;
        work_function   1;
        value           nonuniform 0();
    }
    dielectric_1
    {
        type            electronTemperature;
        seec            0.05;
        Tse             1000;
        Edepend         1;
        TFN             1000;
        field_emission  0;
        field_enhancement_factor 1;
        work_function   1;
        value           nonuniform 0();
    }
    otherfaces
    {
        type            empty;
    }
    procBoundary0to1
    {
        type            processor;
        value           uniform 8379.14033626352;
    }
    procBoundary0to2
    {
        type            processor;
        value           uniform 6685.29264256287;
    }
}


// ************************************************************************* //
