/*--------------------------------*- C++ -*----------------------------------*\
| =========                 |                                                 |
| \\      /  F ield         | foam-extend: Open Source CFD                    |
|  \\    /   O peration     | Version:     4.0                                |
|   \\  /    A nd           | Web:         http://www.foam-extend.org         |
|    \\/     M anipulation  |                                                 |
\*---------------------------------------------------------------------------*/
FoamFile
{
    version     2.0;
    format      ascii;
    class       volScalarField;
    location    "5e-06";
    object      Ar;
}
// * * * * * * * * * * * * * * * * * * * * * * * * * * * * * * * * * * * * * //

dimensions      [0 0 0 1 0 0 0];

internalField   nonuniform List<scalar> 
300
(
3.21880311266032e+22
3.21880310842797e+22
3.21880311117055e+22
3.21880311220905e+22
3.21880311401029e+22
3.21880311652339e+22
3.21880311958969e+22
3.21880312327082e+22
3.21880312755476e+22
3.218803132438e+22
3.21880313792062e+22
3.21880314400111e+22
3.21880315067855e+22
3.21880315795219e+22
3.21880316582136e+22
3.21880317428553e+22
3.21880318334454e+22
3.21880319299786e+22
3.21880320324503e+22
3.21880321408578e+22
3.21880322551989e+22
3.21880323754718e+22
3.21880325016755e+22
3.21880326338091e+22
3.21880327718885e+22
3.21880329159014e+22
3.21880330658496e+22
3.21880332217373e+22
3.21880333835573e+22
3.21880335513116e+22
3.21880337250211e+22
3.21880339046823e+22
3.21880340902852e+22
3.21880342818331e+22
3.21880344793301e+22
3.21880346827812e+22
3.21880348921963e+22
3.21880351075798e+22
3.21880353289361e+22
3.21880355562745e+22
3.21880357896055e+22
3.21880360289373e+22
3.21880362742753e+22
3.21880365256228e+22
3.21880367830068e+22
3.21880370464452e+22
3.21880373159569e+22
3.21880375915619e+22
3.21880378732903e+22
3.21880381611667e+22
3.21880384552276e+22
3.21880387554854e+22
3.21880390619711e+22
3.21880393746934e+22
3.21880396936715e+22
3.21880400189174e+22
3.21880403504568e+22
3.2188040688317e+22
3.21880410325264e+22
3.21880413831164e+22
3.21880417401158e+22
3.21880421035563e+22
3.21880424734759e+22
3.21880428499285e+22
3.21880432329466e+22
3.21880436225425e+22
3.21880440187526e+22
3.21880444216145e+22
3.2188044831167e+22
3.21880452474502e+22
3.21880456705071e+22
3.21880461003879e+22
3.2188046537138e+22
3.21880469807946e+22
3.21880474314168e+22
3.21880478890497e+22
3.2188048353734e+22
3.21880488255213e+22
3.21880493044401e+22
3.21880497905697e+22
3.21880502839249e+22
3.21880507845536e+22
3.21880512925092e+22
3.21880518078404e+22
3.2188052330613e+22
3.2188052860871e+22
3.21880533986541e+22
3.21880539440141e+22
3.21880544970149e+22
3.21880550577008e+22
3.218805562613e+22
3.21880562023995e+22
3.21880567865059e+22
3.21880573784992e+22
3.21880579784307e+22
3.21880585863516e+22
3.21880592023124e+22
3.21880598263639e+22
3.21880604585663e+22
3.21880610989686e+22
3.21880617476127e+22
3.21880624045444e+22
3.21880630698419e+22
3.21880637435215e+22
3.21880644256366e+22
3.21880651162399e+22
3.21880658153583e+22
3.21880665230523e+22
3.21880672393507e+22
3.2188067964286e+22
3.21880686978968e+22
3.21880694402201e+22
3.21880701912969e+22
3.21880709511611e+22
3.21880717198447e+22
3.21880724973934e+22
3.21880732838523e+22
3.21880740792208e+22
3.21880748835201e+22
3.21880756967788e+22
3.21880765190414e+22
3.2188077350311e+22
3.21880781906306e+22
3.21880790400016e+22
3.21880798984224e+22
3.21880807659024e+22
3.21880816424753e+22
3.21880825281264e+22
3.21880834228676e+22
3.21880843266995e+22
3.21880852396341e+22
3.21880861616695e+22
3.21880870928027e+22
3.21880880330495e+22
3.21880889824341e+22
3.21880899409232e+22
3.21880909084959e+22
3.21880918851581e+22
3.21880928709105e+22
3.21880938657174e+22
3.21880948695612e+22
3.21880958824705e+22
3.2188096904412e+22
3.21880979353205e+22
3.21880989752718e+22
3.21881000242129e+22
3.21881010821222e+22
3.21881021489816e+22
3.21881032247835e+22
3.21881043095326e+22
3.2188105403176e+22
3.21881065056732e+22
3.21881076170427e+22
3.21881087372168e+22
3.2188109866083e+22
3.21881110037773e+22
3.21881121498609e+22
3.21881133048325e+22
3.2188114467773e+22
3.2188115639262e+22
3.21881168190691e+22
3.21881180055357e+22
3.21881192036964e+22
3.218812039934e+22
3.2188121593677e+22
3.21881228036095e+22
3.21881240217068e+22
3.21881252471384e+22
3.21881264751425e+22
3.21881277012201e+22
3.21881289321166e+22
3.2188130152647e+22
3.21881313803969e+22
3.21881326370314e+22
3.21881338617829e+22
3.21881350612031e+22
3.21881362874498e+22
3.21881374903884e+22
3.21881386386209e+22
3.21881397985502e+22
3.21881409244578e+22
3.21881419661425e+22
3.21881430085535e+22
3.21881439845367e+22
3.21881448709934e+22
3.21881457155187e+22
3.21881465061595e+22
3.21881471776644e+22
3.21881477986524e+22
3.21881483598419e+22
3.21881488466772e+22
3.2188149230099e+22
3.21881495875443e+22
3.21881498838773e+22
3.21881501084152e+22
3.2188150219057e+22
3.21881502891989e+22
3.21881503349641e+22
3.2188150393961e+22
3.21881504128355e+22
3.21881504208283e+22
3.21881504341905e+22
3.2188150433662e+22
3.21881504771765e+22
3.21881505325586e+22
3.21881506022164e+22
3.21881506697098e+22
3.21881507329228e+22
3.21881507894955e+22
3.21881508404994e+22
3.21881508857327e+22
3.21881509260195e+22
3.21881509711698e+22
3.21881510256202e+22
3.21881510749943e+22
3.21881511211948e+22
3.21881511629151e+22
3.21881512023902e+22
3.21881512378775e+22
3.21881512718931e+22
3.21881513021645e+22
3.21881513315984e+22
3.2188151357672e+22
3.21881513834587e+22
3.2188151409663e+22
3.21881514473449e+22
3.21881514813978e+22
3.21881515159318e+22
3.21881515469491e+22
3.21881515786638e+22
3.21881516069095e+22
3.2188151636066e+22
3.21881516617691e+22
3.21881516886002e+22
3.21881517119811e+22
3.21881517366767e+22
3.21881517579097e+22
3.21881517806405e+22
3.21881517998627e+22
3.2188151820769e+22
3.21881518380849e+22
3.21881518572444e+22
3.21881518827407e+22
3.21881519098609e+22
3.21881519335828e+22
3.21881519590827e+22
3.21881519811692e+22
3.2188152005197e+22
3.21881520257695e+22
3.21881520484459e+22
3.21881520676142e+22
3.21881520890291e+22
3.21881521068987e+22
3.21881521271672e+22
3.21881521438285e+22
3.21881521630431e+22
3.21881521785766e+22
3.21881521968069e+22
3.21881522112531e+22
3.21881522285075e+22
3.21881522418793e+22
3.21881522581784e+22
3.2188152270507e+22
3.21881522858916e+22
3.21881522972359e+22
3.21881523117783e+22
3.21881523261393e+22
3.21881523461123e+22
3.21881523619772e+22
3.21881523811598e+22
3.21881523961415e+22
3.21881524145598e+22
3.21881524286891e+22
3.21881524463758e+22
3.21881524596979e+22
3.21881524767031e+22
3.21881524892721e+22
3.21881525056339e+22
3.21881525174954e+22
3.2188152533246e+22
3.21881525444448e+22
3.2188152559648e+22
3.21881525703952e+22
3.21881525852358e+22
3.21881525953875e+22
3.21881526096913e+22
3.21881526192144e+22
3.21881526329787e+22
3.21881526418828e+22
3.21881526554557e+22
3.21881526641666e+22
3.21881526773476e+22
3.21881526854984e+22
3.21881526986745e+22
3.21881527068308e+22
3.21881527198634e+22
3.21881527281737e+22
3.21881527417111e+22
3.21881527506137e+22
3.21881527678674e+22
)
;

boundaryField
{
    electrode
    {
        type            zeroGradient;
    }
    ground
    {
        type            zeroGradient;
    }
    otherfaces
    {
        type            empty;
    }
}


// ************************************************************************* //
