/*--------------------------------*- C++ -*----------------------------------*\
| =========                 |                                                 |
| \\      /  F ield         | foam-extend: Open Source CFD                    |
|  \\    /   O peration     | Version:     4.0                                |
|   \\  /    A nd           | Web:         http://www.foam-extend.org         |
|    \\/     M anipulation  |                                                 |
\*---------------------------------------------------------------------------*/
FoamFile
{
    version     2.0;
    format      ascii;
    class       volScalarField;
    location    "5e-06";
    object      Arm;
}
// * * * * * * * * * * * * * * * * * * * * * * * * * * * * * * * * * * * * * //

dimensions      [0 0 0 1 0 0 0];

internalField   nonuniform List<scalar> 
300
(
3.57413534595811e+15
3.57601209890657e+15
3.57796069217605e+15
3.5792667059605e+15
3.58008293930641e+15
3.58046147320537e+15
3.58044651374928e+15
3.58006950015633e+15
3.57935609108477e+15
3.57832827038329e+15
3.57700181247739e+15
3.57539080345065e+15
3.57350729656444e+15
3.57136189445479e+15
3.56896405417698e+15
3.56632232049956e+15
3.563441516775e+15
3.56033022968023e+15
3.5569968006839e+15
3.55344770928091e+15
3.54968915693e+15
3.54572706531478e+15
3.54156712445843e+15
3.53721478153345e+15
3.53265936155304e+15
3.52791860166591e+15
3.52299620535148e+15
3.51789418807611e+15
3.51262614231571e+15
3.50719694919314e+15
3.5015928500905e+15
3.49582521930205e+15
3.48991216339649e+15
3.48385906556603e+15
3.47767101206779e+15
3.4713528044193e+15
3.46490461655433e+15
3.45833296466687e+15
3.45164491775531e+15
3.44484401125609e+15
3.43793374883634e+15
3.4309194067077e+15
3.42380486578077e+15
3.41659381763684e+15
3.4092897624675e+15
3.40189596397527e+15
3.39441336680511e+15
3.38684341920827e+15
3.37917835776731e+15
3.37141677243581e+15
3.36354605984392e+15
3.35557872534603e+15
3.34750937540362e+15
3.33935572927955e+15
3.33112592025624e+15
3.32283631940517e+15
3.31449022758766e+15
3.30609056095578e+15
3.29763989157542e+15
3.28913863736645e+15
3.28059111381869e+15
3.27199943209738e+15
3.26336024733294e+15
3.25465559589841e+15
3.24588945607725e+15
3.23708741462568e+15
3.22825156447692e+15
3.21938374537072e+15
3.21048554313976e+15
3.20155831737412e+15
3.19260122263827e+15
3.18360710736471e+15
3.17457443455927e+15
3.16551065114785e+15
3.15640221327362e+15
3.14725018003855e+15
3.13806089558549e+15
3.12883022837414e+15
3.11957816145581e+15
3.1102741291973e+15
3.10095272298726e+15
3.09161606781105e+15
3.08226107905192e+15
3.07289001833601e+15
3.0634880641412e+15
3.05406295926502e+15
3.04462641008487e+15
3.03517873696637e+15
3.02570802769972e+15
3.01622203834628e+15
3.00671475541007e+15
2.99714111643199e+15
2.98755640267836e+15
2.97796224970754e+15
2.96835868637738e+15
2.95874573883095e+15
2.94912318876476e+15
2.93949060414806e+15
2.92983704761754e+15
2.92016245836729e+15
2.91047310023116e+15
2.90077025469001e+15
2.89102215078648e+15
2.88125802174226e+15
2.87146864581927e+15
2.86164467634574e+15
2.85180114031494e+15
2.84191842035163e+15
2.83200694309096e+15
2.82207216037527e+15
2.81211220165859e+15
2.80212478076368e+15
2.7921021564299e+15
2.78204211677755e+15
2.77194244219017e+15
2.76178547953271e+15
2.75155233921275e+15
2.74126782559366e+15
2.73093281104075e+15
2.72053921643429e+15
2.71006064940122e+15
2.69951007769147e+15
2.68885850729083e+15
2.67811633501535e+15
2.66729499283098e+15
2.65639228078421e+15
2.64538008265884e+15
2.63427583842995e+15
2.62306871792811e+15
2.61175668156835e+15
2.60032408441487e+15
2.58876705734325e+15
2.57708060375496e+15
2.56523863592529e+15
2.55320468561576e+15
2.54099761256503e+15
2.52862134101656e+15
2.51605082553234e+15
2.5032672063977e+15
2.49027960812491e+15
2.47707204224476e+15
2.4636278545622e+15
2.44991489895631e+15
2.43590107626064e+15
2.42156177130474e+15
2.40691678918373e+15
2.39195126048882e+15
2.37664882211433e+15
2.36097893699659e+15
2.34489271007592e+15
2.32840257712191e+15
2.31148378994368e+15
2.29407407459345e+15
2.27617224814622e+15
2.25776005508281e+15
2.23878776375461e+15
2.21921212137967e+15
2.19903258015579e+15
2.17822999495468e+15
2.1567594033907e+15
2.13458519844809e+15
2.1116922916358e+15
2.08804242580717e+15
2.06364814920153e+15
2.03849646808012e+15
2.01253280583086e+15
1.98577798688918e+15
1.95827658260609e+15
1.93005755902906e+15
1.90116288463052e+15
1.87166116523618e+15
1.84158572184996e+15
1.81102893617966e+15
1.7801623232867e+15
1.74917983397759e+15
1.71825131416483e+15
1.68755594881324e+15
1.65729273625751e+15
1.62770048576943e+15
1.59893476300264e+15
1.57114984577111e+15
1.54449278074169e+15
1.51904491593265e+15
1.49492104798132e+15
1.47212103162779e+15
1.45055461554716e+15
1.43026158183239e+15
1.41119123848301e+15
1.39325738024926e+15
1.37637836857268e+15
1.36045748998744e+15
1.34553784263172e+15
1.33208249981289e+15
1.32507655458723e+15
1.35056163875461e+15
1.41517148154415e+15
1.49118077580137e+15
1.54604088384387e+15
1.5796126854773e+15
1.59730335977632e+15
1.59705683766067e+15
1.57875414658325e+15
1.54941356296566e+15
1.51660157794082e+15
1.4864243838124e+15
1.46216950844286e+15
1.44354864019124e+15
1.4302049504931e+15
1.42092131885637e+15
1.41438733094179e+15
1.40925777766454e+15
1.40504077807531e+15
1.4015396368337e+15
1.39807553681142e+15
1.3946206878518e+15
1.39119307000902e+15
1.38761767628924e+15
1.38382612463915e+15
1.37974250886568e+15
1.37533006009559e+15
1.37058004952794e+15
1.36541574639103e+15
1.35974088668998e+15
1.35357483296485e+15
1.34700944633455e+15
1.34020661615362e+15
1.33320849902373e+15
1.32603579683834e+15
1.31872411079986e+15
1.31131417496573e+15
1.30382322773896e+15
1.29628332169044e+15
1.2887302072657e+15
1.28118160257495e+15
1.27365735226354e+15
1.2661925318534e+15
1.25878778939971e+15
1.25147680047725e+15
1.24426113652468e+15
1.23716236118786e+15
1.2301902982609e+15
1.22334502501176e+15
1.21664776138644e+15
1.21008940745673e+15
1.2036798545321e+15
1.19743726856135e+15
1.19134955011646e+15
1.18542521979586e+15
1.17966688315207e+15
1.17406609512728e+15
1.16862910344937e+15
1.16335081819394e+15
1.1582271907162e+15
1.15326203016826e+15
1.14844724589566e+15
1.14378066725598e+15
1.13926069130715e+15
1.13487175596524e+15
1.13062238212416e+15
1.12650466805807e+15
1.12252413965271e+15
1.11866794674994e+15
1.11493867322898e+15
1.11132783068052e+15
1.10783293583618e+15
1.10445002710166e+15
1.10117126652524e+15
1.09799330925723e+15
1.09490535023617e+15
1.09191309867277e+15
1.08900880954643e+15
1.08619801169579e+15
1.08346778888848e+15
1.08082401275404e+15
1.07825468818169e+15
1.07575842698964e+15
1.07333353403266e+15
1.07098001848011e+15
1.06869983551096e+15
1.06648656256933e+15
1.06433896659646e+15
1.06221665230524e+15
1.05999311841925e+15
1.05778650570836e+15
1.05563490096697e+15
1.05352889786424e+15
1.05147645386685e+15
1.04947901826514e+15
1.04752612136822e+15
1.04530903293431e+15
1.04306743955083e+15
1.04088211781715e+15
1.03875590623412e+15
1.03623924822533e+15
1.0337202281265e+15
1.03106886671112e+15
1.02805937983545e+15
1.02469891533732e+15
1.02084288041471e+15
1.01616943938282e+15
)
;

boundaryField
{
    electrode
    {
        type            zeroGradient;
    }
    ground
    {
        type            zeroGradient;
    }
    otherfaces
    {
        type            empty;
    }
}


// ************************************************************************* //
