/*--------------------------------*- C++ -*----------------------------------*\
| =========                 |                                                 |
| \\      /  F ield         | foam-extend: Open Source CFD                    |
|  \\    /   O peration     | Version:     4.0                                |
|   \\  /    A nd           | Web:         http://www.foam-extend.org         |
|    \\/     M anipulation  |                                                 |
\*---------------------------------------------------------------------------*/
FoamFile
{
    version     2.0;
    format      ascii;
    class       volScalarField;
    location    "5e-06";
    object      Arp1;
}
// * * * * * * * * * * * * * * * * * * * * * * * * * * * * * * * * * * * * * //

dimensions      [0 0 0 1 0 0 0];

internalField   nonuniform List<scalar> 
300
(
6.11335511551127e+16
6.11755095729632e+16
6.11501442068812e+16
6.11453366662994e+16
6.11362079658826e+16
6.11232370885061e+16
6.11079707227969e+16
6.10897608872529e+16
6.10687037391501e+16
6.10448136702436e+16
6.10180753983341e+16
6.09884912879304e+16
6.09560598124353e+16
6.09207793396001e+16
6.08826485122456e+16
6.08416657912127e+16
6.07978295768586e+16
6.07511381920747e+16
6.07015898675862e+16
6.0649182737031e+16
6.05939148272976e+16
6.05357840499067e+16
6.04747881916335e+16
6.04109249045304e+16
6.03441916961966e+16
6.02745859196472e+16
6.02021047621919e+16
6.01267452350804e+16
6.00485041625304e+16
5.9967378170162e+16
5.98833636741988e+16
5.97964568702256e+16
5.97066537196171e+16
5.96139499325545e+16
5.95183409548463e+16
5.94198219754872e+16
5.9318387978236e+16
5.92140337289412e+16
5.91067534881802e+16
5.89965405896377e+16
5.88833874400931e+16
5.87672872853053e+16
5.86482379826991e+16
5.85262406430962e+16
5.84012740757155e+16
5.82733270707733e+16
5.81423902809807e+16
5.80084531711177e+16
5.78715046927724e+16
5.77315333698229e+16
5.75885273170849e+16
5.74424742393126e+16
5.72933614229251e+16
5.71411757262321e+16
5.69859035705161e+16
5.68275309318861e+16
5.66660433335957e+16
5.65014258397707e+16
5.63336630505614e+16
5.61627390974008e+16
5.59886376403338e+16
5.58113418663016e+16
5.56308344879164e+16
5.54470977442798e+16
5.5260113402753e+16
5.50698627613761e+16
5.48763266533388e+16
5.46794854524256e+16
5.44793190792219e+16
5.42758070092891e+16
5.40689282825286e+16
5.38586615132059e+16
5.36449849020283e+16
5.34278762493967e+16
5.32073129693184e+16
5.29832721055465e+16
5.27557303485993e+16
5.25246640538453e+16
5.22900492612578e+16
5.20518617166099e+16
5.181007689339e+16
5.15646700163171e+16
5.13156160864347e+16
5.10628899067384e+16
5.0806466109453e+16
5.05463191847125e+16
5.02824235097551e+16
5.00147533797209e+16
4.97432830396293e+16
4.94679867168466e+16
4.91888386550665e+16
4.89058131492343e+16
4.86188845810695e+16
4.83280274554688e+16
4.80332164382592e+16
4.77344263938772e+16
4.74316324242357e+16
4.71248099082674e+16
4.681393454149e+16
4.6498982376452e+16
4.61799298636492e+16
4.58567538923214e+16
4.55294318316043e+16
4.51979415722681e+16
4.4862261567865e+16
4.45223708760429e+16
4.41782492001321e+16
4.38298769300014e+16
4.34772351826621e+16
4.31203058430489e+16
4.27590716036345e+16
4.23935160037428e+16
4.20236234686179e+16
4.16493793472289e+16
4.12707699495119e+16
4.08877825831645e+16
4.05004055890594e+16
4.01086283759466e+16
3.97124414546183e+16
3.93118364705375e+16
3.89068062360923e+16
3.84973447619408e+16
3.80834472873419e+16
3.76651103101332e+16
3.72423316162875e+16
3.68151103086018e+16
3.63834468373321e+16
3.59473430263133e+16
3.55068021044449e+16
3.50618287588292e+16
3.46124290738691e+16
3.41586108025556e+16
3.37003829871002e+16
3.32377565722942e+16
3.27707438696111e+16
3.22993589397231e+16
3.182361793121e+16
3.13435388973216e+16
3.08591388817156e+16
3.03704428940413e+16
2.98774833431251e+16
2.93802471726837e+16
2.88787987928123e+16
2.83732362174369e+16
2.78635116692233e+16
2.73496636204434e+16
2.68317350785846e+16
2.63097682043111e+16
2.57838101989728e+16
2.52539162809113e+16
2.47201395618416e+16
2.41825605221533e+16
2.36412403143062e+16
2.30962680009666e+16
2.25477978247255e+16
2.19957698701628e+16
2.14406966700368e+16
2.0882113802083e+16
2.03209972237017e+16
1.97568554181661e+16
1.91900006534448e+16
1.86221652077667e+16
1.80484259795741e+16
1.74831371000807e+16
1.69254849604924e+16
1.63591497820405e+16
1.5791981936547e+16
1.52250851226579e+16
1.46634734690492e+16
1.41119265899617e+16
1.35639825001334e+16
1.30351064935339e+16
1.25077667467094e+16
1.19597450676507e+16
1.14506612971645e+16
1.09725333351108e+16
1.0471185529006e+16
9.99374002472254e+15
9.56778042552736e+15
9.1224504027567e+15
8.69803877542235e+15
8.33867767098463e+15
7.95305460942458e+15
7.60163650040061e+15
7.30119578476588e+15
6.99862716846607e+15
6.70120568317635e+15
6.47099173583085e+15
6.23792399236302e+15
6.01153419194745e+15
5.80828366584714e+15
5.66046816121489e+15
5.49482264660154e+15
5.34682060835485e+15
5.20643164118322e+15
5.11470299359002e+15
5.03129311143313e+15
4.97762277313729e+15
4.92101852031844e+15
4.91100883164319e+15
4.92221272875101e+15
4.94090072217543e+15
4.9803832266346e+15
4.97592352566554e+15
4.95446271581117e+15
4.91117723524455e+15
4.86347596877139e+15
4.81425973339733e+15
4.76734360783658e+15
4.72309215149059e+15
4.68311843245341e+15
4.64712635572757e+15
4.60552321212e+15
4.55456321308849e+15
4.50865797876017e+15
4.4658916930231e+15
4.42774911431903e+15
4.39206582621708e+15
4.36066165346297e+15
4.33105812228908e+15
4.30553716194011e+15
4.28126936439541e+15
4.26087392136936e+15
4.2412582228049e+15
4.22162609718952e+15
4.19075563231101e+15
4.16371105031862e+15
4.13636162565652e+15
4.11266930621701e+15
4.08837928976359e+15
4.06764052074092e+15
4.04604107834414e+15
4.02790907894217e+15
4.00864551336124e+15
3.99280843445027e+15
3.97559784429772e+15
3.96179021976166e+15
3.94639138393544e+15
3.9344059322058e+15
3.92061971001398e+15
3.91029715466906e+15
3.89800422953508e+15
3.8792264027521e+15
3.85868554403878e+15
3.84139390822557e+15
3.82215710932226e+15
3.80617845901282e+15
3.78809469817389e+15
3.77329988878925e+15
3.75624315230804e+15
3.742530361449e+15
3.72641168212343e+15
3.71368324240956e+15
3.69839692253003e+15
3.68656687047216e+15
3.67203482498854e+15
3.66103677722396e+15
3.64721039135501e+15
3.63702809228462e+15
3.6239054913681e+15
3.61452775525098e+15
3.60209794128517e+15
3.59351120185552e+15
3.58174970359924e+15
3.57391204127363e+15
3.56276390016114e+15
3.5516926059489e+15
3.53490814994246e+15
3.5221414091221e+15
3.50596091266784e+15
3.49389301808309e+15
3.47829474906521e+15
3.46690451741505e+15
3.45187015020101e+15
3.44112570049222e+15
3.42662475888361e+15
3.41648841035519e+15
3.40248763908888e+15
3.39291346570491e+15
3.37938311978113e+15
3.37033864437196e+15
3.35726427033325e+15
3.34874684175104e+15
3.33611888492305e+15
3.32812470574139e+15
3.31593259556781e+15
3.30846737146286e+15
3.29670580980838e+15
3.28975965822841e+15
3.278408773371e+15
3.2719442115322e+15
3.26095297268177e+15
3.25493266157613e+15
3.24427726258412e+15
3.23864379404924e+15
3.22826589080544e+15
3.22296802195705e+15
3.21279322608876e+15
3.20774756108256e+15
3.1951661494173e+15
)
;

boundaryField
{
    electrode
    {
        type            driftDiffusionPositiveIonDensity;
        seec            0;
        fieldName       Arp1;
        value           uniform 6.09559100238807e+16;
    }
    ground
    {
        type            driftDiffusionPositiveIonDensity;
        seec            0;
        fieldName       Arp1;
        value           uniform 3.1951661494173e+15;
    }
    otherfaces
    {
        type            empty;
    }
}


// ************************************************************************* //
