/*--------------------------------*- C++ -*----------------------------------*\
| =========                 |                                                 |
| \\      /  F ield         | foam-extend: Open Source CFD                    |
|  \\    /   O peration     | Version:     4.0                                |
|   \\  /    A nd           | Web:         http://www.foam-extend.org         |
|    \\/     M anipulation  |                                                 |
\*---------------------------------------------------------------------------*/
FoamFile
{
    version     2.0;
    format      ascii;
    class       volVectorField;
    location    "5e-06";
    object      E;
}
// * * * * * * * * * * * * * * * * * * * * * * * * * * * * * * * * * * * * * //

dimensions      [0 0 0 1 0 0 0];

internalField   nonuniform List<vector> 
300
(
(5.45357823900084 -0 -0)
(10.7709769020525 -0 -0)
(19.0327960100656 -0 -0)
(26.6579008992299 -0 -0)
(34.233339367417 -0 -0)
(41.8745838753902 -0 -0)
(49.5061726654705 -0 -0)
(57.1495077719685 -0 -0)
(64.8049228779708 -0 -0)
(72.4723284342706 -0 -0)
(80.153513405677 -0 -0)
(87.8496456871444 -0 -0)
(95.5619919196247 -0 -0)
(103.291867500908 -0 -0)
(111.040598661795 -0 -0)
(118.809543082911 -0 -0)
(126.600088512505 -0 -0)
(134.413654440115 -0 -0)
(142.251694502939 -0 -0)
(150.115698309414 -0 -0)
(158.007193512556 -0 -0)
(165.927747766693 -0 -0)
(173.878970684268 -0 -0)
(181.862515896693 -0 -0)
(189.880082986096 -0 -0)
(197.93341952123 -0 -0)
(206.024322997602 -0 -0)
(214.154642914912 -0 -0)
(222.326282688085 -0 -0)
(230.541201745596 -0 -0)
(238.801417598602 -0 -0)
(247.109007905871 -0 -0)
(255.466112218686 -0 -0)
(263.874933224855 -0 -0)
(272.3377382024 -0 -0)
(280.856864427777 -0 -0)
(289.434731777534 -0 -0)
(298.07384999408 -0 -0)
(306.776782677019 -0 -0)
(315.546052316627 -0 -0)
(324.38409568868 -0 -0)
(333.293568727279 -0 -0)
(342.278207439461 -0 -0)
(351.34330443741 -0 -0)
(360.493959650244 -0 -0)
(369.733880799289 -0 -0)
(379.066290206932 -0 -0)
(388.494435812941 -0 -0)
(398.021658769328 -0 -0)
(407.651406455963 -0 -0)
(417.38723900041 -0 -0)
(427.232832032927 -0 -0)
(437.191978348762 -0 -0)
(447.268589502715 -0 -0)
(457.466697281794 -0 -0)
(467.790455280134 -0 -0)
(478.244140643449 -0 -0)
(488.832155803913 -0 -0)
(499.55903044231 -0 -0)
(510.429423569763 -0 -0)
(521.448125641361 -0 -0)
(532.620060959724 -0 -0)
(543.950290056499 -0 -0)
(555.444012388716 -0 -0)
(567.106569042294 -0 -0)
(578.943445754599 -0 -0)
(590.960276027132 -0 -0)
(603.162844474303 -0 -0)
(615.557090383247 -0 -0)
(628.149111542356 -0 -0)
(640.94516824807 -0 -0)
(653.951687659765 -0 -0)
(667.175268369356 -0 -0)
(680.622685336614 -0 -0)
(694.300895126635 -0 -0)
(708.217041553504 -0 -0)
(722.378461635731 -0 -0)
(736.792692036871 -0 -0)
(751.467475912444 -0 -0)
(766.410770255807 -0 -0)
(781.630753762894 -0 -0)
(797.135835231636 -0 -0)
(812.934662594417 -0 -0)
(829.036132556163 -0 -0)
(845.449401004699 -0 -0)
(862.183894020751 -0 -0)
(879.249319864314 -0 -0)
(896.65568171202 -0 -0)
(914.413291381959 -0 -0)
(932.532783996889 -0 -0)
(951.025133869118 -0 -0)
(969.901671364438 -0 -0)
(989.17410120007 -0 -0)
(1008.85452201392 -0 -0)
(1028.95544735034 -0 -0)
(1049.48982837537 -0 -0)
(1070.47107816294 -0 -0)
(1091.91309790984 -0 -0)
(1113.83030510098 -0 -0)
(1136.23766384863 -0 -0)
(1159.15071758598 -0 -0)
(1182.58562427655 -0 -0)
(1206.55919434731 -0 -0)
(1231.08893164251 -0 -0)
(1256.19307752995 -0 -0)
(1281.89065862217 -0 -0)
(1308.20153821352 -0 -0)
(1335.14647185236 -0 -0)
(1362.74716755216 -0 -0)
(1391.02635075938 -0 -0)
(1420.00783480158 -0 -0)
(1449.71659715599 -0 -0)
(1480.17886210353 -0 -0)
(1511.42219041598 -0 -0)
(1543.47557675698 -0 -0)
(1576.36955545156 -0 -0)
(1610.13631553592 -0 -0)
(1644.80982601121 -0 -0)
(1680.42597227213 -0 -0)
(1717.02270490032 -0 -0)
(1754.64020217167 -0 -0)
(1793.32104752702 -0 -0)
(1833.11042389625 -0 -0)
(1874.05632653981 -0 -0)
(1916.20979639556 -0 -0)
(1959.62517643305 -0 -0)
(2004.36039365942 -0 -0)
(2050.47726931045 -0 -0)
(2098.04186133027 -0 -0)
(2147.12484333825 -0 -0)
(2197.80191939395 -0 -0)
(2250.15429415906 -0 -0)
(2304.26917934456 -0 -0)
(2360.2403706672 -0 -0)
(2418.16888487844 -0 -0)
(2478.1636541101 -0 -0)
(2540.3423695317 -0 -0)
(2604.83235267368 -0 -0)
(2671.77128319725 -0 -0)
(2741.30893338859 -0 -0)
(2813.60884434752 -0 -0)
(2888.84551271799 -0 -0)
(2967.21205866958 -0 -0)
(3048.93419962904 -0 -0)
(3134.25727958451 -0 -0)
(3223.43815955185 -0 -0)
(3316.75741976795 -0 -0)
(3414.52472317098 -0 -0)
(3517.08203851849 -0 -0)
(3624.80794765841 -0 -0)
(3738.12195872028 -0 -0)
(3857.49130829479 -0 -0)
(3983.43613535089 -0 -0)
(4116.53728897468 -0 -0)
(4257.45016282204 -0 -0)
(4406.89961940427 -0 -0)
(4565.72472553773 -0 -0)
(4734.84439286095 -0 -0)
(4915.32767429076 -0 -0)
(5108.38975554596 -0 -0)
(5315.37283807619 -0 -0)
(5537.97689698461 -0 -0)
(5777.87632720154 -0 -0)
(6038.95472850597 -0 -0)
(6327.51499593451 -0 -0)
(6647.19861967395 -0 -0)
(7000.05624532371 -0 -0)
(7389.95202691583 -0 -0)
(7822.85948122487 -0 -0)
(8307.16027308809 -0 -0)
(8851.82505388838 -0 -0)
(9467.81108619984 -0 -0)
(10164.8336323195 -0 -0)
(10945.3795004291 -0 -0)
(11819.7742749276 -0 -0)
(12808.1858401394 -0 -0)
(13917.8595289058 -0 -0)
(15153.32632146 -0 -0)
(16532.9104876027 -0 -0)
(18063.8868375647 -0 -0)
(19744.3606779723 -0 -0)
(21587.7536896227 -0 -0)
(23593.4905561567 -0 -0)
(25749.9278332822 -0 -0)
(28059.9761582513 -0 -0)
(30514.3616121484 -0 -0)
(33088.552851063 -0 -0)
(35773.7872924626 -0 -0)
(38557.8780624369 -0 -0)
(41411.5872159206 -0 -0)
(44312.7032053837 -0 -0)
(47255.303543939 -0 -0)
(50224.5464074259 -0 -0)
(53195.5689148155 -0 -0)
(56155.3422585184 -0 -0)
(59104.2848937363 -0 -0)
(62043.5394202725 -0 -0)
(64978.4900091277 -0 -0)
(67904.7575273376 -0 -0)
(70823.6339585663 -0 -0)
(73759.6942279643 -0 -0)
(76716.8459928519 -0 -0)
(79696.6471391233 -0 -0)
(82691.3997961955 -0 -0)
(85681.3550139615 -0 -0)
(88653.7075654921 -0 -0)
(91599.7517659907 -0 -0)
(94517.1280006911 -0 -0)
(97405.7831757239 -0 -0)
(100267.078995239 -0 -0)
(103103.04952971 -0 -0)
(105916.160075957 -0 -0)
(108705.896898353 -0 -0)
(111467.734550098 -0 -0)
(114200.370625802 -0 -0)
(116906.27077778 -0 -0)
(119587.774637391 -0 -0)
(122247.01496359 -0 -0)
(124886.021533532 -0 -0)
(127506.628428264 -0 -0)
(130110.610754908 -0 -0)
(132699.578439189 -0 -0)
(135275.077666803 -0 -0)
(137838.512760782 -0 -0)
(140390.114869421 -0 -0)
(142926.490879172 -0 -0)
(145445.406323059 -0 -0)
(147947.924044758 -0 -0)
(150435.05595068 -0 -0)
(152907.725557312 -0 -0)
(155366.824380684 -0 -0)
(157813.164556379 -0 -0)
(160247.532871375 -0 -0)
(162670.63433589 -0 -0)
(165083.16152126 -0 -0)
(167485.733962275 -0 -0)
(169878.964018893 -0 -0)
(172263.398328014 -0 -0)
(174639.586597373 -0 -0)
(177008.015282836 -0 -0)
(179369.185903787 -0 -0)
(181723.548773508 -0 -0)
(184068.553939993 -0 -0)
(186401.713846384 -0 -0)
(188723.476536722 -0 -0)
(191034.235186748 -0 -0)
(193334.38560332 -0 -0)
(195624.275315695 -0 -0)
(197904.261124457 -0 -0)
(200174.652516524 -0 -0)
(202435.775543559 -0 -0)
(204687.912838516 -0 -0)
(206931.360986518 -0 -0)
(209166.370728899 -0 -0)
(211393.21268547 -0 -0)
(213612.114181608 -0 -0)
(215823.32561793 -0 -0)
(218027.059539975 -0 -0)
(220223.561837195 -0 -0)
(222413.044292483 -0 -0)
(224595.749304919 -0 -0)
(226771.885511936 -0 -0)
(228941.691188746 -0 -0)
(231105.367626619 -0 -0)
(233263.140482384 -0 -0)
(235415.19447912 -0 -0)
(237560.554142048 -0 -0)
(239697.519401388 -0 -0)
(241825.578720358 -0 -0)
(243944.914046364 -0 -0)
(246055.735934298 -0 -0)
(248158.219736166 -0 -0)
(250252.569639625 -0 -0)
(252338.955544243 -0 -0)
(254417.572021972 -0 -0)
(256488.579780437 -0 -0)
(258552.162048093 -0 -0)
(260608.469516185 -0 -0)
(262657.671572311 -0 -0)
(264699.909940454 -0 -0)
(266735.34422463 -0 -0)
(268764.111781557 -0 -0)
(270786.371373906 -0 -0)
(272802.25752585 -0 -0)
(274811.927930472 -0 -0)
(276815.513849506 -0 -0)
(278813.174737151 -0 -0)
(280805.040341521 -0 -0)
(282791.267012144 -0 -0)
(284771.978509352 -0 -0)
(286747.320015668 -0 -0)
(288717.39978692 -0 -0)
(290682.351677992 -0 -0)
(292642.276895687 -0 -0)
(294597.291801102 -0 -0)
(296547.479838664 -0 -0)
(298492.941412553 -0 -0)
(300433.737179394 -0 -0)
(302369.947480546 -0 -0)
(304300.843951969 -0 -0)
)
;

boundaryField
{
    electrode
    {
        type            calculated;
        value           uniform (4.52035817716024 -0 -0);
    }
    ground
    {
        type            calculated;
        value           uniform (305264.393942547 -0 -0);
    }
    otherfaces
    {
        type            empty;
    }
}


// ************************************************************************* //
