/*--------------------------------*- C++ -*----------------------------------*\
| =========                 |                                                 |
| \\      /  F ield         | foam-extend: Open Source CFD                    |
|  \\    /   O peration     | Version:     4.0                                |
|   \\  /    A nd           | Web:         http://www.foam-extend.org         |
|    \\/     M anipulation  |                                                 |
\*---------------------------------------------------------------------------*/
FoamFile
{
    version     2.0;
    format      ascii;
    class       volScalarField;
    location    "5e-06";
    object      electron;
}
// * * * * * * * * * * * * * * * * * * * * * * * * * * * * * * * * * * * * * //

dimensions      [0 0 0 1 0 0 0];

internalField   nonuniform List<scalar> 
300
(
6.11453261692209e+16
6.1143814409779e+16
6.11398054159357e+16
6.1132921952875e+16
6.11232220064006e+16
6.11106833373622e+16
6.10953015919436e+16
6.107707716941e+16
6.10560082747528e+16
6.10320936933854e+16
6.10053321726249e+16
6.09757223715587e+16
6.09432629138295e+16
6.09079523630035e+16
6.08697892181159e+16
6.08287719079817e+16
6.0784898783726e+16
6.07381681114401e+16
6.06885780643335e+16
6.0636126714475e+16
6.05808120241591e+16
6.0522631836896e+16
6.04615838680624e+16
6.03976656952163e+16
6.03308747480958e+16
6.02612082983306e+16
6.01886634488825e+16
6.01132371232326e+16
6.003492605434e+16
5.99537267733955e+16
5.98696355983701e+16
5.97826486223982e+16
5.96927617020684e+16
5.95999704457482e+16
5.95042702019406e+16
5.94056560470706e+16
5.93041227713795e+16
5.91996648633568e+16
5.90922765000635e+16
5.8981951555899e+16
5.88686836246204e+16
5.87524659915918e+16
5.8633291436159e+16
5.85111518493572e+16
5.83860380465043e+16
5.82579400229019e+16
5.81268472636095e+16
5.79927488512818e+16
5.78556334856451e+16
5.77154894801676e+16
5.75723047519649e+16
5.74260668102453e+16
5.72767627449926e+16
5.71243792164096e+16
5.69689024452932e+16
5.68103182044227e+16
5.66486118109771e+16
5.64837681200125e+16
5.63157715190204e+16
5.61446059235693e+16
5.59702547740644e+16
5.57927010336325e+16
5.5611927187156e+16
5.54279152414707e+16
5.5240646726745e+16
5.50501026990597e+16
5.48562637441936e+16
5.46591099826403e+16
5.44586210758625e+16
5.42547762337904e+16
5.40475542235785e+16
5.38369333796271e+16
5.3622891614872e+16
5.34054064333472e+16
5.31844549440221e+16
5.29600138759048e+16
5.27320595944146e+16
5.25005681190169e+16
5.22655151421064e+16
5.20268760491303e+16
5.17846259399342e+16
5.15387396513126e+16
5.12891917807432e+16
5.10359567112786e+16
5.07790086375631e+16
5.05183215929485e+16
5.02538694776714e+16
4.99856260880436e+16
4.97135651466176e+16
4.94376603332813e+16
4.91578853172186e+16
4.88742137896841e+16
4.85866194975334e+16
4.82950762774274e+16
4.79995580906587e+16
4.77000390585089e+16
4.73964934980562e+16
4.70888959583505e+16
4.67772212568631e+16
4.64614445161138e+16
4.61415412003718e+16
4.58174871523234e+16
4.54892586295943e+16
4.51568323410078e+16
4.48201854824594e+16
4.44792957722717e+16
4.41341414858973e+16
4.37847014898395e+16
4.34309552746338e+16
4.3072882986744e+16
4.27104654592219e+16
4.23436842409607e+16
4.19725216243827e+16
4.15969606713882e+16
4.12169852373801e+16
4.08325799931858e+16
4.04437304446874e+16
4.00504229499588e+16
3.96526447337087e+16
3.92503838988218e+16
3.88436294347755e+16
3.84323712227116e+16
3.80166000369322e+16
3.75963075425655e+16
3.71714862891618e+16
3.67421296999604e+16
3.63082320565366e+16
3.58697884785589e+16
3.54267948983762e+16
3.49792480299829e+16
3.45271453323958e+16
3.40704849665441e+16
3.36092657456876e+16
3.31434870791741e+16
3.267314890825e+16
3.21982516352848e+16
3.1718796042904e+16
3.12347832011146e+16
3.07462143840672e+16
3.02530909612544e+16
2.9755414191665e+16
2.92531852404297e+16
2.87464050440771e+16
2.82350729178366e+16
2.77191854821046e+16
2.71987374306947e+16
2.66737222833672e+16
2.61441323175519e+16
2.56099583561998e+16
2.50711895220547e+16
2.45278130039432e+16
2.39798137783286e+16
2.34271743213345e+16
2.28698744324283e+16
2.23078906983936e+16
2.1741196673695e+16
2.11697620711081e+16
2.05935528942204e+16
2.00125315543344e+16
1.94266549812975e+16
1.88358769237838e+16
1.82401386381472e+16
1.7639367076159e+16
1.70334065504086e+16
1.64218734383555e+16
1.58042398024288e+16
1.51800651823654e+16
1.45490317616214e+16
1.39108583314459e+16
1.32652222420424e+16
1.26117715172302e+16
1.1950192425914e+16
1.12803387970749e+16
1.06025922604082e+16
9.91790635846182e+15
9.22754175905444e+15
8.53333708234485e+15
7.83810555741498e+15
7.14542281507054e+15
6.45958646788042e+15
5.78587187706629e+15
5.13020105969032e+15
4.49885604796321e+15
3.89840902151836e+15
3.33518677926179e+15
2.81478966412281e+15
2.34185625992764e+15
1.91962837381757e+15
1.5496348148968e+15
1.2317072857239e+15
964037005040600
743344613231390
564995174135692
423665917124334
314028465905931
230502696588968
167759282526839
120802739231018
84837123672620.8
58280645384461.3
39329775946438.8
25581851606412.1
15967992465943.4
9724970496794.86
5980696896157.37
3863058074304.33
2691706391963.67
2038640622985.23
1665703919407.37
1447223282233.97
1317237811198.21
1239485014361.67
1193432025499.4
1167146450488.71
1153117643001.86
1146530172487.64
1144192341901.24
1143927295182.16
1144441035243.19
1144798881268.25
1144354384097.59
1142607964891.57
1139300434971.79
1134286935796.12
1127511253368.97
1118979931935.99
1108746711511.65
1096898264788.6
1083543693519.99
1068807160043.89
1052822141989.25
1035726954818.34
1017661225299.14
998763127669.861
979167231080.953
959002849272.924
938392804313.805
917452536726.333
896289482618.105
875002729678.706
853682523751.668
832410642232.427
811254482432.798
790271360911.84
769519477954.733
749053843783.626
728922157952.094
709165114565.967
689816664011.382
670904542015.657
652450795732.665
634472319184.785
616981376530.88
599986164865.172
583491404754.228
567500021140.632
552009259720.825
537011311790.108
522501045477.106
508472695923.815
494917106240.883
481824006307.225
469182095664.934
456979381155.686
445203370324.03
433841250127.891
422880145613.996
412307218322.086
402109513091.447
392270253558.405
382766634886.471
373580583680.768
364701214936.54
356118504705.372
347823265816.02
339806815699.232
332061026241.739
324578359698.727
317351932626.048
310375564149.285
303643834983.912
297151714448.011
290894052047.858
284855895333.548
279006276230.583
273330727966.787
267839492441.84
262545773284.477
257463854033.643
252586661889.587
247886300035.135
243372184800.108
239097842032.28
235064166612.728
231296424942.543
227889783174.212
224981462685.939
222850195980.216
221956018612.406
223123042855.457
)
;

boundaryField
{
    electrode
    {
        type            driftDiffusionElectronDensity;
        seec            0.05;
        Edepend         1;
        field_emission  0;
        field_enhancement_factor 55;
        work_function   5;
        value           uniform 6.11453261692209e+16;
    }
    ground
    {
        type            driftDiffusionElectronDensity;
        seec            0.05;
        Edepend         1;
        field_emission  0;
        field_enhancement_factor 55;
        work_function   5;
        value           uniform 225321097897.492;
    }
    otherfaces
    {
        type            empty;
    }
}


// ************************************************************************* //
