/*--------------------------------*- C++ -*----------------------------------*\
| =========                 |                                                 |
| \\      /  F ield         | foam-extend: Open Source CFD                    |
|  \\    /   O peration     | Version:     4.0                                |
|   \\  /    A nd           | Web:         http://www.foam-extend.org         |
|    \\/     M anipulation  |                                                 |
\*---------------------------------------------------------------------------*/
FoamFile
{
    version     2.0;
    format      ascii;
    class       volVectorField;
    location    "5e-06";
    object      J_Arp1;
}
// * * * * * * * * * * * * * * * * * * * * * * * * * * * * * * * * * * * * * //

dimensions      [1 -1 -1 0 0 0 0];

internalField   nonuniform List<vector> 
300
(
(1.80967533096468e+16 -0 -0)
(6.56101622554222e+16 -0 -0)
(1.17577105229238e+17 -0 -0)
(1.63443777200358e+17 -0 -0)
(2.09986295601023e+17 -0 -0)
(2.56806271142031e+17 -0 -0)
(3.034854948896e+17 -0 -0)
(3.50201747655235e+17 -0 -0)
(3.96925167733421e+17 -0 -0)
(4.43652974426715e+17 -0 -0)
(4.90389749585091e+17 -0 -0)
(5.37135359860808e+17 -0 -0)
(5.83890884884165e+17 -0 -0)
(6.30657483543018e+17 -0 -0)
(6.77436327260603e+17 -0 -0)
(7.24228726367516e+17 -0 -0)
(7.71036100766462e+17 -0 -0)
(8.17859989973667e+17 -0 -0)
(8.64702061593572e+17 -0 -0)
(9.11564116385943e+17 -0 -0)
(9.58448094840725e+17 -0 -0)
(1.00535608261117e+18 -0 -0)
(1.05229031569035e+18 -0 -0)
(1.09925318583714e+18 -0 -0)
(1.14624724488063e+18 -0 -0)
(1.19327520933484e+18 -0 -0)
(1.24033996400327e+18 -0 -0)
(1.28744456601618e+18 -0 -0)
(1.33459224751175e+18 -0 -0)
(1.38178641894831e+18 -0 -0)
(1.4290306718136e+18 -0 -0)
(1.47632878096491e+18 -0 -0)
(1.52368470466516e+18 -0 -0)
(1.57110258086562e+18 -0 -0)
(1.61858672342094e+18 -0 -0)
(1.66614164005759e+18 -0 -0)
(1.71377209632602e+18 -0 -0)
(1.76148315771598e+18 -0 -0)
(1.80927997276739e+18 -0 -0)
(1.85716718311512e+18 -0 -0)
(1.90514857139773e+18 -0 -0)
(1.95322873374709e+18 -0 -0)
(2.00141828133587e+18 -0 -0)
(2.04973760166501e+18 -0 -0)
(2.09820448674578e+18 -0 -0)
(2.14682766907267e+18 -0 -0)
(2.19561319477926e+18 -0 -0)
(2.2445669152956e+18 -0 -0)
(2.29369475966975e+18 -0 -0)
(2.34300281649092e+18 -0 -0)
(2.39249735305504e+18 -0 -0)
(2.4421848090203e+18 -0 -0)
(2.49207178196385e+18 -0 -0)
(2.54216501127704e+18 -0 -0)
(2.59247136040437e+18 -0 -0)
(2.64299779877036e+18 -0 -0)
(2.69375138368342e+18 -0 -0)
(2.74473924121765e+18 -0 -0)
(2.7959685474515e+18 -0 -0)
(2.8474465092852e+18 -0 -0)
(2.8991803444088e+18 -0 -0)
(2.95117726184421e+18 -0 -0)
(3.0034444411784e+18 -0 -0)
(3.05598901239549e+18 -0 -0)
(3.1088180345997e+18 -0 -0)
(3.16193847516381e+18 -0 -0)
(3.21535718811553e+18 -0 -0)
(3.2690808925045e+18 -0 -0)
(3.32311615045234e+18 -0 -0)
(3.37746934522286e+18 -0 -0)
(3.43214665878939e+18 -0 -0)
(3.48715404961145e+18 -0 -0)
(3.54249722993854e+18 -0 -0)
(3.59818164337617e+18 -0 -0)
(3.65421244216151e+18 -0 -0)
(3.7105944647308e+18 -0 -0)
(3.76733221295399e+18 -0 -0)
(3.82442982975869e+18 -0 -0)
(3.88189107667485e+18 -0 -0)
(3.93971931168559e+18 -0 -0)
(3.99791746724952e+18 -0 -0)
(4.05648802846416e+18 -0 -0)
(4.11543301177838e+18 -0 -0)
(4.17475394381737e+18 -0 -0)
(4.23445184101257e+18 -0 -0)
(4.29452718904197e+18 -0 -0)
(4.35497992358845e+18 -0 -0)
(4.41580941113441e+18 -0 -0)
(4.47701443072374e+18 -0 -0)
(4.53859315605274e+18 -0 -0)
(4.60054313902015e+18 -0 -0)
(4.66286129324735e+18 -0 -0)
(4.72554387930046e+18 -0 -0)
(4.78858649042941e+18 -0 -0)
(4.85198403919672e+18 -0 -0)
(4.91573074580197e+18 -0 -0)
(4.97982012693488e+18 -0 -0)
(5.04424498627032e+18 -0 -0)
(5.10899740596136e+18 -0 -0)
(5.17406873955452e+18 -0 -0)
(5.23944960641563e+18 -0 -0)
(5.30512988748516e+18 -0 -0)
(5.37109872243021e+18 -0 -0)
(5.43734450862881e+18 -0 -0)
(5.50385490135968e+18 -0 -0)
(5.57061681608008e+18 -0 -0)
(5.63761643204966e+18 -0 -0)
(5.7048391975795e+18 -0 -0)
(5.7722698375054e+18 -0 -0)
(5.83989236184951e+18 -0 -0)
(5.90769007666087e+18 -0 -0)
(5.97564559647366e+18 -0 -0)
(6.04374085856984e+18 -0 -0)
(6.11195713906297e+18 -0 -0)
(6.18027507088982e+18 -0 -0)
(6.24867466343529e+18 -0 -0)
(6.31713532394834e+18 -0 -0)
(6.38563588077562e+18 -0 -0)
(6.45415460824981e+18 -0 -0)
(6.52266925314822e+18 -0 -0)
(6.59115706304777e+18 -0 -0)
(6.65959481576638e+18 -0 -0)
(6.72795885072223e+18 -0 -0)
(6.79622510162968e+18 -0 -0)
(6.86436913022928e+18 -0 -0)
(6.93236616137077e+18 -0 -0)
(7.00019112007929e+18 -0 -0)
(7.06781866748452e+18 -0 -0)
(7.13522323885961e+18 -0 -0)
(7.20237909339564e+18 -0 -0)
(7.26926031577133e+18 -0 -0)
(7.3358409384984e+18 -0 -0)
(7.40209485790965e+18 -0 -0)
(7.46799601881239e+18 -0 -0)
(7.53351833879161e+18 -0 -0)
(7.59863574008454e+18 -0 -0)
(7.66332242164207e+18 -0 -0)
(7.7275529046063e+18 -0 -0)
(7.79130024432918e+18 -0 -0)
(7.85453987686525e+18 -0 -0)
(7.91725288599354e+18 -0 -0)
(7.97939631749699e+18 -0 -0)
(8.04095141759927e+18 -0 -0)
(8.10195372142759e+18 -0 -0)
(8.16239175804311e+18 -0 -0)
(8.22224287629422e+18 -0 -0)
(8.28148430905558e+18 -0 -0)
(8.34009356797445e+18 -0 -0)
(8.39804860921413e+18 -0 -0)
(8.45532937027903e+18 -0 -0)
(8.51191198748619e+18 -0 -0)
(8.56778213910412e+18 -0 -0)
(8.6229150480917e+18 -0 -0)
(8.67728857574199e+18 -0 -0)
(8.73091830678725e+18 -0 -0)
(8.78369347536018e+18 -0 -0)
(8.83578746760345e+18 -0 -0)
(8.88689160848073e+18 -0 -0)
(8.93734382934092e+18 -0 -0)
(8.98686994176665e+18 -0 -0)
(9.03534775755885e+18 -0 -0)
(9.08381113666127e+18 -0 -0)
(9.12902797313585e+18 -0 -0)
(9.17786611963977e+18 -0 -0)
(9.22300222830177e+18 -0 -0)
(9.26758415761572e+18 -0 -0)
(9.31182164221897e+18 -0 -0)
(9.35444700167414e+18 -0 -0)
(9.39731064946265e+18 -0 -0)
(9.43951622198022e+18 -0 -0)
(9.47860508689736e+18 -0 -0)
(9.52315997775454e+18 -0 -0)
(9.55742394145271e+18 -0 -0)
(9.59508529030324e+18 -0 -0)
(9.6351743116778e+18 -0 -0)
(9.67227026553037e+18 -0 -0)
(9.70449426520564e+18 -0 -0)
(9.7418654630248e+18 -0 -0)
(9.7781675823545e+18 -0 -0)
(9.80385331036354e+18 -0 -0)
(9.83461954048998e+18 -0 -0)
(9.87010270165797e+18 -0 -0)
(9.88738046716928e+18 -0 -0)
(9.91926752145479e+18 -0 -0)
(9.94024130320878e+18 -0 -0)
(9.96774107823863e+18 -0 -0)
(9.97849938047227e+18 -0 -0)
(1.00142690807171e+19 -0 -0)
(1.00156552514189e+19 -0 -0)
(1.00497207018791e+19 -0 -0)
(1.00565613356822e+19 -0 -0)
(1.01005578222449e+19 -0 -0)
(1.01061699696381e+19 -0 -0)
(1.01582415371427e+19 -0 -0)
(1.01778859947107e+19 -0 -0)
(1.02517346897614e+19 -0 -0)
(1.03065524034778e+19 -0 -0)
(1.04324122121792e+19 -0 -0)
(1.05753464758828e+19 -0 -0)
(1.07965922074116e+19 -0 -0)
(1.10489595432144e+19 -0 -0)
(1.13033614760072e+19 -0 -0)
(1.15918538768435e+19 -0 -0)
(1.1762439809485e+19 -0 -0)
(1.19567127673646e+19 -0 -0)
(1.20819666987179e+19 -0 -0)
(1.21779669404553e+19 -0 -0)
(1.22522348320225e+19 -0 -0)
(1.23152177090721e+19 -0 -0)
(1.23689543163812e+19 -0 -0)
(1.24187845553576e+19 -0 -0)
(1.246515929192e+19 -0 -0)
(1.25096462774024e+19 -0 -0)
(1.25522104923566e+19 -0 -0)
(1.25964052078483e+19 -0 -0)
(1.26381107384954e+19 -0 -0)
(1.26824619302699e+19 -0 -0)
(1.27241342404427e+19 -0 -0)
(1.27691256655404e+19 -0 -0)
(1.28108702837916e+19 -0 -0)
(1.28566801063785e+19 -0 -0)
(1.28986618097675e+19 -0 -0)
(1.29451379499274e+19 -0 -0)
(1.29871867095287e+19 -0 -0)
(1.30336070583315e+19 -0 -0)
(1.30743711883431e+19 -0 -0)
(1.3120757374316e+19 -0 -0)
(1.31602864902555e+19 -0 -0)
(1.32058499152117e+19 -0 -0)
(1.3244159238558e+19 -0 -0)
(1.32888848585185e+19 -0 -0)
(1.33259334888099e+19 -0 -0)
(1.33697445045715e+19 -0 -0)
(1.34053265627145e+19 -0 -0)
(1.34480681822458e+19 -0 -0)
(1.34820399427485e+19 -0 -0)
(1.35235545244402e+19 -0 -0)
(1.35557707185806e+19 -0 -0)
(1.35959694983062e+19 -0 -0)
(1.36263131267063e+19 -0 -0)
(1.36651689511937e+19 -0 -0)
(1.36937826799105e+19 -0 -0)
(1.37308985337869e+19 -0 -0)
(1.37583344281792e+19 -0 -0)
(1.37940826683752e+19 -0 -0)
(1.38196815090899e+19 -0 -0)
(1.38540013562215e+19 -0 -0)
(1.38776945323881e+19 -0 -0)
(1.39105656680437e+19 -0 -0)
(1.39323106922521e+19 -0 -0)
(1.39637548139266e+19 -0 -0)
(1.39835934744113e+19 -0 -0)
(1.40135998934891e+19 -0 -0)
(1.4031466220166e+19 -0 -0)
(1.40600244348575e+19 -0 -0)
(1.4075916219319e+19 -0 -0)
(1.41030539024066e+19 -0 -0)
(1.41170493961634e+19 -0 -0)
(1.41429591818833e+19 -0 -0)
(1.41552950321529e+19 -0 -0)
(1.41801703830826e+19 -0 -0)
(1.41910304188696e+19 -0 -0)
(1.421503722862e+19 -0 -0)
(1.42245345168084e+19 -0 -0)
(1.42477075715711e+19 -0 -0)
(1.42558398848182e+19 -0 -0)
(1.42780675861593e+19 -0 -0)
(1.42852536596118e+19 -0 -0)
(1.43067878917481e+19 -0 -0)
(1.43126288266368e+19 -0 -0)
(1.43334800649645e+19 -0 -0)
(1.43381118037594e+19 -0 -0)
(1.43583982271026e+19 -0 -0)
(1.43619404988662e+19 -0 -0)
(1.43817212796603e+19 -0 -0)
(1.43842289752112e+19 -0 -0)
(1.44035232383581e+19 -0 -0)
(1.44050246634801e+19 -0 -0)
(1.44238009436911e+19 -0 -0)
(1.44243247574575e+19 -0 -0)
(1.44425938344256e+19 -0 -0)
(1.44422218592594e+19 -0 -0)
(1.44601114430085e+19 -0 -0)
(1.4458938022578e+19 -0 -0)
(1.44765633141995e+19 -0 -0)
(1.44746703404887e+19 -0 -0)
(1.44921807909063e+19 -0 -0)
(1.44896660930108e+19 -0 -0)
(1.45071365876477e+19 -0 -0)
(1.45040265147042e+19 -0 -0)
(1.45214015332334e+19 -0 -0)
(1.45175743226485e+19 -0 -0)
(1.45347874058469e+19 -0 -0)
(1.45302318015955e+19 -0 -0)
(1.45471168976731e+19 -0 -0)
(1.4541657105113e+19 -0 -0)
(1.4558064032455e+19 -0 -0)
(1.45514405423829e+19 -0 -0)
(1.45670769838034e+19 -0 -0)
(1.45474315363335e+19 -0 -0)
)
;

boundaryField
{
    electrode
    {
        type            calculated;
        value           uniform (-7015633853.36091 -0 -0);
    }
    ground
    {
        type            calculated;
        value           uniform (1.45658192992422e+19 -0 -0);
    }
    otherfaces
    {
        type            empty;
    }
}


// ************************************************************************* //
