/*--------------------------------*- C++ -*----------------------------------*\
| =========                 |                                                 |
| \\      /  F ield         | foam-extend: Open Source CFD                    |
|  \\    /   O peration     | Version:     4.0                                |
|   \\  /    A nd           | Web:         http://www.foam-extend.org         |
|    \\/     M anipulation  |                                                 |
\*---------------------------------------------------------------------------*/
FoamFile
{
    version     2.0;
    format      ascii;
    class       volVectorField;
    location    "5e-06";
    object      J_electron;
}
// * * * * * * * * * * * * * * * * * * * * * * * * * * * * * * * * * * * * * //

dimensions      [1 -1 -1 0 0 0 0];

internalField   nonuniform List<vector> 
300
(
(-1.28783537374793e+19 0 0)
(-1.32129051092438e+19 0 0)
(-1.5601265365015e+19 0 0)
(-1.51345616579995e+19 0 0)
(-1.51357139362254e+19 0 0)
(-1.51233711557692e+19 0 0)
(-1.5063705649817e+19 0 0)
(-1.50191703856851e+19 0 0)
(-1.49723416890804e+19 0 0)
(-1.49249259934141e+19 0 0)
(-1.48778468285007e+19 0 0)
(-1.48306554808266e+19 0 0)
(-1.47834398445512e+19 0 0)
(-1.47362030379121e+19 0 0)
(-1.46889336108234e+19 0 0)
(-1.46416319087232e+19 0 0)
(-1.45942950980106e+19 0 0)
(-1.45469203465293e+19 0 0)
(-1.44995049921043e+19 0 0)
(-1.44520460819749e+19 0 0)
(-1.44045406688468e+19 0 0)
(-1.43569856714103e+19 0 0)
(-1.43093778168255e+19 0 0)
(-1.42617138239837e+19 0 0)
(-1.4213990188673e+19 0 0)
(-1.41662033742529e+19 0 0)
(-1.41183495911651e+19 0 0)
(-1.40704250526883e+19 0 0)
(-1.40224257019939e+19 0 0)
(-1.3974347389767e+19 0 0)
(-1.39261858365283e+19 0 0)
(-1.38779368448541e+19 0 0)
(-1.38295963191214e+19 0 0)
(-1.37811596751722e+19 0 0)
(-1.37326196023978e+19 0 0)
(-1.36839649822563e+19 0 0)
(-1.36351900394815e+19 0 0)
(-1.35863172986916e+19 0 0)
(-1.35373989076339e+19 0 0)
(-1.34884334371432e+19 0 0)
(-1.34391808464784e+19 0 0)
(-1.33890811782511e+19 0 0)
(-1.33378207275127e+19 0 0)
(-1.32865943293002e+19 0 0)
(-1.32362179628747e+19 0 0)
(-1.31860831507899e+19 0 0)
(-1.31358563517339e+19 0 0)
(-1.30854509371573e+19 0 0)
(-1.30348354662472e+19 0 0)
(-1.29839967960669e+19 0 0)
(-1.29329274677268e+19 0 0)
(-1.28816217616283e+19 0 0)
(-1.28300742387672e+19 0 0)
(-1.27782795914683e+19 0 0)
(-1.27262324330046e+19 0 0)
(-1.26739272461653e+19 0 0)
(-1.26213585269571e+19 0 0)
(-1.25685206286622e+19 0 0)
(-1.25154078592152e+19 0 0)
(-1.24620145857958e+19 0 0)
(-1.24083350515844e+19 0 0)
(-1.23543636302386e+19 0 0)
(-1.23000946046607e+19 0 0)
(-1.22455224273758e+19 0 0)
(-1.21906415106924e+19 0 0)
(-1.213544640839e+19 0 0)
(-1.20799317455174e+19 0 0)
(-1.20240922819279e+19 0 0)
(-1.19679228691924e+19 0 0)
(-1.19114185584332e+19 0 0)
(-1.18545745042979e+19 0 0)
(-1.17973860992276e+19 0 0)
(-1.17398488863925e+19 0 0)
(-1.1681958643693e+19 0 0)
(-1.16237113350546e+19 0 0)
(-1.15651032077967e+19 0 0)
(-1.15061307265227e+19 0 0)
(-1.14467906400501e+19 0 0)
(-1.13870799508246e+19 0 0)
(-1.13269959649418e+19 0 0)
(-1.12665362926202e+19 0 0)
(-1.12056988248103e+19 0 0)
(-1.11444818068772e+19 0 0)
(-1.10828837460139e+19 0 0)
(-1.10209035832205e+19 0 0)
(-1.0958540480286e+19 0 0)
(-1.08957940197695e+19 0 0)
(-1.08326640885778e+19 0 0)
(-1.07691509649092e+19 0 0)
(-1.0705255180171e+19 0 0)
(-1.06409777363084e+19 0 0)
(-1.05763198551557e+19 0 0)
(-1.05112831597871e+19 0 0)
(-1.04458696249841e+19 0 0)
(-1.03800814489898e+19 0 0)
(-1.0313921230846e+19 0 0)
(-1.02473917989451e+19 0 0)
(-1.0180496299953e+19 0 0)
(-1.01132381249638e+19 0 0)
(-1.0045620878227e+19 0 0)
(-9.97764839259085e+18 0 0)
(-9.90932469337398e+18 0 0)
(-9.84065392121374e+18 0 0)
(-9.77164038293684e+18 0 0)
(-9.7022883896686e+18 0 0)
(-9.63260233785908e+18 0 0)
(-9.56258661896133e+18 0 0)
(-9.49224547947486e+18 0 0)
(-9.42158312936151e+18 0 0)
(-9.35060353111661e+18 0 0)
(-9.27931041044077e+18 0 0)
(-9.20770716217901e+18 0 0)
(-9.13579675963412e+18 0 0)
(-9.06358164750074e+18 0 0)
(-8.99106369766005e+18 0 0)
(-8.91824405996477e+18 0 0)
(-8.84512303558951e+18 0 0)
(-8.77169998411386e+18 0 0)
(-8.69797316885742e+18 0 0)
(-8.62393956427733e+18 0 0)
(-8.54959479146204e+18 0 0)
(-8.47493279720879e+18 0 0)
(-8.3999457391212e+18 0 0)
(-8.32462378450131e+18 0 0)
(-8.24895478283528e+18 0 0)
(-8.17292399619185e+18 0 0)
(-8.0965139661319e+18 0 0)
(-8.01970400878081e+18 0 0)
(-7.94246932483958e+18 0 0)
(-7.86478337813538e+18 0 0)
(-7.78661053369732e+18 0 0)
(-7.70791662031942e+18 0 0)
(-7.6286566259753e+18 0 0)
(-7.54878073058728e+18 0 0)
(-7.46823924507791e+18 0 0)
(-7.38695411919382e+18 0 0)
(-7.30485256635967e+18 0 0)
(-7.22194036463396e+18 0 0)
(-7.13796806559715e+18 0 0)
(-7.05258806958463e+18 0 0)
(-6.966988054107e+18 0 0)
(-6.879121237382e+18 0 0)
(-6.78499883583432e+18 0 0)
(-6.68964004309657e+18 0 0)
(-6.59605931030426e+18 0 0)
(-6.50093928386239e+18 0 0)
(-6.40345429940634e+18 0 0)
(-6.30331743110955e+18 0 0)
(-6.20014251256735e+18 0 0)
(-6.09377164205018e+18 0 0)
(-5.98347724082591e+18 0 0)
(-5.86914460194361e+18 0 0)
(-5.75049483848516e+18 0 0)
(-5.62512277751621e+18 0 0)
(-5.49742383287344e+18 0 0)
(-5.35723135723792e+18 0 0)
(-5.21707501429929e+18 0 0)
(-5.06282247289045e+18 0 0)
(-4.89686767541682e+18 0 0)
(-4.73318605855182e+18 0 0)
(-4.5023350262281e+18 0 0)
(-4.30082767238306e+18 0 0)
(-3.7260571311394e+18 0 0)
(-2.79797129446582e+18 0 0)
(-2.50542505514657e+18 0 0)
(-2.56716089511851e+18 0 0)
(-2.38415249243898e+18 0 0)
(-1.97497088022833e+18 0 0)
(-1.32511529210846e+18 0 0)
(-8.17296914493997e+17 0 0)
(-3.05747779619127e+17 0 0)
(-1.8343377382146e+17 0 0)
(-1.11430802526333e+18 0 0)
(-1.09788610681635e+18 0 0)
(-6.06534404802609e+17 0 0)
(-1.52771870447685e+18 0 0)
(-2.71879156859614e+18 0 0)
(-2.65398060762687e+18 0 0)
(-3.4891930487866e+18 0 0)
(-4.64631002797022e+18 0 0)
(-4.28875858322758e+18 0 0)
(-4.33538902002552e+18 0 0)
(-4.15783391371932e+18 0 0)
(-2.53616697532272e+18 0 0)
(-8.2146985994879e+17 0 0)
(1.0435523843111e+18 0 0)
(3.75159939556599e+18 0 0)
(6.31719777706495e+18 0 0)
(8.32191496962703e+18 0 0)
(1.0033885056339e+19 0 0)
(1.09645145339294e+19 0 0)
(1.20176133732728e+19 0 0)
(1.07071237777342e+19 0 0)
(8.78480839388116e+18 0 0)
(8.4754347297327e+18 0 0)
(5.86481463062954e+18 0 0)
(5.41746358088735e+18 0 0)
(4.94468621836409e+18 0 0)
(-4.48079881049611e+18 0 0)
(1.73289011455182e+18 0 0)
(-1.29819453854287e+18 0 0)
(-2.35731505074405e+18 0 0)
(-2.27242919541862e+18 0 0)
(-2.20813666044992e+18 0 0)
(-2.31362362594893e+18 0 0)
(-2.55114891396539e+18 0 0)
(-2.7792028378262e+18 0 0)
(-2.9193777131109e+18 0 0)
(-2.98950778824665e+18 0 0)
(-3.00877014076948e+18 0 0)
(-2.99443481053233e+18 0 0)
(-2.97242570990038e+18 0 0)
(-2.93671984550036e+18 0 0)
(-2.897405424008e+18 0 0)
(-2.85756029838089e+18 0 0)
(-2.81372015860606e+18 0 0)
(-2.76746998112685e+18 0 0)
(-2.71990046153093e+18 0 0)
(-2.67236282204834e+18 0 0)
(-2.6238556205287e+18 0 0)
(-2.57647616743128e+18 0 0)
(-2.52791892708324e+18 0 0)
(-2.47936394564179e+18 0 0)
(-2.43076984941436e+18 0 0)
(-2.3823146313268e+18 0 0)
(-2.33407253557097e+18 0 0)
(-2.28613438579866e+18 0 0)
(-2.23859637154156e+18 0 0)
(-2.19153721430655e+18 0 0)
(-2.14502889631484e+18 0 0)
(-2.09913603715685e+18 0 0)
(-2.05391589268331e+18 0 0)
(-2.00941915220157e+18 0 0)
(-1.96568935926162e+18 0 0)
(-1.92276401236482e+18 0 0)
(-1.88067399219689e+18 0 0)
(-1.83944478152068e+18 0 0)
(-1.79909568583036e+18 0 0)
(-1.75964222470767e+18 0 0)
(-1.72108957642521e+18 0 0)
(-1.68345571577887e+18 0 0)
(-1.64665781259787e+18 0 0)
(-1.61088783765061e+18 0 0)
(-1.57602951311916e+18 0 0)
(-1.54201723897399e+18 0 0)
(-1.50889512281354e+18 0 0)
(-1.47664707063713e+18 0 0)
(-1.44526195511951e+18 0 0)
(-1.41472382186053e+18 0 0)
(-1.38501541603147e+18 0 0)
(-1.35611844233354e+18 0 0)
(-1.3280134124386e+18 0 0)
(-1.300681083877e+18 0 0)
(-1.27410073937411e+18 0 0)
(-1.24826481268879e+18 0 0)
(-1.22307479075878e+18 0 0)
(-1.19863643880922e+18 0 0)
(-1.17488922376655e+18 0 0)
(-1.15172424773893e+18 0 0)
(-1.12921260143488e+18 0 0)
(-1.10730340645005e+18 0 0)
(-1.08598193793042e+18 0 0)
(-1.0652271864921e+18 0 0)
(-1.04502058767137e+18 0 0)
(-1.02534365180475e+18 0 0)
(-1.00617993120458e+18 0 0)
(-9.87509285667116e+17 0 0)
(-9.69315177541291e+17 0 0)
(-9.51541082045291e+17 0 0)
(-9.34227794935323e+17 0 0)
(-9.17451383229896e+17 0 0)
(-9.01016952071829e+17 0 0)
(-8.84991163632407e+17 0 0)
(-8.69353067455273e+17 0 0)
(-8.54095179242449e+17 0 0)
(-8.39205119980616e+17 0 0)
(-8.24671709754485e+17 0 0)
(-8.10483720234805e+17 0 0)
(-7.9663013954156e+17 0 0)
(-7.83100597736328e+17 0 0)
(-7.69880194985506e+17 0 0)
(-7.56962109238596e+17 0 0)
(-7.44245312092261e+17 0 0)
(-7.31868281419012e+17 0 0)
(-7.20061946305467e+17 0 0)
(-7.08345942873788e+17 0 0)
(-6.96908380044054e+17 0 0)
(-6.85734874718232e+17 0 0)
(-6.74656559207026e+17 0 0)
(-6.64026083268751e+17 0 0)
(-6.53971093115639e+17 0 0)
(-6.43955025081927e+17 0 0)
(-6.33756256173146e+17 0 0)
(-6.24844041929794e+17 0 0)
(-6.15560301296524e+17 0 0)
(-6.07064683073694e+17 0 0)
(-5.98945632328658e+17 0 0)
(-5.92195425440362e+17 0 0)
(-5.85993941732922e+17 0 0)
(-5.75732781161435e+17 0 0)
)
;

boundaryField
{
    electrode
    {
        type            calculated;
        value           uniform (-1.5374390707662e+19 0 0);
    }
    ground
    {
        type            calculated;
        value           uniform (-5.73156793491632e+17 0 0);
    }
    otherfaces
    {
        type            empty;
    }
}


// ************************************************************************* //
