/*--------------------------------*- C++ -*----------------------------------*\
| =========                 |                                                 |
| \\      /  F ield         | foam-extend: Open Source CFD                    |
|  \\    /   O peration     | Version:     4.0                                |
|   \\  /    A nd           | Web:         http://www.foam-extend.org         |
|    \\/     M anipulation  |                                                 |
\*---------------------------------------------------------------------------*/
FoamFile
{
    version     2.0;
    format      ascii;
    class       volScalarField;
    location    "5e-06";
    object      N_electronMean;
}
// * * * * * * * * * * * * * * * * * * * * * * * * * * * * * * * * * * * * * //

dimensions      [0 0 0 1 0 0 0];

internalField   nonuniform List<scalar> 
300
(
5.99983613654226e+16
5.99968901796665e+16
5.99927932137471e+16
5.9985577161854e+16
5.99752735093497e+16
5.99618426925521e+16
5.99452606434942e+16
5.99255133860089e+16
5.99025882572461e+16
5.98764759528717e+16
5.98471699244544e+16
5.98146661078883e+16
5.97789627443897e+16
5.97400601851423e+16
5.96979607565808e+16
5.96526686265325e+16
5.96041896905609e+16
5.95525314744039e+16
5.94977030391897e+16
5.94397148917978e+16
5.937857890573e+16
5.9314308246261e+16
5.92469172982602e+16
5.91764215923106e+16
5.91028377509653e+16
5.90261834467897e+16
5.89464773248892e+16
5.8863738925846e+16
5.87779886230034e+16
5.86892475376579e+16
5.85975374843926e+16
5.8502880956844e+16
5.84053010504751e+16
5.83048213379261e+16
5.82014657795446e+16
5.80952586518457e+16
5.79862244770475e+16
5.78743879585126e+16
5.77597739100913e+16
5.76424071841968e+16
5.75223126125303e+16
5.73995149455086e+16
5.72740387809975e+16
5.71459085013636e+16
5.7015148221735e+16
5.6881781739247e+16
5.67458324833969e+16
5.66073234703544e+16
5.64662772675188e+16
5.63227159684967e+16
5.61766611928776e+16
5.60281340869901e+16
5.58771552849976e+16
5.57237448366027e+16
5.5567922103642e+16
5.54097056536205e+16
5.52491131681126e+16
5.50861613703621e+16
5.49208659692576e+16
5.4753241604994e+16
5.45833018003741e+16
5.44110589157194e+16
5.42365240991861e+16
5.40597072747312e+16
5.38806171752358e+16
5.36992612945299e+16
5.3515645763425e+16
5.33297752744849e+16
5.31416530439253e+16
5.29512807725496e+16
5.27586586061152e+16
5.25637851156164e+16
5.23666573154126e+16
5.21672706410219e+16
5.19656188802917e+16
5.17616941725484e+16
5.15554870331155e+16
5.13469863172667e+16
5.11361791269993e+16
5.09230507522216e+16
5.07075846605863e+16
5.04897624012819e+16
5.02695635124204e+16
5.00469654878337e+16
4.9821943760834e+16
4.9594471716636e+16
4.93645206488049e+16
4.91320596696062e+16
4.88970556686892e+16
4.86594733072772e+16
4.84192749817816e+16
4.81764208413922e+16
4.79308688207892e+16
4.7682574531069e+16
4.74314911573382e+16
4.71775694321595e+16
4.69207576082826e+16
4.66610014324909e+16
4.63982441201382e+16
4.61324263451752e+16
4.58634862292955e+16
4.55913593022022e+16
4.53159785064715e+16
4.50372742306405e+16
4.47551742612933e+16
4.44696037536143e+16
4.41804852335151e+16
4.38877385830958e+16
4.35912810504673e+16
4.32910272234817e+16
4.29868889909277e+16
4.26787755371257e+16
4.23665933529513e+16
4.20502462717413e+16
4.17296354828624e+16
4.1404659546354e+16
4.10752144751595e+16
4.07411937782669e+16
4.04024884181057e+16
4.00589867817022e+16
3.97105747320168e+16
3.9357135686603e+16
3.89985506861088e+16
3.86346984779735e+16
3.82654555194347e+16
3.78906959243881e+16
3.75102915001374e+16
3.71241118222563e+16
3.67320242601496e+16
3.63338940186511e+16
3.59295842193876e+16
3.55189559829092e+16
3.51018684990045e+16
3.4678179095784e+16
3.42477433988016e+16
3.38104155172477e+16
3.33660480933185e+16
3.29144922932214e+16
3.24555978724275e+16
3.19892132932434e+16
3.15151858057035e+16
3.10333615237522e+16
3.05435855279756e+16
3.0045702012662e+16
2.95395545587912e+16
2.90249863871008e+16
2.85018404577769e+16
2.79699595352202e+16
2.74291862528246e+16
2.68793632803352e+16
2.63203335903024e+16
2.57519406014579e+16
2.51740283531336e+16
2.45864417792216e+16
2.39890268746984e+16
2.33816310134993e+16
2.276410330285e+16
2.21362951646277e+16
2.14980602918675e+16
2.08492543475983e+16
2.01897311594119e+16
1.95193225936694e+16
1.88378090787541e+16
1.81449130393233e+16
1.74403271723795e+16
1.67237474385277e+16
1.59948750653653e+16
1.52534009840079e+16
1.44990060075382e+16
1.37313967369476e+16
1.29503942986793e+16
1.21560893945778e+16
1.13490332287382e+16
1.05304113191771e+16
9.70227670135761e+15
8.86782470184239e+15
8.03160086742747e+15
7.1996900699419e+15
6.37976542326673e+15
5.58090779969326e+15
4.81325474137516e+15
4.0874124878814e+15
3.41363136515971e+15
2.80090289710009e+15
2.25608481268987e+15
1.78316985872863e+15
1.38290456347995e+15
1.05281547309752e+15
787621945619401
579975905967305
421329473879647
302816810174376
216028300387436
153567249113867
108752792754897
76546390456563.4
53436744899320.3
36852433399662
25133418803755.6
17048473067652.5
11536418604321.5
7849957925292.48
5485191236221.44
4039653094037.86
3188304368349.85
2692005504097.73
2397009013120.69
2214549261398.98
2095941803832.43
2014592071512.65
1955622450303.48
1910341203340.7
1873484177670.71
1841727618357.2
1812926906829.35
1785657983583.09
1758973386433.56
1732249515374.24
1705098419630.88
1677276459422.66
1648630220326.02
1619065273064.82
1588564454998.45
1557173277132.78
1524971511697.55
1492061838586.89
1458560972694.67
1424591921370.89
1390279637128.23
1355747434185.72
1321114404869.78
1286494481955.89
1251994167095.58
1217712117093.31
1183738953652.71
1150156473880.86
1117037469011.55
1084446584578.87
1052439583466.43
1021064119689.27
990360548927.701
960361680772.289
931094192942.528
902578248482.969
874828266280.266
847854022218.768
821659666863.321
796245052448.262
771606307738.067
747736609817.656
724628004329.644
702270898779.495
680653484437.789
659761861508.832
639580766480.365
620094585421.652
601286070323.694
583134885488.399
565621025842.67
548726495183.01
532432989871.715
516721041769.996
501571213140.831
486963922934.33
472879826211.008
459300138823.51
446205096363.693
433574522606.956
421389011276.51
409629481353.546
398277893723.261
387318675041.427
376737930265.536
366523038377.626
356662099427.576
347143948674.749
337958062942.583
329094438586.586
320543904662.478
312298143114.291
304349515344.339
296690033029.515
289310790366.887
282188706677.498
275299407737.657
268639565239.285
262215973949.744
256036796865.128
250110333215.048
244417834439.479
238937500401.061
233688590923.123
228708160487.907
223992269270.714
219570917435.281
215520558577.527
211960229178.02
209137016865.127
207442008174.661
207589525966.358
)
;

boundaryField
{
    electrode
    {
        type            calculated;
        value           uniform 5.99983613656588e+16;
    }
    ground
    {
        type            calculated;
        value           uniform 209094551777.62;
    }
    otherfaces
    {
        type            empty;
    }
}


// ************************************************************************* //
