/*--------------------------------*- C++ -*----------------------------------*\
| =========                 |                                                 |
| \\      /  F ield         | foam-extend: Open Source CFD                    |
|  \\    /   O peration     | Version:     4.0                                |
|   \\  /    A nd           | Web:         http://www.foam-extend.org         |
|    \\/     M anipulation  |                                                 |
\*---------------------------------------------------------------------------*/
FoamFile
{
    version     2.0;
    format      ascii;
    class       volScalarField;
    location    "5e-06";
    object      Phi;
}
// * * * * * * * * * * * * * * * * * * * * * * * * * * * * * * * * * * * * * //

dimensions      [0 0 0 1 0 0 0];

internalField   nonuniform List<scalar> 
300
(
699.999924660697
699.99971176742
699.999206595571
699.998442914353
699.997429402177
699.996160691729
699.994637763252
699.992860280218
699.990827796067
699.988539952025
699.985996307505
699.983196384465
699.980139664459
699.976825585004
699.973253539959
699.969422878426
699.965332903754
699.960982872526
699.956371993457
699.951499426226
699.946364280237
699.940965613325
699.935302430386
699.929373681946
699.923178262659
699.916715009746
699.909982701358
699.90298005488
699.895705725164
699.888158302701
699.880336311714
699.872238208194
699.863862377854
699.855207134046
699.846270715639
699.837051284832
699.827546924677
699.817755636047
699.807675334678
699.797303850535
699.78663893119
699.775678244156
699.764419359941
699.752859696993
699.740996472979
699.72882676635
699.716347547592
699.703555680337
699.690447918538
699.677020903085
699.663271158107
699.649195087152
699.634788969305
699.620048955262
699.604971063338
699.589551175443
699.573785032986
699.557668232734
699.541196222599
699.524364297371
699.507167594362
699.489601088995
699.471659590298
699.453337736324
699.434629989472
699.415530631721
699.396033759755
699.376133279986
699.355822903457
699.335096140627
699.313946296021
699.292366462744
699.270349516843
699.247888111519
699.224974671154
699.201601385177
699.177760201718
699.153442821068
699.128640688915
699.10334498934
699.077546637565
699.051236272423
699.024404248549
698.99704062825
698.969135173045
698.94067733485
698.911656246777
698.882060713526
698.85187920133
698.821099827434
698.789710349063
698.757698151843
698.725050237639
698.691753211762
698.657793269505
698.623156181939
698.587827280946
698.551791443395
698.515033074419
698.477536089722
698.439283896829
698.400259375216
698.360444855211
698.319822095592
698.278372259768
698.236075890424
698.192912882526
698.148862454543
698.103903117736
698.058012643373
698.011168027685
697.963345454386
697.914520254542
697.864666863579
697.813758775181
697.761768491795
697.708667471484
697.65442607076
697.599013483083
697.542397672608
697.484545302756
697.42542165913
697.364990566255
697.303214297537
697.240053477818
697.175466977778
697.10941179939
697.041842951534
696.972713314769
696.901973494112
696.829571658546
696.755453366152
696.679561372269
696.601835420862
696.522212014225
696.44062416187
696.357001103951
696.271268003902
696.183345613772
696.093149918355
696.00059168488
695.905575995399
695.808001984032
695.707761858154
695.604739704056
695.498811372849
695.389843826753
695.277694211531
695.162208845208
695.04322207563
694.92055498203
694.794013945049
694.663388894811
694.528451536025
694.388953075546
694.244621525171
694.095159767585
693.940239876802
693.779503474728
693.612551365182
693.438944157691
693.258193175977
693.069745697892
692.87300142083
692.667148715992
692.451167087768
692.224002141347
691.984496671413
691.731338672886
691.462972705998
691.177527988013
690.872851035739
690.546340582267
690.195195460251
689.816648615572
689.407210508589
688.962769559562
688.479353206662
687.952547804798
687.377159174156
686.748288682294
686.060868462291
685.309105102986
684.48796909188
683.592443247433
682.617304014663
681.55815247329
680.411400491259
679.173233320459
677.840875287097
676.412460839398
674.886695073404
673.262107269802
671.538391979576
669.715736008814
667.794702495675
665.775450349232
663.658466534323
661.44355101529
659.131482699168
656.721975418052
654.214169750637
651.607519018529
648.901059941362
646.094759032116
643.188969607098
640.184511861083
637.082319489366
633.88336999437
630.588600610984
627.198898061353
623.715063975669
620.137820722956
616.468004182447
612.706638419617
608.854646140726
604.912887034432
600.882127831567
596.763086036859
592.556393062665
588.262644141641
583.882352345671
579.416005579029
574.86401383455
570.226771394977
565.504672843256
560.698338669699
555.808312421718
550.835143733382
545.779308691673
540.641295362894
535.421520399628
530.120417725802
524.738351541535
519.275708770077
513.732807440118
508.109993172591
502.407543172191
496.62576661739
490.764904065699
484.825232265202
478.806958338781
472.710329013634
466.535721409448
460.283548090541
453.954156306999
447.547932411426
441.065197266777
434.506314057046
427.871579858481
421.161337222612
414.37586148891
407.51547636671
400.580437423143
393.57105165145
386.487556577443
379.330244039344
372.099334869581
364.795106736679
357.417764080435
349.967570450512
342.444714126776
334.849444749717
327.181934714191
319.442420241276
311.631058682033
303.748073942667
295.793688405897
287.768239315909
279.671983157872
271.505245046151
263.268267428919
254.961363730405
246.584762786275
238.138766694122
229.623591318146
221.039528042094
212.386780514939
203.665630074349
194.876269076786
186.018969411652
177.093912795143
168.101361959548
159.041488036883
149.914544791158
140.720692841519
131.46017720119
122.133147859042
112.739841178424
103.280396724898
93.755042611131
84.1639087238549
74.5072159586713
64.7850852786544
54.997730832293
45.1452658252493
35.2278988430487
25.245736397745
15.1989830310871
5.08773989904083
)
;

boundaryField
{
    electrode
    {
        type            fixedValue;
        value           uniform 700;
    }
    ground
    {
        type            fixedValue;
        value           uniform 0;
    }
    otherfaces
    {
        type            empty;
    }
}


// ************************************************************************* //
