/*--------------------------------*- C++ -*----------------------------------*\
| =========                 |                                                 |
| \\      /  F ield         | foam-extend: Open Source CFD                    |
|  \\    /   O peration     | Version:     4.0                                |
|   \\  /    A nd           | Web:         http://www.foam-extend.org         |
|    \\/     M anipulation  |                                                 |
\*---------------------------------------------------------------------------*/
FoamFile
{
    version     2.0;
    format      ascii;
    class       volScalarField;
    location    "5e-06";
    object      PhiMean;
}
// * * * * * * * * * * * * * * * * * * * * * * * * * * * * * * * * * * * * * //

dimensions      [0 0 0 1 0 0 0];

internalField   nonuniform List<scalar> 
300
(
699.985283412119
699.983842691744
699.982137228731
699.980187863651
699.978004103846
699.975578915603
699.972911436118
699.970000401319
699.966844583186
699.963443070943
699.95979509474
699.955900052425
699.9517574728
699.947367004615
699.942728404481
699.937841524782
699.932706303766
699.927322758997
699.921690979064
699.9158111158
699.909683378684
699.903308029243
699.896685375624
699.889815767321
699.882699589018
699.875337267209
699.867729257647
699.859876040563
699.851778119353
699.843436011134
699.834850239747
699.826021349006
699.816949893621
699.807636421979
699.798081472192
699.788285567385
699.778249210118
699.767972879772
699.757457026921
699.746702066757
699.735708376025
699.724476290027
699.713006094517
699.701298021752
699.689352246654
699.677168883193
699.664747979969
699.652089517112
699.639193402834
699.626059474159
699.612687495944
699.599077171913
699.585228133502
699.571139940604
699.556812062116
699.54224386787
699.527434614589
699.512383439802
699.497089355999
699.481551244084
699.465767848083
699.449737769306
699.433459459519
699.416931213955
699.400151188245
699.383117390903
699.365827653627
699.348279625586
699.330470767318
699.31239834357
699.294059415998
699.275450834398
699.256569242847
699.237411076426
699.21797253695
699.198249594865
699.178237996614
699.157933248559
699.137330605967
699.116425041643
699.095211271026
699.073683708625
699.051836454395
699.029663286279
699.007157644138
698.984312636474
698.961121021946
698.93757518196
698.913667105783
698.889388386708
698.864730201623
698.83968329331
698.814237996422
698.788384176094
698.762111206135
698.735407952878
698.708262753465
698.680663397449
698.652597100801
698.624050488225
698.595009571628
698.565459719082
698.535385622831
698.504771303051
698.473600050556
698.441854398412
698.409516099187
698.376566074172
698.342984396116
698.308750236991
698.273841818788
698.238236372192
698.201910086137
698.16483806766
698.126994290485
698.088351526244
698.048881309386
698.008553881202
697.967338096464
697.925201341934
697.882109455557
697.83802666635
697.7929154857
697.746736641255
697.699448951115
697.65100918351
697.601371928724
697.550489483692
697.498311679703
697.444785724475
697.389856026912
697.333464010248
697.275547898254
697.216042477978
697.154878854888
697.091984226402
697.027281540183
696.960689144676
696.892120392468
696.821483249051
696.748679812474
696.673605794963
696.59614994563
696.516193397188
696.433608989286
696.348260507953
696.260001736623
696.168675422925
696.074112082149
695.97612865268
695.87452704713
695.769092368566
695.659590899091
695.545767844355
695.427344614583
695.304015688706
695.175445124076
695.041262086029
694.90105636933
694.754371226786
694.600698501444
694.439462687239
694.269991741996
694.091495327583
693.903059894665
693.703645691591
693.492059693101
693.266903381863
693.026525160812
692.768960597729
692.491889675269
692.192613218252
691.86805906565
691.514670540422
691.128349519519
690.704552695649
690.238206657473
689.723725362881
689.155229471101
688.526459710605
687.83098728238
687.062452722081
686.214678288051
685.281765102058
684.258590171385
683.140663297678
681.924306558194
680.606815201684
679.186427882332
677.662150081269
676.033642951046
674.301145291872
672.465481081152
670.52790783922
668.489526295342
666.35125177804
664.113773261557
661.777523024673
659.342931545032
656.810313191332
654.179866895372
651.451849198211
648.626603778584
645.704786611162
642.68733981357
639.575264525589
636.369584775544
633.071261947666
629.681211096988
626.200259812105
622.629182227833
618.968664012439
615.219448740692
611.382421506956
607.458437929419
603.448273594226
599.352662175678
595.172266496769
590.907717952096
586.559584755767
582.128412736277
577.61469097172
573.018894092061
568.341446020036
563.582764452739
558.743328795112
553.823733820631
548.824524105083
543.74624139125
538.589380075712
533.354436539666
528.041861835333
522.652114354394
517.185611609774
511.642782693731
506.024015145753
500.329710996175
494.560231080062
488.715953740259
482.797216457528
476.804377286105
470.737754222554
464.597691745383
458.384588165784
452.098916816107
445.741101370016
439.311592966239
432.810792455468
426.239130645793
419.59698717546
412.884774163019
406.102851366301
399.251613661203
392.331402028825
385.342595359798
378.285516835334
371.160530414585
363.967942374831
356.708102627538
349.381301401448
341.987875303047
334.528099292792
327.002297407958
319.410729861696
311.753708815871
304.031484452304
296.244368794815
288.392616253181
280.47658754174
272.496601177482
264.453048208709
256.346233688201
248.176537825505
239.944251411697
231.649744495333
223.293294085862
214.875260700567
206.395908064078
197.855587737045
189.254550645419
180.593139928785
171.871594110771
163.090248448708
154.249329447564
145.349165141739
136.389970474239
127.372066792242
118.295657789686
109.161058605911
99.9684619778699
90.7181772467394
81.4103867256419
72.0453946689988
62.6233732761487
53.1446220648111
43.6093037871387
34.0177140961791
24.3700067888723
14.6664747905327
4.90726388865903
)
;

boundaryField
{
    electrode
    {
        type            calculated;
        value           uniform 700.000000000161;
    }
    ground
    {
        type            calculated;
        value           uniform 0;
    }
    otherfaces
    {
        type            empty;
    }
}


// ************************************************************************* //
