/*--------------------------------*- C++ -*----------------------------------*\
| =========                 |                                                 |
| \\      /  F ield         | foam-extend: Open Source CFD                    |
|  \\    /   O peration     | Version:     4.0                                |
|   \\  /    A nd           | Web:         http://www.foam-extend.org         |
|    \\/     M anipulation  |                                                 |
\*---------------------------------------------------------------------------*/
FoamFile
{
    version     2.0;
    format      ascii;
    class       volScalarField;
    location    "5e-06";
    object      Sy_electron;
}
// * * * * * * * * * * * * * * * * * * * * * * * * * * * * * * * * * * * * * //

dimensions      [1 -3 -1 0 0 0 0];

internalField   nonuniform List<scalar> 
300
(
3.43155793995418e-09
3.43236631186712e-09
3.43268981221473e-09
3.43264131145514e-09
3.43262443142787e-09
3.43256151296325e-09
3.43246234127269e-09
3.43233216543751e-09
3.43216854586517e-09
3.43197170953235e-09
3.43174143447039e-09
3.43147740857781e-09
3.43117937298635e-09
3.43084704461912e-09
3.43048013254243e-09
3.43007833800447e-09
3.42964135245468e-09
3.42916885755832e-09
3.42866052459944e-09
3.42811601390014e-09
3.42753497425715e-09
3.42691704232125e-09
3.42626184195902e-09
3.42556898360481e-09
3.42483806353489e-09
3.42406866323717e-09
3.42326034861015e-09
3.42241266921586e-09
3.42152515753171e-09
3.42059732812702e-09
3.41962867681421e-09
3.41861867982939e-09
3.41756679286274e-09
3.41647245017452e-09
3.41533506422223e-09
3.41415402580652e-09
3.41292870269582e-09
3.41165843262019e-09
3.41034251234509e-09
3.40898020195581e-09
3.40757077645924e-09
3.40611362098111e-09
3.40460823202668e-09
3.40345162713753e-09
3.40279700479663e-09
3.40211346117117e-09
3.40139994833009e-09
3.40065546721072e-09
3.39987900723616e-09
3.39906953068717e-09
3.39822596657107e-09
3.39734720784873e-09
3.39643210958583e-09
3.39547948757471e-09
3.39448811694603e-09
3.39345673093287e-09
3.39238401957965e-09
3.39126862853714e-09
3.39010915786105e-09
3.38890416081505e-09
3.38765214272433e-09
3.38635155981225e-09
3.38500081806933e-09
3.38359827214251e-09
3.38214222431204e-09
3.38063092344197e-09
3.37906256385865e-09
3.37743528439894e-09
3.37574716742754e-09
3.37399623787277e-09
3.37218046229569e-09
3.37029774797565e-09
3.36834594205425e-09
3.36632283068179e-09
3.36422613815319e-09
3.36205352614655e-09
3.35980259293471e-09
3.3574708726202e-09
3.35505583443939e-09
3.35255488195385e-09
3.34996535254313e-09
3.34728451658169e-09
3.34450957684686e-09
3.34163766790494e-09
3.33866585545836e-09
3.33559113580818e-09
3.33241043524285e-09
3.3291206094278e-09
3.32571844282593e-09
3.32220064816964e-09
3.31856386583162e-09
3.31480466319394e-09
3.31091953425045e-09
3.30690489875966e-09
3.30275710166781e-09
3.29847241244525e-09
3.2940470243544e-09
3.28947705368733e-09
3.28475853893747e-09
3.27988743993355e-09
3.27485963687293e-09
3.26967092926159e-09
3.26431703472323e-09
3.25879358787168e-09
3.25309613879279e-09
3.24722015156838e-09
3.24116100262133e-09
3.23491397879033e-09
3.22847427535888e-09
3.22183699373729e-09
3.21499713897429e-09
3.20794961698523e-09
3.20068923150574e-09
3.19321068074939e-09
3.18550855368858e-09
3.17757732595776e-09
3.16941135538426e-09
3.16100487710623e-09
3.15235199805991e-09
3.14344669105199e-09
3.1342827882066e-09
3.12485397388332e-09
3.11515377673737e-09
3.10517556123486e-09
3.09491251820177e-09
3.0843576545604e-09
3.07350378207979e-09
3.06234350519478e-09
3.05086920772799e-09
3.03907303783722e-09
3.0269468928428e-09
3.0144824013965e-09
3.00167090420869e-09
2.98850343473114e-09
2.97497069405824e-09
2.96106303101346e-09
2.94677041778496e-09
2.93208238690073e-09
2.91698805197469e-09
2.90147618712094e-09
2.88553468643339e-09
2.86915109446731e-09
2.8523143894627e-09
2.83668900793086e-09
2.82073494675824e-09
2.80430432109335e-09
2.78738078207549e-09
2.76994730795722e-09
2.7519859404502e-09
2.73347762337426e-09
2.71440221958482e-09
2.69473836392257e-09
2.67446311970093e-09
2.6535528053346e-09
2.63198079179695e-09
2.60972069289372e-09
2.5867426267359e-09
2.56301457011331e-09
2.53850715189133e-09
2.51317983899983e-09
2.48701553488269e-09
2.45998065926416e-09
2.43219357996895e-09
2.40397691471975e-09
2.37510160022708e-09
2.34489160970594e-09
2.31312704628757e-09
2.27993436824629e-09
2.24180629518641e-09
2.20194167974757e-09
2.16035143045561e-09
2.11660421808198e-09
2.06955126155506e-09
2.01886481090468e-09
1.96538289895547e-09
1.90838632488121e-09
1.84652530739867e-09
1.78058024264926e-09
1.70875611011167e-09
1.6260097146937e-09
1.54085375992117e-09
1.4553724207542e-09
1.37080119560911e-09
1.29066461438392e-09
1.20865175141981e-09
1.13160815040995e-09
1.07174113277218e-09
1.02138885642526e-09
9.90390727019496e-10
9.77030413108869e-10
9.92992797357418e-10
1.04250242457171e-09
1.13742822670159e-09
1.29638650370038e-09
1.55194831986184e-09
1.98042998752053e-09
2.68900304535185e-09
3.85502359429523e-09
5.11336516983177e-09
6.2081297466598e-09
7.32898706198809e-09
7.39824719115858e-09
6.59648431291114e-09
5.35749619843281e-09
4.10129976672882e-09
3.13703312632951e-09
2.45019817692454e-09
2.00541774423417e-09
1.72752105786912e-09
1.54949273674595e-09
1.44711127268849e-09
1.38162496879294e-09
1.34728620280713e-09
1.33126041113387e-09
1.32220585093283e-09
1.32071613026644e-09
1.32337122039384e-09
1.3278243344682e-09
1.33268833468089e-09
1.33695759799024e-09
1.33993395873628e-09
1.34027827633481e-09
1.33778153807246e-09
1.33316824226005e-09
1.32638291626257e-09
1.31744162093474e-09
1.30641437829622e-09
1.29340878388336e-09
1.27855794928829e-09
1.26201206438666e-09
1.24393179326658e-09
1.22448312184163e-09
1.20383329172739e-09
1.18214761107103e-09
1.15958696703108e-09
1.13630591847927e-09
1.11245126562582e-09
1.0881610222107e-09
1.06356369397896e-09
1.03877788988427e-09
1.01391172818326e-09
9.8906339225612e-10
9.64313824759632e-10
9.39731881504773e-10
9.1538778985793e-10
8.91348050838061e-10
8.67670426335624e-10
8.44404372850382e-10
8.21591339240647e-10
7.99265394017845e-10
7.77453843325492e-10
7.56177862059291e-10
7.35453108809355e-10
7.1529039054798e-10
6.95696342929815e-10
6.76675427862578e-10
6.58224972003232e-10
6.40337666287983e-10
6.23007729254067e-10
6.06229258364416e-10
5.89992183196053e-10
5.74285110172723e-10
5.59095375623492e-10
5.4440945455646e-10
5.30213187256401e-10
5.16491990395977e-10
5.03231167717254e-10
4.90416028786733e-10
4.78031757390932e-10
4.66058955218335e-10
4.54470879621158e-10
4.43246502940422e-10
4.32373401143659e-10
4.21840020935498e-10
4.11635758469138e-10
4.01750551149551e-10
3.92174939016767e-10
3.82900102213299e-10
3.7391793078157e-10
3.65221074065198e-10
3.56803006292954e-10
3.48657573349642e-10
3.40493638995661e-10
3.32252229109157e-10
3.24214632757839e-10
3.16363351400475e-10
3.08709497409264e-10
3.01266491097627e-10
2.94048742871279e-10
2.8638987438902e-10
2.78360255439992e-10
2.70508900822349e-10
2.62888839504563e-10
2.54127851483547e-10
2.44910691347968e-10
2.35411112736505e-10
2.23710923284293e-10
2.10276775187631e-10
1.93364195486639e-10
1.69415802420445e-10
)
;

boundaryField
{
    electrode
    {
        type            zeroGradient;
    }
    ground
    {
        type            zeroGradient;
    }
    otherfaces
    {
        type            empty;
    }
}


// ************************************************************************* //
