/*--------------------------------*- C++ -*----------------------------------*\
| =========                 |                                                 |
| \\      /  F ield         | foam-extend: Open Source CFD                    |
|  \\    /   O peration     | Version:     4.0                                |
|   \\  /    A nd           | Web:         http://www.foam-extend.org         |
|    \\/     M anipulation  |                                                 |
\*---------------------------------------------------------------------------*/
FoamFile
{
    version     2.0;
    format      ascii;
    class       volScalarField;
    location    "5e-06";
    object      Te;
}
// * * * * * * * * * * * * * * * * * * * * * * * * * * * * * * * * * * * * * //

dimensions      [0 0 0 1 0 0 0];

internalField   nonuniform List<scalar> 
300
(
40295.6226438869
40295.9254803559
40296.1114317711
40296.2259978697
40296.4049112786
40296.6222966842
40296.8815865357
40297.1845924782
40297.5305689745
40297.9196706926
40298.3519082055
40298.8272706062
40299.3457731439
40299.9074314813
40300.5122673686
40301.1603088171
40301.8515896254
40302.5861495815
40303.3640344776
40304.1852961441
40305.0499924965
40305.9581875783
40306.9099516154
40307.9053610704
40308.9444987007
40310.0274536216
40311.1543213762
40312.3252040058
40313.5402101271
40314.7994550183
40316.1030607024
40317.4511560237
40318.8438767165
40320.2813655123
40321.7637724163
40323.2912551859
40324.8639793452
40326.4821163158
40328.1458401043
40329.8553287932
40331.610781911
40333.4124537746
40335.2606584222
40337.1556658901
40339.0976376775
40341.086734786
40343.1231823851
40345.2072391902
40347.3391797458
40349.5192902687
40351.7478674355
40354.025218166
40356.3516597384
40358.7275200109
40361.1531376774
40363.6288625508
40366.1550558526
40368.7320905172
40371.3603515121
40374.0402361609
40376.7721544859
40379.5565295608
40382.3937978778
40385.2844097286
40388.2288296008
40391.2275365921
40394.2810248374
40397.3898039563
40400.5543995195
40403.775353532
40407.0532249383
40410.3885901484
40413.7820435854
40417.2341982586
40420.7456863608
40424.3171598901
40427.9492912996
40431.6427741778
40435.3983239567
40439.2166786548
40443.0985996512
40447.0448724968
40451.0563077635
40455.1337419337
40459.2780383285
40463.4900880838
40467.770811175
40472.1211574864
40476.542107936
40481.0346756591
40485.5999072476
40490.2388840522
40494.9527235574
40499.7425808176
40504.6096499786
40509.5551658778
40514.5804057253
40519.6866908821
40524.8753887326
40530.1479146645
40535.5057341589
40540.9503649985
40546.4833796053
40552.1064075135
40557.8211379912
40563.6293228193
40569.5327792334
40575.5333930579
40581.6331220277
40587.8339993217
40594.1381373268
40600.5477316429
40607.065065355
40613.6925135937
40620.432548403
40627.2877439445
40634.2607820698
40641.3544582893
40648.57168817
40655.9155142108
40663.389113225
40670.995804288
40678.7390573042
40686.622502239
40694.6499390945
40702.8253487069
40711.1529044254
40719.6369847785
40728.2821873022
40737.0933433528
40746.0755346692
40755.2341110181
40764.5747095489
40774.1032765396
40783.8260899161
40793.7497864246
40803.8813908042
40814.2283356627
40824.7985131626
40835.6003526924
40846.6426939488
40857.9350240321
40869.488171073
40881.3135391564
40893.4222847366
40905.8263545656
40918.5390746318
40931.5748679751
40944.9493007605
40958.6791795357
40972.7827285625
40987.2797357565
41002.1916553762
41017.5421508879
41033.3566168139
41049.663632317
41066.494037077
41083.8818383203
41101.8665044156
41120.4885471964
41139.8031270293
41159.8665548989
41180.8027310861
41202.832507132
41225.9886166873
41250.144461559
41275.3611344773
41301.8536172931
41329.8704388496
41359.6043169632
41391.212687906
41424.8101974454
41460.1963852531
41497.5540972439
41537.6680078928
41580.6081723442
41626.1011701857
41674.9685812323
41727.99199871
41785.2425291238
41848.1697159571
41918.7407592812
41998.5305119365
42091.2294658662
42202.0950272343
42337.0489712563
42505.5703764878
42721.3117340503
43001.3408453258
43369.6680523005
43860.3476331037
44524.3912813952
45427.2911647448
46647.367151233
48334.2707602702
50696.5664978977
54022.0663701353
58775.1531175925
64791.3913213334
72803.9229288146
85359.5014722486
102369.238838967
125642.728791433
157596.004964809
199967.277091469
252692.83646197
313015.938335428
376505.27937966
438837.057438163
496949.154755497
549401.615816276
595754.596262858
636249.081665339
671563.536522752
702325.429078826
729199.065533969
752847.927872117
773819.968635299
792552.382967018
809406.276277599
824662.239348392
838557.876085901
851313.700839277
863101.164186329
874062.723431907
884315.65703042
893957.47229929
903068.98453594
911717.100250805
919957.205457035
927834.977693376
935387.860290501
942646.254882282
949634.498053753
956371.6650795
962872.23581204
969146.651136038
975201.784209403
981041.328091147
986666.203391721
992074.66922069
997263.914003882
1002226.81478639
1006952.66017904
1011432.76421111
1015657.38227076
1019614.40576451
1023290.48033595
1026671.05747687
1029740.57728114
1032482.57554616
1034879.78903527
1036914.23322243
1038567.28454556
1039819.45070123
1040650.36183996
1041032.68277455
1040965.12384356
1040415.81526769
1039364.7710169
1037789.94265852
1035669.75231689
1032982.24246948
1029705.21476324
1025816.16560274
1021292.22432116
1016110.20372212
1010246.6165661
1003678.95969758
996384.412261424
988335.440662575
979506.516212876
969874.183963257
959411.171691571
948089.24236172
935878.717344978
922748.490022355
908665.807732036
893596.063606097
877502.517547536
860346.180544519
842085.305974703
822678.948314269
802084.570398679
780245.230838032
757103.132144085
732597.421764798
706649.50814487
679179.908687031
650101.899759805
619304.718523563
586659.804153663
552031.221164462
515231.222881242
476031.874630684
434149.828212845
389185.720810112
340585.071960487
287538.147867908
228984.108148629
)
;

boundaryField
{
    electrode
    {
        type            electronTemperature;
        seec            0.05;
        Tse             1000;
        Edepend         1;
        TFN             1000;
        field_emission  0;
        field_enhancement_factor 55;
        work_function   5;
        value           uniform 40295.6226438869;
    }
    ground
    {
        type            electronTemperature;
        seec            0.05;
        Tse             1000;
        Edepend         1;
        TFN             1000;
        field_emission  0;
        field_enhancement_factor 55;
        work_function   5;
        value           uniform 195765.294894662;
    }
    otherfaces
    {
        type            empty;
    }
}


// ************************************************************************* //
