/*--------------------------------*- C++ -*----------------------------------*\
| =========                 |                                                 |
| \\      /  F ield         | foam-extend: Open Source CFD                    |
|  \\    /   O peration     | Version:     4.0                                |
|   \\  /    A nd           | Web:         http://www.foam-extend.org         |
|    \\/     M anipulation  |                                                 |
\*---------------------------------------------------------------------------*/
FoamFile
{
    version     2.0;
    format      ascii;
    class       volScalarField;
    location    "5e-06";
    object      TeMean;
}
// * * * * * * * * * * * * * * * * * * * * * * * * * * * * * * * * * * * * * //

dimensions      [0 0 0 1 0 0 0];

internalField   nonuniform List<scalar> 
300
(
33859.5355690761
33859.8264130145
33859.9383385661
33859.9022558608
33859.8718827064
33859.8280396489
33859.7734613415
33859.7112486991
33859.6416542622
33859.5654749998
33859.4834314688
33859.396206663
33859.3044672162
33859.2088386766
33859.1099258497
33859.0083109095
33858.9045518118
33858.7991883428
33858.6927415314
33858.5857134081
33858.4785905569
33858.3718414134
33858.2659193252
33858.1612616099
33858.0582890353
33857.9574198852
33857.8590606111
33857.7636024403
33857.6714323665
33857.5829182692
33857.4984072594
33857.4182570454
33857.3428327943
33857.2724820368
33857.2075418326
33857.1483336186
33857.0951734748
33857.0483834439
33857.0082804185
33856.9751703951
33856.9493509711
33856.9311256216
33856.9207928393
33856.9186425139
33856.92496117
33856.9400321651
33856.9641348311
33856.9975428953
33857.0405202282
33857.0933207399
33857.1561887332
33857.229377748
33857.3131611793
33857.4078087784
33857.5135927968
33857.6307956376
33857.7596896495
33857.9005396704
33858.0536195501
33858.2192040214
33858.3975667047
33858.5889917551
33858.7937429219
33859.0120767241
33859.2442877162
33859.4906895142
33859.7515909918
33860.0272988953
33860.318122702
33860.6243808569
33860.9463903851
33861.2844557117
33861.6389019569
33862.0100702253
33862.3982902809
33862.8038837897
33863.2272000521
33863.668625716
33864.1285357507
33864.6073012528
33865.1053334649
33865.62305782
33866.1608860691
33866.7192259829
33867.2984939255
33867.8991440041
33868.5216625299
33869.1665327256
33869.8342377168
33870.5252856534
33871.2401817298
33871.9794431131
33872.7436609187
33873.5334221912
33874.3493153333
33875.1919742722
33876.0620415853
33876.9601823132
33877.8870774001
33878.8434352001
33879.8300111033
33880.8475499934
33881.8968200508
33882.9786620763
33884.0939403224
33885.2435416984
33886.4283803355
33887.6494083565
33888.9076316957
33890.2040924603
33891.5398747722
33892.9161036354
33894.3339392075
33895.7946168491
33897.2994098223
33898.8496275099
33900.4466304601
33902.0918672425
33903.7868781799
33905.5332201911
33907.3325129772
33909.1864680802
33911.0968698486
33913.0656100737
33915.0947016668
33917.1862320446
33919.3423592921
33921.5653757702
33923.8577107497
33926.2218885021
33928.6605613898
33931.1765496491
33933.7728442307
33936.4525471778
33939.2189253268
33942.0755252355
33945.0261300574
33948.074735753
33951.2255905046
33954.4832306722
33957.8525075685
33961.3386074168
33964.947064372
33968.6837731987
33972.5551073338
33976.5680253508
33980.7300881154
33985.0495228673
33989.5352058691
33994.1968066807
33999.0450199977
34004.0915646843
34009.3493418868
34014.8327345412
34020.5576283306
34026.5418212533
34032.8051849781
34039.3706736897
34046.2646986186
34053.520562792
34061.1916493105
34069.3488587231
34078.0515523861
34087.3336137824
34097.2312320556
34107.8233756427
34119.2301894854
34131.5847560991
34145.0141694169
34159.6162515075
34175.4363883241
34192.528523256
34211.0385389483
34231.0481587178
34252.5540193966
34275.6989836001
34300.6503895112
34327.6799424975
34357.5347341676
34391.4296015435
34431.3813526197
34480.96951614
34545.7515148016
34634.1342042414
34759.1223160786
34939.9448423837
35204.7214455437
35595.2785260152
36174.1230672893
37036.2636454166
38328.6381547377
40284.0205608552
43280.3871660197
48052.8548953329
55336.7204064344
65612.2661615006
80582.2614774915
100987.74205665
128372.22730457
163245.390829889
205221.116228318
252812.093278176
304284.330591679
357548.190343826
410619.449655265
461780.934260912
509680.375169062
553417.272198506
592620.178832595
627352.451849768
657939.332021398
684832.364211118
708535.653738328
729528.933907057
748232.849949727
765024.345367318
780223.004533169
794091.274750449
806842.846535717
818653.73414691
829666.407331154
839996.74341791
849745.845231977
858999.127510808
867825.765054158
876282.362098673
884415.348452274
892262.497197439
899854.253720201
907214.856754809
914363.21591394
921313.639927967
928076.435037821
934658.30835622
941062.842857223
947290.93325776
953341.016669909
959209.357163913
964890.274108941
970376.356690246
975658.641106526
980726.758084334
985569.182852732
990173.17025976
994524.996179944
998610.426519738
1002414.22203251
1005920.52634815
1009113.10395673
1011974.94306069
1014489.20402547
1016638.96945178
1018406.68022136
1019774.52783845
1020724.30129578
1021237.42283626
1021292.00996644
1020874.33182424
1019969.76642229
1018555.25133309
1016611.9009707
1014120.43178442
1011061.67033772
1007416.2511821
1003164.59797388
998287.365300262
992764.422953077
986574.974050747
979698.737889721
972114.41112741
963799.926211796
954733.09070447
944890.822557068
934248.75078605
922781.255969977
910461.423646944
897260.917831959
883149.78005601
868096.269065782
852066.572098056
835024.753440811
816932.418921964
797753.721848554
777443.028151155
755947.228116478
733215.053880259
709183.695553679
683779.552824238
656930.869722877
628551.118090504
598533.210128157
566758.790907522
533091.45462313
497351.064234487
459320.631700016
418724.747198628
375174.392539831
328138.53115966
276840.608143215
220253.68829746
)
;

boundaryField
{
    electrode
    {
        type            calculated;
        value           uniform 33859.5355690785;
    }
    ground
    {
        type            calculated;
        value           uniform 188166.847028386;
    }
    otherfaces
    {
        type            empty;
    }
}


// ************************************************************************* //
