/*--------------------------------*- C++ -*----------------------------------*\
| =========                 |                                                 |
| \\      /  F ield         | foam-extend: Open Source CFD                    |
|  \\    /   O peration     | Version:     4.0                                |
|   \\  /    A nd           | Web:         http://www.foam-extend.org         |
|    \\/     M anipulation  |                                                 |
\*---------------------------------------------------------------------------*/
FoamFile
{
    version     2.0;
    format      ascii;
    class       volScalarField;
    location    "0";
    object      Phi;
}
// * * * * * * * * * * * * * * * * * * * * * * * * * * * * * * * * * * * * * //

dimensions      [0 0 0 1 0 0 0];

internalField   uniform 99;

boundaryField
{
    dielectric_2
    {
        type            coupledPotential;
        surfaceCharge   true;
        remoteField     Phi;
        value           nonuniform 0();
    }
    dielectric_1
    {
        type            coupledPotential;
        surfaceCharge   true;
        remoteField     Phi;
        value           nonuniform 0();
    }
    otherfaces
    {
        type            empty;
    }
    procBoundary0to1
    {
        type            processor;
        value           uniform 99;
    }
    procBoundary0to2
    {
        type            processor;
        value           uniform 99;
    }
}


// ************************************************************************* //
