/*--------------------------------*- C++ -*----------------------------------*\
| =========                 |                                                 |
| \\      /  F ield         | foam-extend: Open Source CFD                    |
|  \\    /   O peration     | Version:     4.0                                |
|   \\  /    A nd           | Web:         http://www.foam-extend.org         |
|    \\/     M anipulation  |                                                 |
\*---------------------------------------------------------------------------*/
FoamFile
{
    version     2.0;
    format      ascii;
    class       volVectorField;
    location    "5e-10";
    object      E;
}
// * * * * * * * * * * * * * * * * * * * * * * * * * * * * * * * * * * * * * //

dimensions      [0 0 0 1 0 0 0];

internalField   nonuniform List<vector> 
250
(
(-0 11327.3754935925 -0)
(-0 7551.46523501408 -0)
(-0 7551.46518568551 -0)
(-0 7551.465405655 -0)
(-0 7551.46557326843 -0)
(-0 7551.46581037048 -0)
(-0 7551.4662254105 -0)
(-0 7551.46632033346 -0)
(-0 7551.46616278382 -0)
(-0 7551.4659213533 -0)
(-0 7551.4660542197 -0)
(-0 7551.46619856617 -0)
(-0 7551.466381339 -0)
(-0 7551.46659259434 -0)
(-0 7551.46654105765 -0)
(-0 7551.46648341326 -0)
(-0 7551.46643071592 -0)
(-0 7551.46629685029 -0)
(-0 7551.46613774623 -0)
(-0 7551.46602040719 -0)
(-0 7551.46589205605 -0)
(-0 7551.46585567567 -0)
(-0 7551.46568990204 -0)
(-0 7551.46546377601 -0)
(-0 7551.4654588586 -0)
(-0 7551.46550703094 -0)
(-0 7551.46566884963 -0)
(-0 7551.46570087824 -0)
(-0 7551.46569969099 -0)
(-0 7551.46591208192 -0)
(-0 7551.46608709186 -0)
(-0 7551.46614479388 -0)
(-0 7551.46606331372 -0)
(-0 7551.46606334448 -0)
(-0 7551.46623691344 -0)
(-0 7551.46628599885 -0)
(-0 7551.4662311637 -0)
(-0 7551.46614568352 -0)
(-0 7551.46590459307 -0)
(-0 7551.46564793602 -0)
(-0 7551.46561289807 -0)
(-0 7551.46578554679 -0)
(-0 7551.46603825361 -0)
(-0 7551.46615684542 -0)
(-0 7551.46616833306 -0)
(-0 7551.46614644486 -0)
(-0 7551.46604771417 -0)
(-0 7551.46598694714 -0)
(-0 7551.46594987987 -0)
(-0 7551.46591666212 -0)
(-0 7551.4658135676 -0)
(-0 7551.46591735058 -0)
(-0 7551.46616903178 -0)
(-0 7551.46623812708 -0)
(-0 7551.4662263328 -0)
(-0 7551.46621366249 -0)
(-0 7551.4662273705 -0)
(-0 7551.4662355683 -0)
(-0 7551.46615258196 -0)
(-0 7551.466010718 -0)
(-0 7551.46598822789 -0)
(-0 7551.46606906071 -0)
(-0 7551.46600984102 -0)
(-0 7551.46601478263 -0)
(-0 7551.46604316027 -0)
(-0 7551.46592604656 -0)
(-0 7551.46594027126 -0)
(-0 7551.46593425053 -0)
(-0 7551.46590895593 -0)
(-0 7551.46598325464 -0)
(-0 7551.46594505251 -0)
(-0 7551.4659303929 -0)
(-0 7551.46592327674 -0)
(-0 7551.46586661056 -0)
(-0 7551.46585144051 -0)
(-0 7551.46592587102 -0)
(-0 7551.46601220107 -0)
(-0 7551.46607950313 -0)
(-0 7551.46612640873 -0)
(-0 7551.46615293127 -0)
(-0 7551.4662817105 -0)
(-0 7551.46636531958 -0)
(-0 7551.4663929757 -0)
(-0 7551.46638090193 -0)
(-0 7551.46638401014 -0)
(-0 7551.46647202481 -0)
(-0 7551.46645763269 -0)
(-0 7551.46634525301 -0)
(-0 7551.46632959764 -0)
(-0 7551.46633027632 -0)
(-0 7551.46625422857 -0)
(-0 7551.46619474039 -0)
(-0 7551.46628753027 -0)
(-0 7551.46635867211 -0)
(-0 7551.46629778269 -0)
(-0 7551.46632274187 -0)
(-0 7551.4663850093 -0)
(-0 7551.46638289717 -0)
(-0 7551.46638353393 -0)
(-0 7551.46644108835 -0)
(-0 7551.46646337498 -0)
(-0 7551.46655302216 -0)
(-0 7551.46656676339 -0)
(-0 7551.46651750427 -0)
(-0 7551.46659385866 -0)
(-0 7551.46647133959 -0)
(-0 7551.46633527721 -0)
(-0 7551.4664228767 -0)
(-0 7551.46642964703 -0)
(-0 7551.46639851154 -0)
(-0 7551.46642965355 -0)
(-0 7551.46635612795 -0)
(-0 7551.46631016566 -0)
(-0 7551.46630099967 -0)
(-0 7551.46621687657 -0)
(-0 7551.46611185516 -0)
(-0 7551.46617384216 -0)
(-0 7551.46627681794 -0)
(-0 7551.46618076765 -0)
(-0 7551.46610754404 -0)
(-0 7551.46612849548 -0)
(-0 7551.46615634721 -0)
(-0 7551.4661495773 -0)
(-0 7551.46609394974 -0)
(-0 7551.46607657564 -0)
(-0 7551.46598058009 -0)
(-0 7551.46588629858 -0)
(-0 7551.46593510095 -0)
(-0 7551.46590557873 -0)
(-0 7551.46585962816 -0)
(-0 7551.46576690562 -0)
(-0 7551.46577835042 -0)
(-0 7551.46585044887 -0)
(-0 7551.46585465425 -0)
(-0 7551.46583986915 -0)
(-0 7551.46580419093 -0)
(-0 7551.46581807177 -0)
(-0 7551.46582704812 -0)
(-0 7551.46585477578 -0)
(-0 7551.46584974997 -0)
(-0 7551.46584039035 -0)
(-0 7551.46584776466 -0)
(-0 7551.46583041103 -0)
(-0 7551.46576543737 -0)
(-0 7551.46574817756 -0)
(-0 7551.46573646544 -0)
(-0 7551.46567926756 -0)
(-0 7551.46568468883 -0)
(-0 7551.46562922043 -0)
(-0 7551.46553425336 -0)
(-0 7551.46558284263 -0)
(-0 7551.46559787671 -0)
(-0 7551.46542864838 -0)
(-0 7551.46531571555 -0)
(-0 7551.46535014376 -0)
(-0 7551.46540023679 -0)
(-0 7551.46542861646 -0)
(-0 7551.46537127189 -0)
(-0 7551.46535644461 -0)
(-0 7551.46536681765 -0)
(-0 7551.46534154833 -0)
(-0 7551.46539859691 -0)
(-0 7551.465434837 -0)
(-0 7551.46539013105 -0)
(-0 7551.46531460781 -0)
(-0 7551.46532290022 -0)
(-0 7551.46536158181 -0)
(-0 7551.46536830638 -0)
(-0 7551.46539907336 -0)
(-0 7551.46540154532 -0)
(-0 7551.46540062791 -0)
(-0 7551.46535464831 -0)
(-0 7551.4653116503 -0)
(-0 7551.46531851093 -0)
(-0 7551.46530071042 -0)
(-0 7551.46531224387 -0)
(-0 7551.46532963299 -0)
(-0 7551.46530782831 -0)
(-0 7551.46527561624 -0)
(-0 7551.46525863009 -0)
(-0 7551.46526058306 -0)
(-0 7551.46532174066 -0)
(-0 7551.46532045955 -0)
(-0 7551.46529818545 -0)
(-0 7551.46536902982 -0)
(-0 7551.46538497441 -0)
(-0 7551.46539045621 -0)
(-0 7551.46551076569 -0)
(-0 7551.46556890546 -0)
(-0 7551.46554454266 -0)
(-0 7551.46554259416 -0)
(-0 7551.46554795346 -0)
(-0 7551.46563369156 -0)
(-0 7551.46571473678 -0)
(-0 7551.46577718017 -0)
(-0 7551.46579738068 -0)
(-0 7551.46580697763 -0)
(-0 7551.46590862441 -0)
(-0 7551.4659782779 -0)
(-0 7551.46598939205 -0)
(-0 7551.46601997995 -0)
(-0 7551.46605736844 -0)
(-0 7551.4660531603 -0)
(-0 7551.46602955994 -0)
(-0 7551.4659855806 -0)
(-0 7551.4660013071 -0)
(-0 7551.46603869912 -0)
(-0 7551.46601179168 -0)
(-0 7551.46600169346 -0)
(-0 7551.46599636207 -0)
(-0 7551.46598611593 -0)
(-0 7551.46598962952 -0)
(-0 7551.46602651136 -0)
(-0 7551.46602812685 -0)
(-0 7551.46600236547 -0)
(-0 7551.46599628224 -0)
(-0 7551.46600847724 -0)
(-0 7551.46601549324 -0)
(-0 7551.46602534338 -0)
(-0 7551.46605311845 -0)
(-0 7551.46605155557 -0)
(-0 7551.46606075676 -0)
(-0 7551.46606043453 -0)
(-0 7551.46606813006 -0)
(-0 7551.46609070975 -0)
(-0 7551.46610361618 -0)
(-0 7551.46609868927 -0)
(-0 7551.46609839625 -0)
(-0 7551.46613215929 -0)
(-0 7551.46616625774 -0)
(-0 7551.46617586585 -0)
(-0 7551.46617571647 -0)
(-0 7551.46619945235 -0)
(-0 7551.46620777021 -0)
(-0 7551.46619928202 -0)
(-0 7551.46620839356 -0)
(-0 7551.46622322146 -0)
(-0 7551.46622831551 -0)
(-0 7551.4662449495 -0)
(-0 7551.46625550928 -0)
(-0 7551.4662607086 -0)
(-0 7551.46629014161 -0)
(-0 7551.4663073558 -0)
(-0 7551.46630451745 -0)
(-0 7551.46630767543 -0)
(-0 7551.46631256986 -0)
(-0 7551.46632596894 -0)
(-0 7551.46634315479 -0)
(-0 7551.46639833925 -0)
(-0 11327.2192283604 -0)
)
;

boundaryField
{
    dielectric_2
    {
        type            calculated;
        value           nonuniform 0();
    }
    dielectric_1
    {
        type            calculated;
        value           nonuniform 0();
    }
    otherfaces
    {
        type            empty;
    }
    procBoundary2to0
    {
        type            processor;
        value           uniform (-0 11327.5500675133 -0);
    }
    procBoundary2to3
    {
        type            processor;
        value           uniform (-0 11327.2390954756 -0);
    }
}


// ************************************************************************* //
