/*--------------------------------*- C++ -*----------------------------------*\
| =========                 |                                                 |
| \\      /  F ield         | foam-extend: Open Source CFD                    |
|  \\    /   O peration     | Version:     4.0                                |
|   \\  /    A nd           | Web:         http://www.foam-extend.org         |
|    \\/     M anipulation  |                                                 |
\*---------------------------------------------------------------------------*/
FoamFile
{
    version     2.0;
    format      ascii;
    class       volScalarField;
    location    "9.1e-06";
    object      Ar;
}
// * * * * * * * * * * * * * * * * * * * * * * * * * * * * * * * * * * * * * //

dimensions      [0 0 0 1 0 0 0];

internalField   nonuniform List<scalar> 
300
(
3.21880173221488e+22
3.21880172795981e+22
3.21880173097026e+22
3.21880173224839e+22
3.21880173438345e+22
3.21880173733225e+22
3.21880174091781e+22
3.2188017452086e+22
3.21880175019215e+22
3.21880175586492e+22
3.21880176222751e+22
3.21880176927868e+22
3.2188017770179e+22
3.21880178544481e+22
3.21880179455915e+22
3.21880180436081e+22
3.21880181485009e+22
3.21880182602695e+22
3.21880183789138e+22
3.21880185044364e+22
3.218801863684e+22
3.21880187761282e+22
3.21880189223051e+22
3.21880190753755e+22
3.21880192353603e+22
3.21880194022526e+22
3.21880195760599e+22
3.21880197567914e+22
3.21880199444453e+22
3.21880201390287e+22
3.21880203405677e+22
3.21880205490634e+22
3.21880207645107e+22
3.21880209869174e+22
3.21880212162918e+22
3.21880214526428e+22
3.21880216959843e+22
3.2188021946324e+22
3.21880222036694e+22
3.21880224680316e+22
3.21880227394223e+22
3.21880230178513e+22
3.21880233033304e+22
3.21880235958714e+22
3.21880238954869e+22
3.21880242021898e+22
3.21880245159954e+22
3.21880248369189e+22
3.21880251649847e+22
3.21880255002114e+22
3.21880258426284e+22
3.21880261922406e+22
3.21880265490709e+22
3.21880269131191e+22
3.21880272843949e+22
3.21880276628998e+22
3.21880280486485e+22
3.21880284416562e+22
3.21880288419386e+22
3.21880292495137e+22
3.21880296643955e+22
3.21880300866006e+22
3.21880305161509e+22
3.2188030953083e+22
3.21880313974117e+22
3.21880318491303e+22
3.21880323082555e+22
3.21880327748044e+22
3.21880332487944e+22
3.2188033730243e+22
3.21880342191699e+22
3.21880347156014e+22
3.21880352195578e+22
3.21880357310507e+22
3.21880362501125e+22
3.21880367767609e+22
3.21880373110085e+22
3.21880378528782e+22
3.21880384023687e+22
3.2188038959529e+22
3.21880395243433e+22
3.21880400968279e+22
3.21880406770041e+22
3.21880412648881e+22
3.21880418605126e+22
3.21880424638881e+22
3.21880430750206e+22
3.21880436939277e+22
3.21880443206387e+22
3.21880449551635e+22
3.21880455975253e+22
3.21880462477861e+22
3.21880469059077e+22
3.21880475719053e+22
3.21880482457954e+22
3.21880489275942e+22
3.21880496173182e+22
3.21880503149837e+22
3.21880510206174e+22
3.21880517342349e+22
3.21880524558451e+22
3.2188053185462e+22
3.2188053923132e+22
3.21880546688405e+22
3.21880554226111e+22
3.21880561844672e+22
3.21880569544077e+22
3.21880577324658e+22
3.21880585186448e+22
3.21880593129518e+22
3.21880601153993e+22
3.21880609260051e+22
3.21880617448025e+22
3.21880625717992e+22
3.21880634069494e+22
3.21880642503368e+22
3.21880651020119e+22
3.21880659619652e+22
3.2188066830216e+22
3.21880677067925e+22
3.21880685917411e+22
3.21880694850688e+22
3.21880703868237e+22
3.21880712970147e+22
3.2188072215649e+22
3.21880731427475e+22
3.21880740783563e+22
3.21880750224761e+22
3.21880759751355e+22
3.2188076936354e+22
3.21880779061647e+22
3.21880788845885e+22
3.21880798716476e+22
3.21880808673849e+22
3.21880818718534e+22
3.21880828850512e+22
3.21880839069909e+22
3.21880849377139e+22
3.21880859772554e+22
3.21880870256228e+22
3.21880880828481e+22
3.21880891489641e+22
3.21880902240187e+22
3.21880913080598e+22
3.21880924011272e+22
3.21880935032163e+22
3.21880946143563e+22
3.21880957345771e+22
3.21880968639222e+22
3.21880980024513e+22
3.21880991501624e+22
3.21881003070866e+22
3.21881014732931e+22
3.21881026487786e+22
3.21881038335683e+22
3.21881050276812e+22
3.21881062311811e+22
3.21881074439712e+22
3.2188108666155e+22
3.21881098975031e+22
3.21881111383529e+22
3.21881123879844e+22
3.21881136473578e+22
3.21881149147004e+22
3.21881161923717e+22
3.21881174777491e+22
3.21881187607219e+22
3.21881200497613e+22
3.21881213534111e+22
3.21881226653044e+22
3.21881239853616e+22
3.21881253047596e+22
3.21881266287988e+22
3.21881279486121e+22
3.21881292690786e+22
3.21881306069568e+22
3.21881319489974e+22
3.21881332527528e+22
3.21881345585762e+22
3.21881358857369e+22
3.21881371479159e+22
3.2188138389121e+22
3.21881396388717e+22
3.21881407943175e+22
3.21881419242994e+22
3.21881430125185e+22
3.21881440009448e+22
3.21881449333582e+22
3.21881458117581e+22
3.21881465668859e+22
3.21881472535942e+22
3.21881478836039e+22
3.21881484157736e+22
3.21881488418867e+22
3.21881492022097e+22
3.21881494624294e+22
3.21881496489708e+22
3.21881497820417e+22
3.21881498743995e+22
3.21881499470786e+22
3.21881499668629e+22
3.21881499378562e+22
3.21881498885049e+22
3.21881498669665e+22
3.21881499043014e+22
3.21881499867215e+22
3.21881500878612e+22
3.21881501922309e+22
3.21881502836491e+22
3.21881503618596e+22
3.21881504270618e+22
3.21881504818195e+22
3.21881505275228e+22
3.21881505786189e+22
3.21881506351189e+22
3.21881506872989e+22
3.21881507336285e+22
3.21881507763252e+22
3.21881508146706e+22
3.21881508505838e+22
3.21881508830283e+22
3.21881509143832e+22
3.21881509432825e+22
3.21881509711862e+22
3.21881509966428e+22
3.21881510349966e+22
3.21881510732945e+22
3.21881511113015e+22
3.21881511466637e+22
3.21881511819605e+22
3.21881512147416e+22
3.21881512476356e+22
3.21881512780763e+22
3.21881513087575e+22
3.21881513370318e+22
3.21881513656366e+22
3.218815139185e+22
3.21881514184783e+22
3.21881514427051e+22
3.21881514674247e+22
3.21881514897245e+22
3.21881515159842e+22
3.21881515472034e+22
3.21881515789006e+22
3.21881516082437e+22
3.2188151638124e+22
3.21881516656587e+22
3.21881516938147e+22
3.21881517196185e+22
3.21881517461266e+22
3.21881517702853e+22
3.21881517952197e+22
3.21881518178261e+22
3.21881518412899e+22
3.21881518624099e+22
3.21881518844388e+22
3.21881519041129e+22
3.21881519247666e+22
3.21881519430667e+22
3.21881519624046e+22
3.21881519793886e+22
3.21881519974876e+22
3.21881520132524e+22
3.21881520301949e+22
3.21881520447822e+22
3.2188152067947e+22
3.21881520874773e+22
3.21881521100039e+22
3.2188152128392e+22
3.21881521499033e+22
3.21881521672151e+22
3.21881521877665e+22
3.21881522040669e+22
3.21881522237287e+22
3.21881522390743e+22
3.21881522579114e+22
3.2188152272354e+22
3.21881522904053e+22
3.21881523039796e+22
3.21881523212769e+22
3.21881523340247e+22
3.21881523506488e+22
3.21881523628225e+22
3.21881523791896e+22
3.21881523909067e+22
3.2188152406711e+22
3.2188152417743e+22
3.21881524329566e+22
3.21881524433174e+22
3.21881524583741e+22
3.21881524688945e+22
3.21881524838168e+22
3.21881524936825e+22
3.2188152508753e+22
3.21881525190415e+22
3.21881525341388e+22
3.21881525450648e+22
3.21881525615561e+22
3.21881525763003e+22
3.21881526041139e+22
)
;

boundaryField
{
    electrode
    {
        type            zeroGradient;
    }
    ground
    {
        type            zeroGradient;
    }
    otherfaces
    {
        type            empty;
    }
}


// ************************************************************************* //
