/*--------------------------------*- C++ -*----------------------------------*\
| =========                 |                                                 |
| \\      /  F ield         | foam-extend: Open Source CFD                    |
|  \\    /   O peration     | Version:     4.0                                |
|   \\  /    A nd           | Web:         http://www.foam-extend.org         |
|    \\/     M anipulation  |                                                 |
\*---------------------------------------------------------------------------*/
FoamFile
{
    version     2.0;
    format      ascii;
    class       volScalarField;
    location    "9.1e-06";
    object      Arm;
}
// * * * * * * * * * * * * * * * * * * * * * * * * * * * * * * * * * * * * * //

dimensions      [0 0 0 1 0 0 0];

internalField   nonuniform List<scalar> 
300
(
3.5741040168673e+15
3.57597711110923e+15
3.57792424248551e+15
3.57923055215674e+15
3.58004688576294e+15
3.5804255090526e+15
3.58041061796922e+15
3.58003366549779e+15
3.57932031434588e+15
3.57829254299847e+15
3.57696613482449e+15
3.57535517514388e+15
3.57347171820879e+15
3.57132636716619e+15
3.56892857949851e+15
3.56628689417665e+15
3.56340614958719e+15
3.56029492428965e+15
3.55696155636562e+15
3.553412528419e+15
3.54965404190124e+15
3.54569201845311e+15
3.54153214804278e+15
3.53717984585891e+15
3.53262452664017e+15
3.52788384190981e+15
3.52296151997487e+15
3.51785960295496e+15
3.51259164229768e+15
3.50716249913879e+15
3.50155850312867e+15
3.49579099145515e+15
3.48987803122662e+15
3.48382503058937e+15
3.47763707581492e+15
3.4713189595986e+15
3.46487087799617e+15
3.45829933545701e+15
3.45161139264291e+15
3.44481059204231e+15
3.43790044089891e+15
3.43088620897728e+15
3.42377177960101e+15
3.41656084427643e+15
3.409256903077e+15
3.40186321546844e+15
3.39438073173411e+15
3.38681088057827e+15
3.37914592996097e+15
3.3713844345865e+15
3.36351386425255e+15
3.35554663765813e+15
3.34747744380224e+15
3.33932393599093e+15
3.3310942832501e+15
3.32280481356324e+15
3.31445885332821e+15
3.30605931872927e+15
3.2976087781805e+15
3.28910766178879e+15
3.28056027268052e+15
3.27196871541458e+15
3.26332962674601e+15
3.25462511689926e+15
3.24585916342642e+15
3.23705726195022e+15
3.22822155213502e+15
3.21935387376174e+15
3.2104558126874e+15
3.20152872447388e+15
3.1925717554335e+15
3.1835777781305e+15
3.17454526230274e+15
3.16548159445323e+15
3.15637330252675e+15
3.14722142688254e+15
3.13803227982937e+15
3.12880179946827e+15
3.11954981838245e+15
3.11024600418156e+15
3.10092475137182e+15
3.09158823969691e+15
3.08223340586511e+15
3.07286246635913e+15
3.06346067962163e+15
3.05403575093342e+15
3.04459935555751e+15
3.03515181219131e+15
3.02568127297065e+15
3.01619542648025e+15
3.00668820850726e+15
2.99711483769204e+15
2.98753028467928e+15
2.97793628964245e+15
2.96833288475999e+15
2.95872009570659e+15
2.94909770419273e+15
2.93946525748834e+15
2.92981186138693e+15
2.92013744593237e+15
2.91044825201993e+15
2.9007455047083e+15
2.89099762266628e+15
2.88123363858336e+15
2.87144440794353e+15
2.86162063349388e+15
2.85177722326915e+15
2.84189469028979e+15
2.83198339061016e+15
2.82204877123656e+15
2.81208897554522e+15
2.80210170722964e+15
2.79207924720972e+15
2.78201937244352e+15
2.77191983223838e+15
2.76176300228092e+15
2.75153008361208e+15
2.7412457441096e+15
2.73091088621129e+15
2.72051741209431e+15
2.71003904569981e+15
2.69948859095906e+15
2.6888372178576e+15
2.67809524593654e+15
2.6672740773358e+15
2.65637148748197e+15
2.64535950427657e+15
2.63425541891877e+15
2.62304847580761e+15
2.61173659035769e+15
2.60030416880815e+15
2.58874731604822e+15
2.57706099524126e+15
2.56521914050013e+15
2.55318541621967e+15
2.54097854038285e+15
2.52860240883065e+15
2.5160320471587e+15
2.50324863967347e+15
2.4902612038235e+15
2.47705380037555e+15
2.46360974540652e+15
2.44989692429641e+15
2.43588325317096e+15
2.42154419131315e+15
2.40689938428373e+15
2.3919340294545e+15
2.37663173828675e+15
2.36096196554106e+15
2.34487597693786e+15
2.32838600959673e+15
2.31146731475395e+15
2.29405781751034e+15
2.27615617741212e+15
2.25774410990293e+15
2.23877196012061e+15
2.21919654850612e+15
2.19901720362179e+15
2.1782147657504e+15
2.1567443436586e+15
2.13457035293208e+15
2.11167761717656e+15
2.0880280283023e+15
2.06363398056808e+15
2.03848244800496e+15
2.01251909000145e+15
1.98576462685407e+15
1.95826355025747e+15
1.9300448836837e+15
1.90115062279973e+15
1.87164924844163e+15
1.84157427170432e+15
1.81101811442226e+15
1.78015217648648e+15
1.7491703140223e+15
1.71824243985277e+15
1.68754775976242e+15
1.65728531173101e+15
1.62769365718267e+15
1.59892852636089e+15
1.57114418548617e+15
1.54448756650598e+15
1.51904022367415e+15
1.49491666662279e+15
1.47211682358978e+15
1.45055091691184e+15
1.43025837282638e+15
1.41118882419211e+15
1.39325655397683e+15
1.3763810767598e+15
1.36046902083674e+15
1.34557258968685e+15
1.3321880543672e+15
1.32540665861191e+15
1.35140006446324e+15
1.41739632305589e+15
1.49751404288709e+15
1.56425206147448e+15
1.62636478342578e+15
1.69657015909139e+15
1.77502528101382e+15
1.85615265351537e+15
1.91705047817252e+15
1.92495741083227e+15
1.88669096524694e+15
1.82323063031855e+15
1.75728850225317e+15
1.70183390302078e+15
1.66151104347656e+15
1.63428491840183e+15
1.61648489045137e+15
1.60578294792988e+15
1.59883884375707e+15
1.59552171992869e+15
1.59348690805772e+15
1.59172490311891e+15
1.5906868284065e+15
1.58982224611746e+15
1.5887418787485e+15
1.58722544290978e+15
1.58510928983997e+15
1.5817388614718e+15
1.57721270720039e+15
1.57179315614759e+15
1.56555125822416e+15
1.55864342305292e+15
1.5511183571445e+15
1.5430112778386e+15
1.5343778207333e+15
1.52528266437894e+15
1.51576977889042e+15
1.50589948876788e+15
1.49573662897125e+15
1.48532827919904e+15
1.47472331475725e+15
1.46398499471763e+15
1.453141358131e+15
1.44225188438819e+15
1.43134275933387e+15
1.42045733617469e+15
1.40962494739369e+15
1.39886450533708e+15
1.38821514557561e+15
1.37768506478548e+15
1.36730005715988e+15
1.3570924428728e+15
1.34706281702131e+15
1.33723066262214e+15
1.32760810986744e+15
1.31819491997458e+15
1.30900416578327e+15
1.30003640844967e+15
1.2912772809211e+15
1.28273752330282e+15
1.27442475149141e+15
1.26634522303043e+15
1.25850151648905e+15
1.25087984725137e+15
1.24348814862629e+15
1.23631628567672e+15
1.22936436273708e+15
1.22261023046567e+15
1.21604145809812e+15
1.20966176832414e+15
1.20347148699933e+15
1.19746489078043e+15
1.19163236254378e+15
1.18596871055127e+15
1.18046128546305e+15
1.17511373916762e+15
1.16991591737519e+15
1.16486987099362e+15
1.15995874350132e+15
1.15518558838553e+15
1.15053702776743e+15
1.14601030378188e+15
1.14160251237648e+15
1.13731252188434e+15
1.13314120781333e+15
1.12908120511152e+15
1.12513031110813e+15
1.12124723254928e+15
1.11728845816415e+15
1.11318982122958e+15
1.10913796088592e+15
1.10516344504026e+15
1.10127512609269e+15
1.09747690487799e+15
1.09376004459555e+15
1.08972256158565e+15
1.08536447695077e+15
1.08110473772853e+15
1.07695386064362e+15
1.07220376789767e+15
1.06720575564763e+15
1.06213418109379e+15
1.05610500078075e+15
1.04953767683758e+15
1.04193303397517e+15
1.03263121779827e+15
)
;

boundaryField
{
    electrode
    {
        type            zeroGradient;
    }
    ground
    {
        type            zeroGradient;
    }
    otherfaces
    {
        type            empty;
    }
}


// ************************************************************************* //
