/*--------------------------------*- C++ -*----------------------------------*\
| =========                 |                                                 |
| \\      /  F ield         | foam-extend: Open Source CFD                    |
|  \\    /   O peration     | Version:     4.0                                |
|   \\  /    A nd           | Web:         http://www.foam-extend.org         |
|    \\/     M anipulation  |                                                 |
\*---------------------------------------------------------------------------*/
FoamFile
{
    version     2.0;
    format      ascii;
    class       volVectorField;
    location    "9.1e-06";
    object      E;
}
// * * * * * * * * * * * * * * * * * * * * * * * * * * * * * * * * * * * * * //

dimensions      [0 0 0 1 0 0 0];

internalField   nonuniform List<vector> 
300
(
(5.45650946093268 -0 -0)
(11.2047784467384 -0 -0)
(19.701883866019 -0 -0)
(27.5902065194347 -0 -0)
(35.4348468442615 -0 -0)
(43.3476906785972 -0 -0)
(51.2538879046681 -0 -0)
(59.1748285580495 -0 -0)
(67.111451816649 -0 -0)
(75.0640307661817 -0 -0)
(83.0347598637632 -0 -0)
(91.0251992031217 -0 -0)
(99.0369899755993 -0 -0)
(107.071810380441 -0 -0)
(115.13133347102 -0 -0)
(123.217247080533 -0 -0)
(131.331251332353 -0 -0)
(139.475058964779 -0 -0)
(147.650396596645 -0 -0)
(155.85900542264 -0 -0)
(164.102642020993 -0 -0)
(172.383079286022 -0 -0)
(180.702107219207 -0 -0)
(189.061533903414 -0 -0)
(197.463186402127 -0 -0)
(205.908911654613 -0 -0)
(214.400577520925 -0 -0)
(222.940073743574 -0 -0)
(231.529312984253 -0 -0)
(240.170231868844 -0 -0)
(248.864792065676 -0 -0)
(257.614981455326 -0 -0)
(266.422815230231 -0 -0)
(275.290337109519 -0 -0)
(284.2196206137 -0 -0)
(293.212770238779 -0 -0)
(302.271922879324 -0 -0)
(311.39924914069 -0 -0)
(320.596954737939 -0 -0)
(329.867281977125 -0 -0)
(339.212511259111 -0 -0)
(348.634962645014 -0 -0)
(358.136997516447 -0 -0)
(367.721020204309 -0 -0)
(377.389479766546 -0 -0)
(387.144871844033 -0 -0)
(396.989740510032 -0 -0)
(406.926680252035 -0 -0)
(416.958338010685 -0 -0)
(427.087415304143 -0 -0)
(437.316670484679 -0 -0)
(447.648920998176 -0 -0)
(458.087045816699 -0 -0)
(468.633987932335 -0 -0)
(479.292756999696 -0 -0)
(490.066432039153 -0 -0)
(500.958164276248 -0 -0)
(511.971180167155 -0 -0)
(523.108784443345 -0 -0)
(534.374363409026 -0 -0)
(545.771388295366 -0 -0)
(557.303418867337 -0 -0)
(568.974107058369 -0 -0)
(580.787200936462 -0 -0)
(592.746548710879 -0 -0)
(604.856103053667 -0 -0)
(617.119925552871 -0 -0)
(629.542191368665 -0 -0)
(642.127194187884 -0 -0)
(654.879351368104 -0 -0)
(667.803209355867 -0 -0)
(680.903449369683 -0 -0)
(694.184893368433 -0 -0)
(707.652510356506 -0 -0)
(721.311422957689 -0 -0)
(735.166914382703 -0 -0)
(749.22443576278 -0 -0)
(763.489613797645 -0 -0)
(777.968258913817 -0 -0)
(792.666373822085 -0 -0)
(807.590162485528 -0 -0)
(822.746039692929 -0 -0)
(838.140641040542 -0 -0)
(853.780833594358 -0 -0)
(869.673727103921 -0 -0)
(885.826685795105 -0 -0)
(902.247340926854 -0 -0)
(918.943604090539 -0 -0)
(935.923681222117 -0 -0)
(953.1960874735 -0 -0)
(970.769663043257 -0 -0)
(988.653589844932 -0 -0)
(1006.85740933869 -0 -0)
(1025.39104135112 -0 -0)
(1044.26480416593 -0 -0)
(1063.48943578621 -0 -0)
(1083.07611668841 -0 -0)
(1103.03649394327 -0 -0)
(1123.38270694134 -0 -0)
(1144.12741483449 -0 -0)
(1165.2838258489 -0 -0)
(1186.86572864331 -0 -0)
(1208.88752562093 -0 -0)
(1231.36426782969 -0 -0)
(1254.31169339814 -0 -0)
(1277.74627323313 -0 -0)
(1301.68525542516 -0 -0)
(1326.14668679766 -0 -0)
(1351.14944910405 -0 -0)
(1376.71344289214 -0 -0)
(1402.8597885686 -0 -0)
(1429.61024936511 -0 -0)
(1456.98622000504 -0 -0)
(1485.01172829871 -0 -0)
(1513.72015902722 -0 -0)
(1543.14815630327 -0 -0)
(1573.32734980214 -0 -0)
(1604.28813223993 -0 -0)
(1636.06249488047 -0 -0)
(1668.68427513306 -0 -0)
(1702.18926257589 -0 -0)
(1736.61535496049 -0 -0)
(1772.00271709324 -0 -0)
(1808.39395305548 -0 -0)
(1845.83429424058 -0 -0)
(1884.3718051028 -0 -0)
(1924.05760858371 -0 -0)
(1964.94613352822 -0 -0)
(2007.09538662489 -0 -0)
(2050.56725174924 -0 -0)
(2095.42781982555 -0 -0)
(2141.7477531734 -0 -0)
(2189.60268838801 -0 -0)
(2239.0736825385 -0 -0)
(2290.2477084685 -0 -0)
(2343.21820528645 -0 -0)
(2398.08569139861 -0 -0)
(2454.95844873627 -0 -0)
(2513.95328750875 -0 -0)
(2575.19640302854 -0 -0)
(2638.82433757962 -0 -0)
(2704.98506252827 -0 -0)
(2773.83919827872 -0 -0)
(2845.56139310031 -0 -0)
(2920.34188479089 -0 -0)
(2998.38827410798 -0 -0)
(3079.92754280426 -0 -0)
(3165.20835914632 -0 -0)
(3254.50370848519 -0 -0)
(3348.11393150506 -0 -0)
(3446.37017184495 -0 -0)
(3549.63846088471 -0 -0)
(3658.32421982022 -0 -0)
(3772.87794522157 -0 -0)
(3893.80090338795 -0 -0)
(4021.65360317049 -0 -0)
(4157.06222876185 -0 -0)
(4300.73268227388 -0 -0)
(4453.45541838272 -0 -0)
(4616.13210354701 -0 -0)
(4789.77028435427 -0 -0)
(4975.54199848422 -0 -0)
(5174.74540582871 -0 -0)
(5388.9439211102 -0 -0)
(5619.84655447968 -0 -0)
(5869.88911322106 -0 -0)
(6144.13322022209 -0 -0)
(6448.27505324263 -0 -0)
(6785.53953652113 -0 -0)
(7158.93408455848 -0 -0)
(7573.38246596186 -0 -0)
(8036.40759626618 -0 -0)
(8557.20840953444 -0 -0)
(9146.48658017168 -0 -0)
(9815.57057980983 -0 -0)
(10571.5597495051 -0 -0)
(11421.3303719896 -0 -0)
(12382.3630586743 -0 -0)
(13471.0473981325 -0 -0)
(14690.3285161605 -0 -0)
(16053.8068753245 -0 -0)
(17579.9395649041 -0 -0)
(19267.4158449314 -0 -0)
(21124.3191007786 -0 -0)
(23159.5507979282 -0 -0)
(25362.8636297851 -0 -0)
(27733.0843231253 -0 -0)
(30265.1227675219 -0 -0)
(32935.3229257029 -0 -0)
(35731.4092681097 -0 -0)
(38641.2094740914 -0 -0)
(41632.7293549329 -0 -0)
(44682.4125420718 -0 -0)
(47781.6507182035 -0 -0)
(50909.5644082839 -0 -0)
(54039.966296355 -0 -0)
(57160.2684055767 -0 -0)
(60269.6545671583 -0 -0)
(63367.4073237026 -0 -0)
(66451.526243929 -0 -0)
(69517.3334048979 -0 -0)
(72569.8500670186 -0 -0)
(75634.6569812161 -0 -0)
(78723.4228880346 -0 -0)
(81828.7019293997 -0 -0)
(84937.5867311911 -0 -0)
(88036.0677567055 -0 -0)
(91112.7529116325 -0 -0)
(94161.2470210003 -0 -0)
(97179.9414999787 -0 -0)
(100169.45937284 -0 -0)
(103131.662296701 -0 -0)
(106069.042887176 -0 -0)
(108980.415033747 -0 -0)
(111861.004451048 -0 -0)
(114709.99354461 -0 -0)
(117530.135734177 -0 -0)
(120324.013690732 -0 -0)
(123094.038548607 -0 -0)
(125842.447296262 -0 -0)
(128571.334458874 -0 -0)
(131282.633042103 -0 -0)
(133978.138866582 -0 -0)
(136659.513241838 -0 -0)
(139328.314267526 -0 -0)
(141981.840705741 -0 -0)
(144616.609031161 -0 -0)
(147233.087516167 -0 -0)
(149832.497860076 -0 -0)
(152415.957421133 -0 -0)
(154984.511724503 -0 -0)
(157539.120905213 -0 -0)
(160080.688398552 -0 -0)
(162610.04524598 -0 -0)
(165127.979405587 -0 -0)
(167635.217696366 -0 -0)
(170132.454570861 -0 -0)
(172620.332433759 -0 -0)
(175099.470849049 -0 -0)
(177570.444824066 -0 -0)
(180033.812624421 -0 -0)
(182489.072341557 -0 -0)
(184933.479075966 -0 -0)
(187365.323482737 -0 -0)
(189785.091587515 -0 -0)
(192193.233927016 -0 -0)
(194590.188453522 -0 -0)
(196976.361701465 -0 -0)
(199352.152539101 -0 -0)
(201717.931193216 -0 -0)
(204074.063115188 -0 -0)
(206420.888060473 -0 -0)
(208758.743514098 -0 -0)
(211087.943352275 -0 -0)
(213408.80062012 -0 -0)
(215721.608914841 -0 -0)
(218026.661973687 -0 -0)
(220324.235864522 -0 -0)
(222614.608341455 -0 -0)
(224898.039790348 -0 -0)
(227174.793980578 -0 -0)
(229445.117974375 -0 -0)
(231709.26334515 -0 -0)
(233967.465410369 -0 -0)
(236219.96526425 -0 -0)
(238464.772001306 -0 -0)
(240700.28645694 -0 -0)
(242926.598526643 -0 -0)
(245143.953493319 -0 -0)
(247352.561779038 -0 -0)
(249552.654110453 -0 -0)
(251744.428635971 -0 -0)
(253928.103561129 -0 -0)
(256103.864422363 -0 -0)
(258271.919621931 -0 -0)
(260432.443245084 -0 -0)
(262585.634640114 -0 -0)
(264731.659081221 -0 -0)
(266870.706789879 -0 -0)
(269002.935465168 -0 -0)
(271128.527585289 -0 -0)
(273247.632534263 -0 -0)
(275360.42551943 -0 -0)
(277467.048748672 -0 -0)
(279567.667737626 -0 -0)
(281662.414523333 -0 -0)
(283751.446146718 -0 -0)
(285834.887449429 -0 -0)
(287912.888854961 -0 -0)
(289985.569495859 -0 -0)
(292053.074493778 -0 -0)
(294115.511085725 -0 -0)
(296173.013917593 -0 -0)
(298225.685968179 -0 -0)
(300273.654742867 -0 -0)
(302317.008608847 -0 -0)
(304355.865507186 -0 -0)
(306390.254437769 -0 -0)
(308419.506438114 -0 -0)
(310441.021630975 -0 -0)
)
;

boundaryField
{
    electrode
    {
        type            calculated;
        value           uniform (4.19875646230139 -0 -0);
    }
    ground
    {
        type            calculated;
        value           uniform (311448.983039045 -0 -0);
    }
    otherfaces
    {
        type            empty;
    }
}


// ************************************************************************* //
