/*--------------------------------*- C++ -*----------------------------------*\
| =========                 |                                                 |
| \\      /  F ield         | foam-extend: Open Source CFD                    |
|  \\    /   O peration     | Version:     4.0                                |
|   \\  /    A nd           | Web:         http://www.foam-extend.org         |
|    \\/     M anipulation  |                                                 |
\*---------------------------------------------------------------------------*/
FoamFile
{
    version     2.0;
    format      ascii;
    class       volScalarField;
    location    "9.1e-06";
    object      electron;
}
// * * * * * * * * * * * * * * * * * * * * * * * * * * * * * * * * * * * * * //

dimensions      [0 0 0 1 0 0 0];

internalField   nonuniform List<scalar> 
300
(
6.80473981587146e+16
6.80454995141745e+16
6.8040670314518e+16
6.80325188727531e+16
6.80211079243188e+16
6.80064128033405e+16
6.79884276070668e+16
6.79671518014738e+16
6.79425822408216e+16
6.79147162794688e+16
6.78835511061201e+16
6.78490836840674e+16
6.78113108190331e+16
6.77702291385083e+16
6.77258350941773e+16
6.76781249638699e+16
6.76270948519785e+16
6.757274069061e+16
6.75150582407376e+16
6.74540430934152e+16
6.7389690671103e+16
6.73219962290728e+16
6.72509548569026e+16
6.71765614800609e+16
6.7098810861569e+16
6.70176976037618e+16
6.69332161501307e+16
6.68453607872461e+16
6.675412564677e+16
6.66595047075522e+16
6.65614917978145e+16
6.64600805974114e+16
6.63552646401754e+16
6.62470373163498e+16
6.61353918750916e+16
6.60203214270649e+16
6.59018189471109e+16
6.57798772769884e+16
6.56544891282008e+16
6.55256470848975e+16
6.5393343606849e+16
6.52575710324967e+16
6.51183215820712e+16
6.49755873607858e+16
6.48293603621047e+16
6.46796324710705e+16
6.45263954676997e+16
6.4369641030447e+16
6.42093607397331e+16
6.40455460815345e+16
6.38781884510292e+16
6.37072791563002e+16
6.35328094220993e+16
6.33547703936622e+16
6.31731531405729e+16
6.29879486606765e+16
6.27991478840449e+16
6.26067416769788e+16
6.24107208460529e+16
6.22110761422019e+16
6.20077982648396e+16
6.18008778660084e+16
6.15903055545618e+16
6.13760719003733e+16
6.11581674385657e+16
6.09365826737607e+16
6.07113080843383e+16
6.0482334126715e+16
6.02496512396282e+16
6.001324984842e+16
5.97731203693227e+16
5.95292532137384e+16
5.92816387925104e+16
5.90302675201766e+16
5.87751298192052e+16
5.8516216124205e+16
5.82535168861009e+16
5.79870225762775e+16
5.77167236906807e+16
5.74426107538647e+16
5.71646743229896e+16
5.68829049917563e+16
5.6597293394272e+16
5.63078302088405e+16
5.60145061616599e+16
5.5717312030434e+16
5.54162386478878e+16
5.51112769051641e+16
5.48024177551006e+16
5.4489652215384e+16
5.41729713715573e+16
5.38523663798783e+16
5.35278284700142e+16
5.31993489475587e+16
5.28669191963597e+16
5.25305306806479e+16
5.2190174946945e+16
5.1845843625735e+16
5.14975284328929e+16
5.11452211708444e+16
5.0788913729437e+16
5.04285980864912e+16
5.00642663080282e+16
4.96959105482388e+16
4.93235230491287e+16
4.8947096139254e+16
4.85666222315626e+16
4.81820938233452e+16
4.77935034992632e+16
4.74008439219016e+16
4.70041077965232e+16
4.66032878852378e+16
4.61983771711842e+16
4.57893687890947e+16
4.53762548973533e+16
4.49590255639182e+16
4.45376693547519e+16
4.41121744428845e+16
4.36825289943513e+16
4.32487212281799e+16
4.2810739422576e+16
4.2368571903486e+16
4.19222070272608e+16
4.14716331606674e+16
4.10168386589136e+16
4.0557811841746e+16
4.00945409674998e+16
3.96270142049277e+16
3.91552196026007e+16
3.86791450556452e+16
3.81987782695768e+16
3.77141067209532e+16
3.72251176145332e+16
3.67317978366246e+16
3.62341339042467e+16
3.5732111909705e+16
3.52257174601471e+16
3.47149356116086e+16
3.41997507970199e+16
3.36801467476035e+16
3.3156106407028e+16
3.26276118376296e+16
3.20946441179731e+16
3.15571832309521e+16
3.10152079415834e+16
3.04686956635884e+16
2.99176223139058e+16
2.93619621539764e+16
2.8801687617415e+16
2.82367691219335e+16
2.76671748674399e+16
2.70928706143143e+16
2.65138194522965e+16
2.59299815396937e+16
2.53413138531322e+16
2.47477698770938e+16
2.41492993678307e+16
2.3545847969501e+16
2.29373570786298e+16
2.23237633057094e+16
2.17049986380445e+16
2.10809894527633e+16
2.04516568953728e+16
1.98169137802047e+16
1.91766590209672e+16
1.8530755872965e+16
1.787891542907e+16
1.72206169125867e+16
1.65552683096041e+16
1.58823833983231e+16
1.52015710213518e+16
1.45124381506396e+16
1.38145413788596e+16
1.31074264347941e+16
1.23907356852945e+16
1.16644910613161e+16
1.0929365493557e+16
1.01865354776483e+16
9.43761848723862e+15
8.68519496178242e+15
7.93292822136832e+15
7.18525893509218e+15
6.44767073600681e+15
5.72667368409868e+15
5.02924633955358e+15
4.36279343806549e+15
3.73480183054375e+15
3.15213849490043e+15
2.62067669411035e+15
2.14479265631925e+15
1.72691744088466e+15
1.36746902777901e+15
1.06488771014542e+15
815748482180757
615216345843481
457211131136786
335331699801900
243268264825966
174896530590080
124649154578611
86602611996201.6
58683842686956.2
39027109688364.8
24943694571275.2
15240671653303.4
9078142867696.86
5485899480546.26
3513342586919.72
2449135259389.96
1866713857495.64
1539016811338.67
1349837852114.75
1238973869217.33
1174132559581.37
1137223582916.58
1117552487512.59
1108414725118.17
1105442263708.28
1105689986990.79
1107587622769.74
1109864941794.36
1111607105366.89
1112278797132.83
1111584363238.8
1109265193157.97
1105201961916.79
1099355963126.2
1091746880139.46
1082434704962.33
1071508321309.16
1059076849049.29
1045263027585.39
1030198015101.06
1014017281404.02
996857351537.11
978853222249.774
960136253800.834
940832255566.196
921058353673.796
900913710034.808
880495283849.665
859905039001.775
839237376809.62
818579762535.673
798011246563.473
777602237694.502
757414759762.771
737502842326.15
717912981167.594
698684635001.088
679850744069.796
661438273039.002
643468798152.575
625959292323.27
608922159943.167
592367560990.307
576299173118.484
560713891306.583
545610959417.538
530988705741.337
516841199238.958
503160876202.329
489938684418.493
477164658956.782
464828189093.983
452918283556.527
441423838649.932
430333514130.1
419635644288.554
409318387451.347
399369230203.625
389775526120.167
380512457728.23
371555724285.674
362894566602.297
354519989774.202
346424276305.808
338600299729.626
331041558090.361
323742213409.877
316697147418.23
309902066331.289
303352827157.741
297045235261.855
290958445404.149
285060591942.806
279344640805.686
273824980601.415
268518498809.42
263443239129.188
258566602746.977
253868771859.138
249403438320.536
245199733363.541
241278198795.049
237730106136.041
234689905268.874
232433283084.803
231466469412.723
232626175282.237
)
;

boundaryField
{
    electrode
    {
        type            driftDiffusionElectronDensity;
        seec            0.05;
        Edepend         1;
        field_emission  0;
        field_enhancement_factor 55;
        work_function   5;
        value           uniform 6.80473981587146e+16;
    }
    ground
    {
        type            driftDiffusionElectronDensity;
        seec            0.05;
        Edepend         1;
        field_emission  0;
        field_enhancement_factor 55;
        work_function   5;
        value           uniform 234875165603.126;
    }
    otherfaces
    {
        type            empty;
    }
}


// ************************************************************************* //
