/*--------------------------------*- C++ -*----------------------------------*\
| =========                 |                                                 |
| \\      /  F ield         | foam-extend: Open Source CFD                    |
|  \\    /   O peration     | Version:     4.0                                |
|   \\  /    A nd           | Web:         http://www.foam-extend.org         |
|    \\/     M anipulation  |                                                 |
\*---------------------------------------------------------------------------*/
FoamFile
{
    version     2.0;
    format      ascii;
    class       volVectorField;
    location    "9.1e-06";
    object      J_Arp1;
}
// * * * * * * * * * * * * * * * * * * * * * * * * * * * * * * * * * * * * * //

dimensions      [1 -1 -1 0 0 0 0];

internalField   nonuniform List<vector> 
300
(
(2.14189352449797e+16 -0 -0)
(7.60831972950413e+16 -0 -0)
(1.35325337270427e+17 -0 -0)
(1.88269829240145e+17 -0 -0)
(2.41893753592946e+17 -0 -0)
(2.95843297856865e+17 -0 -0)
(3.49651685086918e+17 -0 -0)
(4.0351658263936e+17 -0 -0)
(4.57408457940048e+17 -0 -0)
(5.11325920508863e+17 -0 -0)
(5.65276211127313e+17 -0 -0)
(6.19261150821702e+17 -0 -0)
(6.73283775890743e+17 -0 -0)
(7.27347103495549e+17 -0 -0)
(7.81454025337645e+17 -0 -0)
(8.35607444547339e+17 -0 -0)
(8.89810233682602e+17 -0 -0)
(9.44065235940531e+17 -0 -0)
(9.98375266152861e+17 -0 -0)
(1.05274310819711e+18 -0 -0)
(1.10717151339256e+18 -0 -0)
(1.16166319944712e+18 -0 -0)
(1.21622084838772e+18 -0 -0)
(1.27084710552201e+18 -0 -0)
(1.32554457774968e+18 -0 -0)
(1.38031583174067e+18 -0 -0)
(1.43516339287499e+18 -0 -0)
(1.49008974346289e+18 -0 -0)
(1.54509732132184e+18 -0 -0)
(1.60018851816551e+18 -0 -0)
(1.65536567798974e+18 -0 -0)
(1.71063109590729e+18 -0 -0)
(1.76598701625095e+18 -0 -0)
(1.82143563116677e+18 -0 -0)
(1.8769790794189e+18 -0 -0)
(1.9326194442165e+18 -0 -0)
(1.98835875238571e+18 -0 -0)
(2.0441989725869e+18 -0 -0)
(2.10014201372738e+18 -0 -0)
(2.15618972359721e+18 -0 -0)
(2.21234388737523e+18 -0 -0)
(2.26860622610789e+18 -0 -0)
(2.32497839544963e+18 -0 -0)
(2.38146198386228e+18 -0 -0)
(2.43805851130077e+18 -0 -0)
(2.49476942798924e+18 -0 -0)
(2.55159611276132e+18 -0 -0)
(2.60853987170025e+18 -0 -0)
(2.6656019366761e+18 -0 -0)
(2.72278346396693e+18 -0 -0)
(2.78008553307801e+18 -0 -0)
(2.83750914506076e+18 -0 -0)
(2.89505522135543e+18 -0 -0)
(2.95272460232797e+18 -0 -0)
(3.01051804609452e+18 -0 -0)
(3.0684362270758e+18 -0 -0)
(3.12647973462972e+18 -0 -0)
(3.1846490720513e+18 -0 -0)
(3.24294465496685e+18 -0 -0)
(3.30136681035893e+18 -0 -0)
(3.35991577506939e+18 -0 -0)
(3.41859169496912e+18 -0 -0)
(3.47739462323164e+18 -0 -0)
(3.53632451961031e+18 -0 -0)
(3.59538124892338e+18 -0 -0)
(3.65456458019879e+18 -0 -0)
(3.71387418543473e+18 -0 -0)
(3.77330963834482e+18 -0 -0)
(3.83287041345088e+18 -0 -0)
(3.89255588490856e+18 -0 -0)
(3.9523653255074e+18 -0 -0)
(4.01229790556108e+18 -0 -0)
(4.07235269183388e+18 -0 -0)
(4.1325286467118e+18 -0 -0)
(4.19282462697718e+18 -0 -0)
(4.2532393829456e+18 -0 -0)
(4.31377155763588e+18 -0 -0)
(4.37441968548525e+18 -0 -0)
(4.4351821916434e+18 -0 -0)
(4.49605739110928e+18 -0 -0)
(4.55704348751337e+18 -0 -0)
(4.61813857250298e+18 -0 -0)
(4.67934062454547e+18 -0 -0)
(4.74064750831421e+18 -0 -0)
(4.802056973803e+18 -0 -0)
(4.86356665517646e+18 -0 -0)
(4.92517406998542e+18 -0 -0)
(4.98687661844903e+18 -0 -0)
(5.04867158241937e+18 -0 -0)
(5.11055612439546e+18 -0 -0)
(5.17252728689145e+18 -0 -0)
(5.23458199119384e+18 -0 -0)
(5.29671703678002e+18 -0 -0)
(5.35892910008863e+18 -0 -0)
(5.42121473382286e+18 -0 -0)
(5.48357036563126e+18 -0 -0)
(5.54599229742272e+18 -0 -0)
(5.60847670417371e+18 -0 -0)
(5.6710196327483e+18 -0 -0)
(5.73361700071073e+18 -0 -0)
(5.79626459533942e+18 -0 -0)
(5.85895807302288e+18 -0 -0)
(5.92169295751192e+18 -0 -0)
(5.9844646336282e+18 -0 -0)
(6.04726834582258e+18 -0 -0)
(6.11009922496805e+18 -0 -0)
(6.17295229626113e+18 -0 -0)
(6.23582232827332e+18 -0 -0)
(6.29870372026554e+18 -0 -0)
(6.36159122354328e+18 -0 -0)
(6.42448091735146e+18 -0 -0)
(6.48736671403889e+18 -0 -0)
(6.55023350707069e+18 -0 -0)
(6.61307282681679e+18 -0 -0)
(6.67592329803922e+18 -0 -0)
(6.738814588571e+18 -0 -0)
(6.80174768240838e+18 -0 -0)
(6.86471526570164e+18 -0 -0)
(6.92770931543589e+18 -0 -0)
(6.99072147374499e+18 -0 -0)
(7.05374316774213e+18 -0 -0)
(7.11676567309494e+18 -0 -0)
(7.17978012081322e+18 -0 -0)
(7.2427774945971e+18 -0 -0)
(7.30574862542806e+18 -0 -0)
(7.36868418527647e+18 -0 -0)
(7.4315746802289e+18 -0 -0)
(7.49441044342162e+18 -0 -0)
(7.55718162757692e+18 -0 -0)
(7.61987819733925e+18 -0 -0)
(7.68248992080561e+18 -0 -0)
(7.74500636105568e+18 -0 -0)
(7.80741686708976e+18 -0 -0)
(7.86971056399709e+18 -0 -0)
(7.93187634305382e+18 -0 -0)
(7.99390285094188e+18 -0 -0)
(8.05577847823847e+18 -0 -0)
(8.11749134777836e+18 -0 -0)
(8.17902930175905e+18 -0 -0)
(8.24037988840707e+18 -0 -0)
(8.30153034787636e+18 -0 -0)
(8.3624675973038e+18 -0 -0)
(8.42317821482523e+18 -0 -0)
(8.4836484230919e+18 -0 -0)
(8.54386407086329e+18 -0 -0)
(8.60381061731639e+18 -0 -0)
(8.66347310174376e+18 -0 -0)
(8.72283615578627e+18 -0 -0)
(8.78188389001239e+18 -0 -0)
(8.84060010411809e+18 -0 -0)
(8.89896771347633e+18 -0 -0)
(8.95696994633771e+18 -0 -0)
(9.01458771733802e+18 -0 -0)
(9.07180497380522e+18 -0 -0)
(9.12859782647817e+18 -0 -0)
(9.18495591546922e+18 -0 -0)
(9.24084121877691e+18 -0 -0)
(9.29626529641699e+18 -0 -0)
(9.35114727769683e+18 -0 -0)
(9.40557061408659e+18 -0 -0)
(9.45932541125182e+18 -0 -0)
(9.51270935841526e+18 -0 -0)
(9.5651629039758e+18 -0 -0)
(9.61751684394238e+18 -0 -0)
(9.6684548334078e+18 -0 -0)
(9.7192732320133e+18 -0 -0)
(9.77007303220701e+18 -0 -0)
(9.81920214574969e+18 -0 -0)
(9.86784203617667e+18 -0 -0)
(9.91636279909196e+18 -0 -0)
(9.96311042453786e+18 -0 -0)
(1.00110523703079e+19 -0 -0)
(1.00555509573054e+19 -0 -0)
(1.01028223989981e+19 -0 -0)
(1.01458872845126e+19 -0 -0)
(1.01894291374944e+19 -0 -0)
(1.02301048323285e+19 -0 -0)
(1.02768575622959e+19 -0 -0)
(1.03114778643852e+19 -0 -0)
(1.03506080405957e+19 -0 -0)
(1.03936310860208e+19 -0 -0)
(1.04245822432389e+19 -0 -0)
(1.04577642574301e+19 -0 -0)
(1.04982401024511e+19 -0 -0)
(1.05192620403836e+19 -0 -0)
(1.05550383658276e+19 -0 -0)
(1.05802113072671e+19 -0 -0)
(1.06071395046526e+19 -0 -0)
(1.06269144742624e+19 -0 -0)
(1.06593351220805e+19 -0 -0)
(1.06725768628994e+19 -0 -0)
(1.07014061890764e+19 -0 -0)
(1.07208522921725e+19 -0 -0)
(1.07523721110959e+19 -0 -0)
(1.07713534201774e+19 -0 -0)
(1.08117124693619e+19 -0 -0)
(1.08434550923973e+19 -0 -0)
(1.09012538250381e+19 -0 -0)
(1.0961672614596e+19 -0 -0)
(1.10642897449776e+19 -0 -0)
(1.12130041643519e+19 -0 -0)
(1.14145454313194e+19 -0 -0)
(1.16685634807192e+19 -0 -0)
(1.19509321010172e+19 -0 -0)
(1.2176460905592e+19 -0 -0)
(1.23911180705657e+19 -0 -0)
(1.25684004630389e+19 -0 -0)
(1.2688732387142e+19 -0 -0)
(1.27813773957145e+19 -0 -0)
(1.28537567365415e+19 -0 -0)
(1.29164012865047e+19 -0 -0)
(1.29702578063412e+19 -0 -0)
(1.30220204578647e+19 -0 -0)
(1.30683922582366e+19 -0 -0)
(1.31162970474956e+19 -0 -0)
(1.31614711668588e+19 -0 -0)
(1.32082993457433e+19 -0 -0)
(1.32531991856748e+19 -0 -0)
(1.33003210752362e+19 -0 -0)
(1.33456215837158e+19 -0 -0)
(1.33933756200847e+19 -0 -0)
(1.34391613373189e+19 -0 -0)
(1.34873511484079e+19 -0 -0)
(1.35332745742838e+19 -0 -0)
(1.35816997482649e+19 -0 -0)
(1.36268214077022e+19 -0 -0)
(1.36755535134292e+19 -0 -0)
(1.37201835613819e+19 -0 -0)
(1.37684236524165e+19 -0 -0)
(1.38122316900323e+19 -0 -0)
(1.38597048501399e+19 -0 -0)
(1.39024260479493e+19 -0 -0)
(1.39488801754965e+19 -0 -0)
(1.39902719600251e+19 -0 -0)
(1.40354946074009e+19 -0 -0)
(1.40753648840649e+19 -0 -0)
(1.41191885076564e+19 -0 -0)
(1.41573896264079e+19 -0 -0)
(1.41996970134607e+19 -0 -0)
(1.42361302001528e+19 -0 -0)
(1.42768588455532e+19 -0 -0)
(1.43113896437344e+19 -0 -0)
(1.43503176981135e+19 -0 -0)
(1.43832814086859e+19 -0 -0)
(1.44204919530624e+19 -0 -0)
(1.44516004479263e+19 -0 -0)
(1.44871655105542e+19 -0 -0)
(1.45164434313991e+19 -0 -0)
(1.4550409236034e+19 -0 -0)
(1.45779022122883e+19 -0 -0)
(1.46103181042083e+19 -0 -0)
(1.46360827784952e+19 -0 -0)
(1.46670095268251e+19 -0 -0)
(1.46911081136297e+19 -0 -0)
(1.47206034038003e+19 -0 -0)
(1.47431225504386e+19 -0 -0)
(1.47712700412219e+19 -0 -0)
(1.47922987903428e+19 -0 -0)
(1.48191810831675e+19 -0 -0)
(1.48388001137864e+19 -0 -0)
(1.48645033466754e+19 -0 -0)
(1.4882789841914e+19 -0 -0)
(1.49073948639408e+19 -0 -0)
(1.49244232582588e+19 -0 -0)
(1.49480478939928e+19 -0 -0)
(1.49621073110109e+19 -0 -0)
(1.49882357451004e+19 -0 -0)
(1.49994589150662e+19 -0 -0)
(1.5024877274904e+19 -0 -0)
(1.50348829655917e+19 -0 -0)
(1.50596323329817e+19 -0 -0)
(1.50684853147173e+19 -0 -0)
(1.5092617037273e+19 -0 -0)
(1.51003578060823e+19 -0 -0)
(1.51239435248659e+19 -0 -0)
(1.51306078557556e+19 -0 -0)
(1.51537119603576e+19 -0 -0)
(1.51593582602198e+19 -0 -0)
(1.51820284398001e+19 -0 -0)
(1.51867176776198e+19 -0 -0)
(1.52090073402297e+19 -0 -0)
(1.52127766288423e+19 -0 -0)
(1.52347333604169e+19 -0 -0)
(1.52376247893662e+19 -0 -0)
(1.52592475837055e+19 -0 -0)
(1.52612468585333e+19 -0 -0)
(1.52825424407081e+19 -0 -0)
(1.52836660719263e+19 -0 -0)
(1.53046569196016e+19 -0 -0)
(1.53049377358293e+19 -0 -0)
(1.53256537007455e+19 -0 -0)
(1.53250220763064e+19 -0 -0)
(1.53454116040942e+19 -0 -0)
(1.53438986970572e+19 -0 -0)
(1.53639507302905e+19 -0 -0)
(1.53614313420688e+19 -0 -0)
(1.5381091452966e+19 -0 -0)
(1.53767768066265e+19 -0 -0)
(1.53969721231277e+19 -0 -0)
(1.53708855504181e+19 -0 -0)
)
;

boundaryField
{
    electrode
    {
        type            calculated;
        value           uniform (-13811666972.3438 -0 -0);
    }
    ground
    {
        type            calculated;
        value           uniform (1.53998776381666e+19 -0 -0);
    }
    otherfaces
    {
        type            empty;
    }
}


// ************************************************************************* //
