/*--------------------------------*- C++ -*----------------------------------*\
| =========                 |                                                 |
| \\      /  F ield         | foam-extend: Open Source CFD                    |
|  \\    /   O peration     | Version:     4.0                                |
|   \\  /    A nd           | Web:         http://www.foam-extend.org         |
|    \\/     M anipulation  |                                                 |
\*---------------------------------------------------------------------------*/
FoamFile
{
    version     2.0;
    format      ascii;
    class       volVectorField;
    location    "9.1e-06";
    object      J_electron;
}
// * * * * * * * * * * * * * * * * * * * * * * * * * * * * * * * * * * * * * //

dimensions      [1 -1 -1 0 0 0 0];

internalField   nonuniform List<vector> 
300
(
(-1.3416603814597e+19 0 0)
(-1.37719591747958e+19 0 0)
(-1.6283672180271e+19 0 0)
(-1.57755914907206e+19 0 0)
(-1.57691558318559e+19 0 0)
(-1.57544277280739e+19 0 0)
(-1.56857184647834e+19 0 0)
(-1.56338503972749e+19 0 0)
(-1.55795515322979e+19 0 0)
(-1.55245307205776e+19 0 0)
(-1.54698883103267e+19 0 0)
(-1.54151107621129e+19 0 0)
(-1.53602937755588e+19 0 0)
(-1.5305442512453e+19 0 0)
(-1.52505432372702e+19 0 0)
(-1.51955961926596e+19 0 0)
(-1.51405982549809e+19 0 0)
(-1.50855463043936e+19 0 0)
(-1.50304375419703e+19 0 0)
(-1.49752691281482e+19 0 0)
(-1.49200381702267e+19 0 0)
(-1.48647419452e+19 0 0)
(-1.48093776093601e+19 0 0)
(-1.47539424501267e+19 0 0)
(-1.46984338053502e+19 0 0)
(-1.46428489273067e+19 0 0)
(-1.45871852068612e+19 0 0)
(-1.45314400262584e+19 0 0)
(-1.44756108342498e+19 0 0)
(-1.44196951130269e+19 0 0)
(-1.43636903168058e+19 0 0)
(-1.43075940422283e+19 0 0)
(-1.42514038740383e+19 0 0)
(-1.41951174007182e+19 0 0)
(-1.41387323793003e+19 0 0)
(-1.40822464317534e+19 0 0)
(-1.4025657368339e+19 0 0)
(-1.39689630094743e+19 0 0)
(-1.39121611858914e+19 0 0)
(-1.38552498137415e+19 0 0)
(-1.37982268529372e+19 0 0)
(-1.37410902630767e+19 0 0)
(-1.36838381529195e+19 0 0)
(-1.36264686093358e+19 0 0)
(-1.35689797482242e+19 0 0)
(-1.35113698075513e+19 0 0)
(-1.34536370344475e+19 0 0)
(-1.33957797510185e+19 0 0)
(-1.33377963296909e+19 0 0)
(-1.32796851507967e+19 0 0)
(-1.32214447307917e+19 0 0)
(-1.31630735808316e+19 0 0)
(-1.31045702972615e+19 0 0)
(-1.30459334887751e+19 0 0)
(-1.29871618753028e+19 0 0)
(-1.29282542175875e+19 0 0)
(-1.28692092732498e+19 0 0)
(-1.28100259582386e+19 0 0)
(-1.27507031444499e+19 0 0)
(-1.26912398403164e+19 0 0)
(-1.26316350221255e+19 0 0)
(-1.25718878380438e+19 0 0)
(-1.25119973533556e+19 0 0)
(-1.24519628111647e+19 0 0)
(-1.2391783405802e+19 0 0)
(-1.23314584428725e+19 0 0)
(-1.22709872875513e+19 0 0)
(-1.22103692943363e+19 0 0)
(-1.21496039155153e+19 0 0)
(-1.20886906292451e+19 0 0)
(-1.20276289651763e+19 0 0)
(-1.19664185008325e+19 0 0)
(-1.19050588209878e+19 0 0)
(-1.18435496062461e+19 0 0)
(-1.17818905270553e+19 0 0)
(-1.17200812809498e+19 0 0)
(-1.16581216635936e+19 0 0)
(-1.15960114107746e+19 0 0)
(-1.15337503219694e+19 0 0)
(-1.14713382599241e+19 0 0)
(-1.14087750116951e+19 0 0)
(-1.13460604716486e+19 0 0)
(-1.12831944520824e+19 0 0)
(-1.12201768118198e+19 0 0)
(-1.11570074396373e+19 0 0)
(-1.10936861629759e+19 0 0)
(-1.10302127940074e+19 0 0)
(-1.09665871569077e+19 0 0)
(-1.09028090350152e+19 0 0)
(-1.08388781242418e+19 0 0)
(-1.07747941663627e+19 0 0)
(-1.07105567409575e+19 0 0)
(-1.06461654485686e+19 0 0)
(-1.05816197494368e+19 0 0)
(-1.05169190824779e+19 0 0)
(-1.04520626911518e+19 0 0)
(-1.03870497797492e+19 0 0)
(-1.03218794062959e+19 0 0)
(-1.02565504614253e+19 0 0)
(-1.01910616625811e+19 0 0)
(-1.01254115265557e+19 0 0)
(-1.00595984419625e+19 0 0)
(-9.99362091023283e+18 0 0)
(-9.92747665994233e+18 0 0)
(-9.86116106493205e+18 0 0)
(-9.79467143575503e+18 0 0)
(-9.7280165623093e+18 0 0)
(-9.66119788349856e+18 0 0)
(-9.59415162213813e+18 0 0)
(-9.52681575756752e+18 0 0)
(-9.45947295130583e+18 0 0)
(-9.39253146580156e+18 0 0)
(-9.3245050093783e+18 0 0)
(-9.25195393406914e+18 0 0)
(-9.1782867143219e+18 0 0)
(-9.10787295618426e+18 0 0)
(-9.03870859377692e+18 0 0)
(-8.96946980472173e+18 0 0)
(-8.89996307287507e+18 0 0)
(-8.83011852140229e+18 0 0)
(-8.75990674905131e+18 0 0)
(-8.68930941523119e+18 0 0)
(-8.61830942564601e+18 0 0)
(-8.54688862567085e+18 0 0)
(-8.47502698554799e+18 0 0)
(-8.40270230508693e+18 0 0)
(-8.32988989370925e+18 0 0)
(-8.25656230390163e+18 0 0)
(-8.18268904510246e+18 0 0)
(-8.10823633308484e+18 0 0)
(-8.03316659701731e+18 0 0)
(-7.95743817199675e+18 0 0)
(-7.88100486011814e+18 0 0)
(-7.80381528904486e+18 0 0)
(-7.72581247838113e+18 0 0)
(-7.64693315812694e+18 0 0)
(-7.56710690189528e+18 0 0)
(-7.48625550514323e+18 0 0)
(-7.40429188791009e+18 0 0)
(-7.3211190696246e+18 0 0)
(-7.2366289637165e+18 0 0)
(-7.15070104744336e+18 0 0)
(-7.06320066716526e+18 0 0)
(-6.97397744445895e+18 0 0)
(-6.88286298196253e+18 0 0)
(-6.78966920702172e+18 0 0)
(-6.69418384316485e+18 0 0)
(-6.59617274627988e+18 0 0)
(-6.49536304010337e+18 0 0)
(-6.3914705677619e+18 0 0)
(-6.28412760989473e+18 0 0)
(-6.17301825013101e+18 0 0)
(-6.05759254811692e+18 0 0)
(-5.93760803508716e+18 0 0)
(-5.81207484195878e+18 0 0)
(-5.68120358995388e+18 0 0)
(-5.54284825589055e+18 0 0)
(-5.39876865221643e+18 0 0)
(-5.24370865274067e+18 0 0)
(-5.08399425725818e+18 0 0)
(-4.90590556167707e+18 0 0)
(-4.72622431590469e+18 0 0)
(-4.50949720071419e+18 0 0)
(-4.27447909598888e+18 0 0)
(-3.9230174568697e+18 0 0)
(-3.10540745414961e+18 0 0)
(-2.29909163640934e+18 0 0)
(-2.11452028117634e+18 0 0)
(-2.04692303147277e+18 0 0)
(-1.73815287604524e+18 0 0)
(-1.11914949435038e+18 0 0)
(-4.33852440026022e+17 0 0)
(1.94686192194683e+17 0 0)
(6.10679730271683e+17 0 0)
(1.88096240639017e+17 0 0)
(-4.53576753028268e+17 0 0)
(-3.38994564169728e+16 0 0)
(-6.49028570940703e+16 0 0)
(-1.7248594159154e+18 0 0)
(-2.26453378938542e+18 0 0)
(-2.39098199002422e+18 0 0)
(-3.98995436413229e+18 0 0)
(-4.3261675953885e+18 0 0)
(-3.6639786743072e+18 0 0)
(-4.06165917292141e+18 0 0)
(-2.73517122239332e+18 0 0)
(-7.60793531524579e+17 0 0)
(1.33576018029655e+18 0 0)
(4.42484645959723e+18 0 0)
(7.5951500992824e+18 0 0)
(1.01706978992671e+19 0 0)
(1.23837976734954e+19 0 0)
(1.39552085395416e+19 0 0)
(1.40188094968627e+19 0 0)
(1.46924857481626e+19 0 0)
(1.18746400581031e+19 0 0)
(1.0458183850146e+19 0 0)
(8.25052993742078e+18 0 0)
(6.14365582380171e+18 0 0)
(8.35512106085499e+18 0 0)
(-4.80638045408579e+18 0 0)
(2.52330969596486e+18 0 0)
(-8.09697646162756e+17 0 0)
(-2.11617567361494e+18 0 0)
(-2.02937722606224e+18 0 0)
(-2.00268133430014e+18 0 0)
(-2.16861842869181e+18 0 0)
(-2.47140736794924e+18 0 0)
(-2.73529069252245e+18 0 0)
(-2.89322842164447e+18 0 0)
(-2.9648628597196e+18 0 0)
(-2.98444649999865e+18 0 0)
(-2.9747913601258e+18 0 0)
(-2.95072548667323e+18 0 0)
(-2.9165139536608e+18 0 0)
(-2.8823054259972e+18 0 0)
(-2.84188228626869e+18 0 0)
(-2.79737515909945e+18 0 0)
(-2.75131406341277e+18 0 0)
(-2.70520231637707e+18 0 0)
(-2.65951334149435e+18 0 0)
(-2.61246929937072e+18 0 0)
(-2.56558483714506e+18 0 0)
(-2.51860582001862e+18 0 0)
(-2.47117415891277e+18 0 0)
(-2.42373422401348e+18 0 0)
(-2.37635003110885e+18 0 0)
(-2.32915190551673e+18 0 0)
(-2.28223238755626e+18 0 0)
(-2.23567831094122e+18 0 0)
(-2.18956793276066e+18 0 0)
(-2.14397250696328e+18 0 0)
(-2.09895640990535e+18 0 0)
(-2.05457696805303e+18 0 0)
(-2.01088485165371e+18 0 0)
(-1.96792330168081e+18 0 0)
(-1.92572799141769e+18 0 0)
(-1.88431456501326e+18 0 0)
(-1.84365037614264e+18 0 0)
(-1.80409153819098e+18 0 0)
(-1.76523538835395e+18 0 0)
(-1.72727826045964e+18 0 0)
(-1.69019264359478e+18 0 0)
(-1.65399079270981e+18 0 0)
(-1.61867642754974e+18 0 0)
(-1.58424631565673e+18 0 0)
(-1.55069399438363e+18 0 0)
(-1.51801003619783e+18 0 0)
(-1.48618281133214e+18 0 0)
(-1.45519860814184e+18 0 0)
(-1.42504231531861e+18 0 0)
(-1.39569753122605e+18 0 0)
(-1.36714927716104e+18 0 0)
(-1.33937598953458e+18 0 0)
(-1.31238613196905e+18 0 0)
(-1.28605314710928e+18 0 0)
(-1.26050379639751e+18 0 0)
(-1.23568521036877e+18 0 0)
(-1.21146215663774e+18 0 0)
(-1.18792260287684e+18 0 0)
(-1.16500954733922e+18 0 0)
(-1.14270863285329e+18 0 0)
(-1.12099864447379e+18 0 0)
(-1.09986167999801e+18 0 0)
(-1.07928274443214e+18 0 0)
(-1.05924019495072e+18 0 0)
(-1.03971513417572e+18 0 0)
(-1.02069185307826e+18 0 0)
(-1.0021548299761e+18 0 0)
(-9.84079156344607e+17 0 0)
(-9.66469304254803e+17 0 0)
(-9.49147706533966e+17 0 0)
(-9.32537112057246e+17 0 0)
(-9.16199785400264e+17 0 0)
(-9.00262419915507e+17 0 0)
(-8.84701855472805e+17 0 0)
(-8.69514886779365e+17 0 0)
(-8.54689355429797e+17 0 0)
(-8.40214675149516e+17 0 0)
(-8.2607937339528e+17 0 0)
(-8.12273661742726e+17 0 0)
(-7.98778249440548e+17 0 0)
(-7.85596302348499e+17 0 0)
(-7.72547437106024e+17 0 0)
(-7.60035218564974e+17 0 0)
(-7.47940568441475e+17 0 0)
(-7.35989730709973e+17 0 0)
(-7.24303809774276e+17 0 0)
(-7.12911072644725e+17 0 0)
(-7.0136068734821e+17 0 0)
(-6.91031405405202e+17 0 0)
(-6.80559444488618e+17 0 0)
(-6.70067090556666e+17 0 0)
(-6.6030532541977e+17 0 0)
(-6.50953472220311e+17 0 0)
(-6.4165876898141e+17 0 0)
(-6.3345638431695e+17 0 0)
(-6.26166285839382e+17 0 0)
(-6.1975553306316e+17 0 0)
(-6.08745102113308e+17 0 0)
)
;

boundaryField
{
    electrode
    {
        type            calculated;
        value           uniform (-1.60460239534199e+19 0 0);
    }
    ground
    {
        type            calculated;
        value           uniform (-6.06084753610656e+17 0 0);
    }
    otherfaces
    {
        type            empty;
    }
}


// ************************************************************************* //
