/*--------------------------------*- C++ -*----------------------------------*\
| =========                 |                                                 |
| \\      /  F ield         | foam-extend: Open Source CFD                    |
|  \\    /   O peration     | Version:     4.0                                |
|   \\  /    A nd           | Web:         http://www.foam-extend.org         |
|    \\/     M anipulation  |                                                 |
\*---------------------------------------------------------------------------*/
FoamFile
{
    version     2.0;
    format      ascii;
    class       volScalarField;
    location    "9.1e-06";
    object      PhiMean;
}
// * * * * * * * * * * * * * * * * * * * * * * * * * * * * * * * * * * * * * //

dimensions      [0 0 0 1 0 0 0];

internalField   nonuniform List<scalar> 
300
(
699.991881089726
699.990992111085
699.989825298452
699.988407015645
699.98674628793
699.984836831236
699.982678573054
699.980270630269
699.977612083043
699.974702219515
699.971540362928
699.968125906223
699.964458290739
699.96053699859
699.956361546521
699.951931478724
699.947246361328
699.94230577847
699.937109327406
699.931656614028
699.92594724948
699.919980846633
699.913757016886
699.90727536682
699.900535494541
699.893536992691
699.886279441463
699.878762405228
699.870985431563
699.862948045491
699.854649745192
699.846090008733
699.83726828858
699.828184001626
699.818836526368
699.809225199716
699.799349313474
699.789208112093
699.778800789022
699.768126482407
699.757184272675
699.74597318028
699.734492160456
699.722740100228
699.710715815162
699.698418046192
699.685845456357
699.672996628174
699.659870060884
699.646464169858
699.63277728504
699.618807655982
699.604553444642
699.590012724731
699.575183469877
699.56006354804
699.544650712711
699.528942598123
699.512936714961
699.496630445466
699.480021038981
699.463105607462
699.445881120074
699.428344397802
699.410492121145
699.392320824201
699.373826876708
699.355006479126
699.335855657403
699.316370257181
699.296545937801
699.276378165551
699.255862214792
699.234993163992
699.213765879943
699.192175016491
699.170215015885
699.147880097373
699.125164248259
699.102061203723
699.07856445755
699.054667234901
699.030362481442
699.005642855721
698.980500716511
698.954928122679
698.928916818836
698.902458216058
698.875543379144
698.848163019902
698.820307480889
698.791966720436
698.763130321489
698.733787451907
698.703926846516
698.673536791647
698.642605106429
698.611119125389
698.579065676721
698.546431064497
698.513201048328
698.479360817314
698.444894962888
698.409787470754
698.374021678557
698.337580248931
698.300445144858
698.262597588809
698.224018039569
698.184686148873
698.144580718762
698.103679662421
698.06195995879
698.019397611025
697.975967597748
697.931643816352
697.886399044699
697.840204886568
697.793031694268
697.744848495735
697.695622920021
697.645321131946
697.593907737448
697.541345709747
697.487596279746
697.432618815297
697.376370703527
697.318807236404
697.259881460648
697.199544031079
697.137743048928
697.074423888432
697.00952900198
696.942997705667
696.874765952694
696.804766108245
696.732926651554
696.659171862816
696.583421472207
696.505590298447
696.425587823495
696.343317727729
696.258677376868
696.171557244872
696.081840286743
695.989401240902
695.894105801115
695.795809707146
695.694357704085
695.589582369902
695.481302830469
695.36932322948
695.25343099832
695.133394903701
695.008962746057
694.87985869541
694.74578032001
694.606394895333
694.461335485105
694.310195511714
694.152523760433
693.987814231843
693.815485761779
693.634869728003
693.445196228173
693.245575563512
693.034954855267
692.812094916712
692.575576557381
692.323752887248
692.054691095855
691.766131356005
691.455459195902
691.119640670656
690.755197028276
690.358306112192
689.924713466684
689.449616071068
688.927890603154
688.354124558099
687.722563697831
687.027340821291
686.262692326066
685.422844813948
684.502419963177
683.496574280547
682.400858508765
681.211531249381
679.925740749721
678.541163869452
677.056076442811
675.469581095151
673.781337207715
671.991387083754
670.099965589954
668.107652250056
666.014960790249
663.822316624508
661.530054712844
659.138521761746
656.648047215302
654.058865286266
651.370899195082
648.584169839156
645.698887227523
642.71557916647
639.634974940864
636.457946536852
633.185421591123
629.818297559293
626.357432080443
622.803605052833
619.157592658906
615.420218489405
611.592416435988
607.675074522824
603.669025087327
599.575016059101
595.393750855887
591.125857419281
586.771929260839
582.332491964024
577.808045673954
573.199029578626
568.505865859412
563.728985285358
558.869003009798
553.926482722876
548.901983087034
543.796005744221
538.609053122947
533.341573512973
527.994021605861
522.566801726284
517.060329201944
511.474969587413
505.811102983638
500.069060583183
494.249191459283
488.351796385927
482.377197158105
476.325667945366
470.197527395317
463.993174269638
457.713058851105
451.357579835764
444.927162547601
438.42218049605
431.843036302469
425.190080295379
418.463694317299
411.664207180301
404.791981595479
397.847326245251
390.830586119534
383.74205097299
376.582049256796
369.350852854083
362.048774681291
354.676069681726
347.233036091475
339.719912755738
332.136984008783
324.484473241478
316.762651602651
308.971729932437
301.112005852331
293.183744095065
285.187291230353
277.122941677724
268.99105246121
260.791903919611
252.525841275446
244.193130695729
235.794106312924
227.329020706364
218.798197575131
210.201876476887
201.54037127771
192.813909046646
184.022794370777
175.167242290502
166.247548646285
157.263916881254
148.216634673445
139.105894396179
129.931976150723
120.69506162365
111.395423790572
102.033233988653
92.6087584624254
83.1221586776943
73.5736948803113
63.9635191293098
54.2918859957801
44.5589387613839
34.7649272364487
24.909986487283
14.9943627922947
5.01818940431468
)
;

boundaryField
{
    electrode
    {
        type            calculated;
        value           uniform 699.999999999398;
    }
    ground
    {
        type            calculated;
        value           uniform 0;
    }
    otherfaces
    {
        type            empty;
    }
}


// ************************************************************************* //
