/*--------------------------------*- C++ -*----------------------------------*\
| =========                 |                                                 |
| \\      /  F ield         | foam-extend: Open Source CFD                    |
|  \\    /   O peration     | Version:     4.0                                |
|   \\  /    A nd           | Web:         http://www.foam-extend.org         |
|    \\/     M anipulation  |                                                 |
\*---------------------------------------------------------------------------*/
FoamFile
{
    version     2.0;
    format      ascii;
    class       volScalarField;
    location    "9.1e-06";
    object      Sy_electron;
}
// * * * * * * * * * * * * * * * * * * * * * * * * * * * * * * * * * * * * * //

dimensions      [1 -3 -1 0 0 0 0];

internalField   nonuniform List<scalar> 
300
(
3.10296969121711e-09
3.10363239239944e-09
3.10386182974865e-09
3.10375639013336e-09
3.10365878781935e-09
3.10350112353559e-09
3.10329137364613e-09
3.10303436383873e-09
3.10272782955728e-09
3.10237189560277e-09
3.10196629311489e-09
3.10151065687068e-09
3.10100466417602e-09
3.10044796365293e-09
3.09984019003512e-09
3.0991809648008e-09
3.0984698946267e-09
3.09770657178412e-09
3.09689057399071e-09
3.09602146429024e-09
3.09509879097819e-09
3.09412208750165e-09
3.09309087236013e-09
3.09200464900875e-09
3.09086290572812e-09
3.08966511559321e-09
3.08841073630189e-09
3.08709921007927e-09
3.08572996359365e-09
3.08430240780989e-09
3.08281593785711e-09
3.08126993297748e-09
3.07966375638079e-09
3.07799675509155e-09
3.07626825982722e-09
3.074477584877e-09
3.07262402796145e-09
3.07070687010839e-09
3.06872537550262e-09
3.06667879133063e-09
3.06456634764509e-09
3.06238725720487e-09
3.06014071530791e-09
3.05782589963776e-09
3.05544197009252e-09
3.0529880686062e-09
3.05046331896458e-09
3.04786682662814e-09
3.04519767852297e-09
3.04245494286986e-09
3.03963766894449e-09
3.03674488692788e-09
3.03377560761862e-09
3.03072882226742e-09
3.02760350228805e-09
3.02439859904496e-09
3.02111304356446e-09
3.01774574629132e-09
3.01429559681596e-09
3.01076146358896e-09
3.00714219363785e-09
3.00343661224725e-09
2.99964352263839e-09
2.99576170562366e-09
2.99178991932338e-09
2.9877268988066e-09
2.98357135564516e-09
2.97932197756233e-09
2.97497742803199e-09
2.9705363458578e-09
2.96599734472667e-09
2.9613590127501e-09
2.9566199120032e-09
2.95177857803043e-09
2.94683351928806e-09
2.94178321664717e-09
2.93662612281722e-09
2.93136066172923e-09
2.92598522797012e-09
2.92049818602667e-09
2.91489786977857e-09
2.90918258164867e-09
2.90335059190313e-09
2.89740013789994e-09
2.89132942323897e-09
2.88513661696625e-09
2.87881985267582e-09
2.87237722754693e-09
2.86580680136266e-09
2.85910659554357e-09
2.85227459201912e-09
2.84530873207388e-09
2.83820691536076e-09
2.83096699844589e-09
2.82358679357686e-09
2.8160640673203e-09
2.80839653912544e-09
2.80058187981106e-09
2.79261770996546e-09
2.78450159830243e-09
2.77623105991506e-09
2.76780355438715e-09
2.75921648373745e-09
2.75046719053371e-09
2.74155295601956e-09
2.73247099784749e-09
2.72321846531365e-09
2.71379243598248e-09
2.70418992544176e-09
2.69440789484402e-09
2.6844431873107e-09
2.67429244427024e-09
2.66395241350782e-09
2.65342061138114e-09
2.64360124576709e-09
2.63491771233135e-09
2.62605062411321e-09
2.61699549727653e-09
2.6077480271591e-09
2.5983038319173e-09
2.58865841375163e-09
2.57880714151061e-09
2.56874524034809e-09
2.55846778351124e-09
2.54796968401667e-09
2.53724568597778e-09
2.52629035540949e-09
2.51509807050913e-09
2.50366301109642e-09
2.491979147451e-09
2.48004022829046e-09
2.4678397679605e-09
2.45537103262855e-09
2.4426270254723e-09
2.42960047080255e-09
2.41628379706791e-09
2.40266911839005e-09
2.38874821475502e-09
2.37451251073769e-09
2.35995305251905e-09
2.34506048300424e-09
2.32982501502523e-09
2.31423640233499e-09
2.29828390827169e-09
2.28195627184005e-09
2.26524167090123e-09
2.2481276825024e-09
2.23060123906665e-09
2.21264858303673e-09
2.19425521277647e-09
2.1754058341335e-09
2.15608428731111e-09
2.13627350738245e-09
2.11595540469168e-09
2.0951108803617e-09
2.07371957611876e-09
2.05176007756364e-09
2.02920931416464e-09
2.00604332498999e-09
1.9822357098062e-09
1.9577600259532e-09
1.93258637372367e-09
1.90668801814348e-09
1.88004091526632e-09
1.85264418628768e-09
1.82464790878133e-09
1.79726858732402e-09
1.76995037208912e-09
1.74145836024442e-09
1.71171810101997e-09
1.68083593712479e-09
1.64885362851331e-09
1.61564816917503e-09
1.58095491128261e-09
1.54412737089064e-09
1.50447280529788e-09
1.46223732311671e-09
1.41766518188605e-09
1.36961461526421e-09
1.31773668758457e-09
1.26200698095259e-09
1.20051243044995e-09
1.13615472160425e-09
1.07104203304415e-09
1.00616013806957e-09
9.43168077792991e-10
8.85370725445166e-10
8.27488920038228e-10
7.82161708642787e-10
7.53084113185551e-10
7.3169836754027e-10
7.32458363361142e-10
7.56403031121314e-10
8.06482319180869e-10
8.94565850333564e-10
1.04553304827771e-09
1.27407406022433e-09
1.65926103635362e-09
2.30443300540327e-09
3.45718458193484e-09
4.81020131205694e-09
5.98373828749135e-09
7.22593211095171e-09
7.31985309866286e-09
6.45890830261313e-09
5.16912394309086e-09
3.90148682463591e-09
2.93889139000856e-09
2.28543581626356e-09
1.87327272362269e-09
1.62078080850146e-09
1.46799740445229e-09
1.37448400604697e-09
1.32206120255279e-09
1.29660624567056e-09
1.28199690690736e-09
1.27827380942119e-09
1.28075973678174e-09
1.28627372377423e-09
1.29313831734895e-09
1.29996935876589e-09
1.3044249225171e-09
1.30682538283462e-09
1.30747728131548e-09
1.3060929246529e-09
1.3025448105171e-09
1.29679723322956e-09
1.28888134780492e-09
1.27887435298976e-09
1.2668864577763e-09
1.25305094704781e-09
1.23751657666823e-09
1.2204415810247e-09
1.20198893308964e-09
1.18232257964283e-09
1.16160445177264e-09
1.13999202174829e-09
1.11763609360103e-09
1.09467717032545e-09
1.071233907413e-09
1.04742245896071e-09
1.02336534798988e-09
9.9917588726659e-10
9.74959194972547e-10
9.50810381914981e-10
9.26814292811135e-10
9.03045813549345e-10
8.79570332792646e-10
8.56444284809347e-10
8.33715735428707e-10
8.11424993082852e-10
7.8959553886809e-10
7.6814438293879e-10
7.47242318139704e-10
7.26904152120961e-10
7.07142013410742e-10
6.87960292087693e-10
6.69355281516246e-10
6.51326078932136e-10
6.33870688736605e-10
6.16982030609904e-10
6.00651075353024e-10
5.8480434003209e-10
5.69406350352338e-10
5.54510599670145e-10
5.40104670247874e-10
5.26175975318845e-10
5.1271160364885e-10
4.99698208427735e-10
4.87122199096604e-10
4.74969124269471e-10
4.6322452249147e-10
4.51859155354528e-10
4.40844386253661e-10
4.30167953224694e-10
4.19819438843239e-10
4.09789886377615e-10
4.00070964936322e-10
3.90655014034314e-10
3.81535082314223e-10
3.72704982668485e-10
3.64159414454736e-10
3.55893140261805e-10
3.47516602765718e-10
3.39101700403394e-10
3.30889366412004e-10
3.22870611979786e-10
3.15060723381034e-10
3.07476650474007e-10
3.00076319337434e-10
2.91635282118369e-10
2.8336242967864e-10
2.75311578376291e-10
2.6676548989704e-10
2.5698848470423e-10
2.47533568402906e-10
2.35212261880109e-10
2.2170214559055e-10
2.04497324992565e-10
1.79670870676627e-10
)
;

boundaryField
{
    electrode
    {
        type            zeroGradient;
    }
    ground
    {
        type            zeroGradient;
    }
    otherfaces
    {
        type            empty;
    }
}


// ************************************************************************* //
