/*--------------------------------*- C++ -*----------------------------------*\
| =========                 |                                                 |
| \\      /  F ield         | foam-extend: Open Source CFD                    |
|  \\    /   O peration     | Version:     4.0                                |
|   \\  /    A nd           | Web:         http://www.foam-extend.org         |
|    \\/     M anipulation  |                                                 |
\*---------------------------------------------------------------------------*/
FoamFile
{
    version     2.0;
    format      ascii;
    class       volScalarField;
    location    "9.1e-06";
    object      Te;
}
// * * * * * * * * * * * * * * * * * * * * * * * * * * * * * * * * * * * * * //

dimensions      [0 0 0 1 0 0 0];

internalField   nonuniform List<scalar> 
300
(
40054.0590539541
40054.3399949923
40054.5085867265
40054.6084632631
40054.7670486237
40054.9593367044
40055.1884522596
40055.4562546639
40055.7619970948
40056.1058274521
40056.4877563343
40056.9077695602
40057.3658791419
40057.8620969829
40058.3964404416
40058.9689325974
40059.5796017315
40060.2284815199
40060.9156110416
40061.6410347937
40062.4048027276
40063.2069702786
40064.0475984025
40064.9267536158
40065.844508034
40066.8009394203
40067.7961312362
40068.8301726909
40069.903158798
40071.015190435
40072.166374409
40073.3568235224
40074.5866566423
40075.8559987802
40077.1649811658
40078.5137413341
40079.9024232141
40081.3311772162
40082.8001603322
40084.3095362363
40085.8594753904
40087.4501551568
40089.0817599121
40090.7544811682
40092.4685177031
40094.2240756908
40096.0213688388
40097.8606185335
40099.7420539896
40101.6659124099
40103.6324391467
40105.6418878715
40107.6945207548
40109.7906086512
40111.9304312917
40114.1142774837
40116.3424453232
40118.615242411
40120.9329860797
40123.2960036317
40125.7046325855
40128.1592209313
40130.6601273992
40133.207721739
40135.8023850091
40138.444509882
40141.1345009553
40143.8727750835
40146.6597617213
40149.4959032798
40152.3816554993
40155.3174878383
40158.3038838799
40161.3413417549
40164.4303745828
40167.571510936
40170.7652953188
40174.0122886718
40177.3130689006
40180.6682314219
40184.078389741
40187.5441760531
40191.0662418731
40194.6452586966
40198.2819186863
40201.9769353949
40205.7310445268
40209.54500473
40213.4195984273
40217.3556326941
40221.3539401734
40225.4153800404
40229.5408390158
40233.7312324292
40237.9875053381
40242.3106337072
40246.7016256498
40251.1615227308
40255.6914013463
40260.2923741768
40264.9655917227
40269.7122439182
40274.5335618119
40279.430819386
40284.4053356507
40289.4584766625
40294.5916566717
40299.8063400134
40305.1040486777
40310.4863696186
40315.954932204
40321.5113752789
40327.1574807126
40332.8954718575
40338.7276596718
40344.6558515926
40350.6817557595
40356.8074136283
40363.0350715187
40369.3670896952
40375.8059350864
40382.3541829037
40389.014521686
40395.7897597437
40402.6828323431
40409.6968095232
40416.8349045593
40424.1004831275
40431.4970732372
40439.0283760023
40446.6982773517
40454.5108607794
40462.4704212327
40470.5814802897
40478.8488027581
40487.2774148575
40495.8726241934
40504.6400417215
40513.5856059525
40522.7156096934
40532.0367296436
40541.5560592184
40551.2811450532
40561.2200276836
40571.381287005
40581.7740931504
40592.408263782
40603.2943282065
40614.4436007739
40625.8682618219
40637.5814542364
40649.5973842267
40661.9314548394
40674.6003833748
40687.6224048209
40701.0173799905
40714.8071485291
40729.0155409594
40743.6690886901
40758.7966719592
40774.431160736
40790.6082858212
40807.3706637727
40824.7686426349
40842.8727399257
40861.8468937794
40881.8529786049
40902.8522656307
40924.7749429241
40947.7327322467
40971.9551701321
40997.6687907458
41025.0459870769
41054.2161617123
41085.1120270477
41117.6384009694
41152.2816688005
41189.5821418796
41229.201433974
41271.2696952306
41316.8690336791
41366.1572185286
41419.6446264573
41479.5176283739
41547.2381203048
41625.142367555
41718.2281925382
41832.1282434032
41975.4084151315
42160.991780231
42405.3416573929
42731.4737060673
43173.1766890211
43775.7784393303
44610.2508371461
45768.41092421
47373.8939920555
49648.3832672051
52894.1608961283
57692.7242565841
63923.5080973904
72055.7520529698
85153.3183526793
103151.868598586
128050.461134538
162684.405562948
209001.835703534
266654.443434998
332062.985503719
399999.736086928
465792.602198364
526423.36937856
580535.636312328
627964.557846459
669206.104244314
704932.096979464
735894.938623213
762923.930546991
786704.498016365
807774.810709059
826548.797560679
843388.760255535
858610.634872951
872461.001862184
885151.569452622
896858.831289518
907725.083347189
917868.118721425
927385.107533017
936356.543475848
944849.072558775
952917.774840048
960607.979870457
967956.735690234
974994.003382371
981743.644333034
988224.256274185
994450.072706089
1000432.19922812
1006173.10790128
1011673.61336507
1016936.5364226
1021959.47652663
1026738.08933069
1031265.65741301
1035533.44424471
1039530.95444908
1043246.11745133
1046665.4493697
1049774.19654726
1052556.46294853
1054995.32099048
1057072.84553403
1058770.10147563
1060066.88637513
1060943.44987188
1061368.46961395
1061343.23190318
1060833.84581077
1059819.75575097
1058278.0754141
1056186.48626405
1053522.25970694
1050262.25451408
1046382.68618179
1041859.37837227
1036667.92408664
1030783.5168657
1024180.82273186
1016834.26801756
1008717.32126373
999807.899540864
990076.053524941
979490.242942674
968026.48438
955654.182458552
942341.365482287
928054.047439955
912756.332603927
896410.13898673
878974.869083892
860407.393413963
840661.041872955
819692.356200428
797450.750868765
773872.421936222
748894.443246252
722443.73519254
694429.140561794
664767.60356001
633349.824186146
600039.67334191
564699.929219384
527141.990437939
487130.382452026
444376.122187394
398482.039898978
348879.178883319
294745.243518531
235002.119126116
)
;

boundaryField
{
    electrode
    {
        type            electronTemperature;
        seec            0.05;
        Tse             1000;
        Edepend         1;
        TFN             1000;
        field_emission  0;
        field_enhancement_factor 55;
        work_function   5;
        value           uniform 40054.0590539541;
    }
    ground
    {
        type            electronTemperature;
        seec            0.05;
        Tse             1000;
        Edepend         1;
        TFN             1000;
        field_emission  0;
        field_enhancement_factor 55;
        work_function   5;
        value           uniform 201126.536594369;
    }
    otherfaces
    {
        type            empty;
    }
}


// ************************************************************************* //
