/*--------------------------------*- C++ -*----------------------------------*\
| =========                 |                                                 |
| \\      /  F ield         | foam-extend: Open Source CFD                    |
|  \\    /   O peration     | Version:     4.0                                |
|   \\  /    A nd           | Web:         http://www.foam-extend.org         |
|    \\/     M anipulation  |                                                 |
\*---------------------------------------------------------------------------*/
FoamFile
{
    version     2.0;
    format      ascii;
    class       volScalarField;
    location    "9.1e-06";
    object      TeMean;
}
// * * * * * * * * * * * * * * * * * * * * * * * * * * * * * * * * * * * * * //

dimensions      [0 0 0 1 0 0 0];

internalField   nonuniform List<scalar> 
300
(
36704.9677785741
36705.2592762648
36705.4006206435
36705.4289182647
36705.4880084773
36705.5558911094
36705.6355637059
36705.7295426814
36705.8376330654
36705.9603413039
36706.0980680793
36706.2511834254
36706.4200600921
36706.6050483449
36706.8064896701
36707.0247158241
36707.2600477465
36707.5127989663
36707.7832752877
36708.0717746641
36708.3785891678
36708.7040035258
36709.0482968149
36709.4117419702
36709.7946055132
36710.1971553122
36710.6196554669
36711.062364474
36711.5255412907
36712.0094371945
36712.5142949024
36713.0403658383
36713.5879084557
36714.1571744714
36714.7484128482
36715.3618670183
36715.9977805536
36716.656403447
36717.3379860234
36718.0427758246
36718.7710190456
36719.5229685611
36720.2988782526
36721.0990010953
36721.9235916958
36722.7729061711
36723.6472018978
36724.5467369312
36725.4717678261
36726.4225496466
36727.3993362016
36728.4023904639
36729.4319904941
36730.4884166566
36731.5719551
36732.6829020608
36733.8215528556
36734.9882033927
36736.1831594066
36737.4067321577
36738.6592374626
36739.9410022139
36741.2523474987
36742.5935959419
36743.9650966885
36745.3672151294
36746.8003200367
36748.2647851434
36749.7609919528
36751.2893333952
36752.8502083661
36754.4440158078
36756.0711731983
36757.7321141576
36759.4272736656
36761.1570900899
36762.9220250761
36764.7225691466
36766.5592150485
36768.4324623089
36770.3428417139
36772.2909013802
36774.2771917499
36776.3022712525
36778.3667136059
36780.4711241893
36782.6161373173
36784.8023972645
36787.0305604585
36789.301309756
36791.6153394902
36793.9733641886
36796.3761531973
36798.8244883582
36801.3191675429
36803.8610295294
36806.4509343751
36809.089771708
36811.7784578856
36814.5179430781
36817.3092228933
36820.15330765
36823.0512418326
36826.0041321014
36829.0131212558
36832.0793889226
36835.2041552172
36838.3886878838
36841.6343122385
36844.9424027901
36848.3143878715
36851.7517508922
36855.2560289679
36858.8288344316
36862.471833378
36866.1867496438
36869.9753799714
36873.8396159318
36877.7814461696
36881.802917218
36885.9061615668
36890.0934165956
36894.3670173316
36898.7294189573
36903.1832080632
36907.7310810917
36912.3758466021
36917.1204649581
36921.9680549237
36926.9218762129
36931.9853537555
36937.1621061668
36942.4559545396
36947.8708975806
36953.4111497591
36959.0812139447
36964.8858681646
36970.8301640111
36976.919460727
36983.1594597904
36989.5562346901
36996.1162569288
37002.8464310237
37009.7541298938
37016.8472707819
37024.1343916082
37031.6246949936
37039.3281229498
37047.2553887495
37055.4180977647
37063.8289224861
37072.5016631521
37081.4513993358
37090.6947338658
37100.2498914131
37110.1370276145
37120.3784860918
37130.999372943
37142.0281569782
37153.4984084153
37165.4569901097
37177.9626761273
37191.0733115426
37204.8479069227
37219.3661372229
37234.7280081547
37251.008062558
37268.2652624067
37286.6106259621
37306.1903844269
37327.1291974414
37349.5393623863
37373.5476416989
37399.203642374
37426.5152797703
37455.7064912605
37487.0588652828
37520.73357904
37557.2251360624
37597.5179151739
37642.9460656628
37695.7953066634
37759.8412812059
37840.5276221551
37946.191829594
38089.4335211401
38288.3093549092
38569.4534952517
38972.6922464557
39557.4759179202
40414.4086707858
41685.6452356061
43599.1347544816
46586.3667575164
51089.9920990715
57430.1772873015
66627.5448722096
79227.6144591335
96227.2940868247
118000.438198173
144613.408259397
175940.146213087
211642.12838851
251069.076924035
294221.990218451
341062.109460505
391010.688568273
442551.869530138
493513.516806002
541834.670973054
586128.247963847
625796.870009888
660834.775317712
691599.641240318
718600.643315005
742345.22760804
763344.799805091
782067.916908992
798894.625400601
814132.114149963
828022.782682629
840769.191364284
852550.436904281
863513.042900246
873778.728903849
883446.679241646
892598.54472592
901301.504173577
909610.676886563
917571.188598787
925219.746299478
932585.916441508
939693.158600469
946559.618950208
953198.859197247
959620.477740108
965830.572646533
971832.127325086
977625.727101727
983208.898828396
988576.417182954
993721.765081247
998636.890563724
1003312.33312426
1007737.26558909
1011899.59381785
1015785.93088941
1019381.88384809
1022672.26192928
1025640.9194364
1028271.33262182
1030546.51383183
1032448.73328637
1033959.78990539
1035060.72279792
1035732.41811558
1035949.20717232
1035703.89588997
1034973.42639503
1033735.95420067
1031970.896689
1029657.68026346
1026775.58730598
1023303.64530554
1019220.58410919
1014505.08865843
1009135.28530892
1003088.80249737
996343.374030254
988876.234492166
980664.206106103
971683.436428237
961908.37968356
951313.436574442
939872.504845274
927557.138115698
914337.473563974
900181.941562489
885057.139815872
868927.558186262
851755.398831046
833500.42759392
814122.311260657
793577.747211737
771813.151024707
748771.913224286
724392.723284892
698600.591587071
671316.742050389
642456.005570361
611909.957752465
579553.269445951
545249.820479267
508815.434869932
470026.069639024
428601.117120468
384147.618898742
336119.704295479
283722.217353354
225907.967304165
)
;

boundaryField
{
    electrode
    {
        type            calculated;
        value           uniform 36704.9677785754;
    }
    ground
    {
        type            calculated;
        value           uniform 193122.575928008;
    }
    otherfaces
    {
        type            empty;
    }
}


// ************************************************************************* //
