/*--------------------------------*- C++ -*----------------------------------*\
| =========                 |                                                 |
| \\      /  F ield         | foam-extend: Open Source CFD                    |
|  \\    /   O peration     | Version:     4.0                                |
|   \\  /    A nd           | Web:         http://www.foam-extend.org         |
|    \\/     M anipulation  |                                                 |
\*---------------------------------------------------------------------------*/
FoamFile
{
    version     2.0;
    format      ascii;
    class       volVectorField;
    location    "1e-10";
    object      E;
}
// * * * * * * * * * * * * * * * * * * * * * * * * * * * * * * * * * * * * * //

dimensions      [0 0 0 1 0 0 0];

internalField   nonuniform List<vector> 
249
(
(-0 2265.7815071724 -0)
(-0 1510.45063795598 -0)
(-0 1510.45063839307 -0)
(-0 1510.45063801013 -0)
(-0 1510.45063770432 -0)
(-0 1510.45063774425 -0)
(-0 1510.45063806863 -0)
(-0 1510.45063821278 -0)
(-0 1510.45063876591 -0)
(-0 1510.45063922598 -0)
(-0 1510.45063961389 -0)
(-0 1510.45063982101 -0)
(-0 1510.45063954196 -0)
(-0 1510.45063976532 -0)
(-0 1510.4506395858 -0)
(-0 1510.45063899869 -0)
(-0 1510.45063925648 -0)
(-0 1510.45063963445 -0)
(-0 1510.45064009117 -0)
(-0 1510.45064077646 -0)
(-0 1510.4506403939 -0)
(-0 1510.45064040361 -0)
(-0 1510.45064101606 -0)
(-0 1510.45063991181 -0)
(-0 1510.45063919413 -0)
(-0 1510.45063907983 -0)
(-0 1510.45063876684 -0)
(-0 1510.4506384323 -0)
(-0 1510.45063733959 -0)
(-0 1510.45063661627 -0)
(-0 1510.45063642757 -0)
(-0 1510.45063648405 -0)
(-0 1510.4506362048 -0)
(-0 1510.4506358948 -0)
(-0 1510.45063588527 -0)
(-0 1510.45063595441 -0)
(-0 1510.45063598805 -0)
(-0 1510.4506353106 -0)
(-0 1510.45063456871 -0)
(-0 1510.4506338193 -0)
(-0 1510.45063276244 -0)
(-0 1510.45063237258 -0)
(-0 1510.4506325954 -0)
(-0 1510.45063201048 -0)
(-0 1510.45063168912 -0)
(-0 1510.45063256955 -0)
(-0 1510.45063328082 -0)
(-0 1510.45063340401 -0)
(-0 1510.45063416535 -0)
(-0 1510.45063442207 -0)
(-0 1510.45063472798 -0)
(-0 1510.4506358649 -0)
(-0 1510.45063613267 -0)
(-0 1510.45063584912 -0)
(-0 1510.45063582292 -0)
(-0 1510.4506361453 -0)
(-0 1510.4506362153 -0)
(-0 1510.45063602622 -0)
(-0 1510.45063620136 -0)
(-0 1510.45063614466 -0)
(-0 1510.45063529637 -0)
(-0 1510.45063511058 -0)
(-0 1510.45063562753 -0)
(-0 1510.45063592561 -0)
(-0 1510.45063620396 -0)
(-0 1510.450635901 -0)
(-0 1510.45063474843 -0)
(-0 1510.4506343082 -0)
(-0 1510.45063466368 -0)
(-0 1510.45063406792 -0)
(-0 1510.45063300858 -0)
(-0 1510.45063318078 -0)
(-0 1510.45063341415 -0)
(-0 1510.45063390536 -0)
(-0 1510.45063383905 -0)
(-0 1510.45063322406 -0)
(-0 1510.45063336566 -0)
(-0 1510.45063356942 -0)
(-0 1510.45063281657 -0)
(-0 1510.45063202127 -0)
(-0 1510.45063282832 -0)
(-0 1510.45063419543 -0)
(-0 1510.45063393712 -0)
(-0 1510.45063281686 -0)
(-0 1510.45063323669 -0)
(-0 1510.45063374918 -0)
(-0 1510.45063329311 -0)
(-0 1510.45063262747 -0)
(-0 1510.45063400943 -0)
(-0 1510.45063430592 -0)
(-0 1510.45063324122 -0)
(-0 1510.45063328449 -0)
(-0 1510.45063256173 -0)
(-0 1510.45063287169 -0)
(-0 1510.45063261225 -0)
(-0 1510.45063109872 -0)
(-0 1510.45063099594 -0)
(-0 1510.45063259887 -0)
(-0 1510.45063398413 -0)
(-0 1510.45063495333 -0)
(-0 1510.45063471376 -0)
(-0 1510.4506334303 -0)
(-0 1510.45063404338 -0)
(-0 1510.45063628535 -0)
(-0 1510.45063670173 -0)
(-0 1510.4506358603 -0)
(-0 1510.45063603842 -0)
(-0 1510.450636155 -0)
(-0 1510.45063697642 -0)
(-0 1510.45063827127 -0)
(-0 1510.45063888964 -0)
(-0 1510.45063880308 -0)
(-0 1510.45063839068 -0)
(-0 1510.45063838996 -0)
(-0 1510.45063797216 -0)
(-0 1510.45063676841 -0)
(-0 1510.450635924 -0)
(-0 1510.45063643052 -0)
(-0 1510.45063670071 -0)
(-0 1510.45063665705 -0)
(-0 1510.45063684957 -0)
(-0 1510.45063496986 -0)
(-0 1510.45063485792 -0)
(-0 1510.45063695891 -0)
(-0 1510.45063707788 -0)
(-0 1510.45063681296 -0)
(-0 1510.45063825774 -0)
(-0 1510.45063983154 -0)
(-0 1510.45063893438 -0)
(-0 1510.45063787124 -0)
(-0 1510.45063766431 -0)
(-0 1510.45063847432 -0)
(-0 1510.45064046518 -0)
(-0 1510.45064096479 -0)
(-0 1510.45064068109 -0)
(-0 1510.45063987711 -0)
(-0 1510.45063854584 -0)
(-0 1510.45063780666 -0)
(-0 1510.45063814616 -0)
(-0 1510.45063848773 -0)
(-0 1510.45063837201 -0)
(-0 1510.450638474 -0)
(-0 1510.45063855444 -0)
(-0 1510.45063854776 -0)
(-0 1510.45063836735 -0)
(-0 1510.45063906014 -0)
(-0 1510.45063928572 -0)
(-0 1510.4506398896 -0)
(-0 1510.45064071666 -0)
(-0 1510.4506411101 -0)
(-0 1510.45064090964 -0)
(-0 1510.45064017009 -0)
(-0 1510.4506403037 -0)
(-0 1510.45063845469 -0)
(-0 1510.45063701928 -0)
(-0 1510.45063696422 -0)
(-0 1510.45063711663 -0)
(-0 1510.4506391058 -0)
(-0 1510.4506388587 -0)
(-0 1510.45063601611 -0)
(-0 1510.45063508025 -0)
(-0 1510.45063496358 -0)
(-0 1510.45063537293 -0)
(-0 1510.45063600124 -0)
(-0 1510.45063474138 -0)
(-0 1510.45063369853 -0)
(-0 1510.45063493118 -0)
(-0 1510.45063677167 -0)
(-0 1510.45063805185 -0)
(-0 1510.45063920635 -0)
(-0 1510.45063968776 -0)
(-0 1510.4506393127 -0)
(-0 1510.45063909827 -0)
(-0 1510.4506403832 -0)
(-0 1510.45064242395 -0)
(-0 1510.45064278805 -0)
(-0 1510.45064178969 -0)
(-0 1510.45064353435 -0)
(-0 1510.45064590633 -0)
(-0 1510.45064742867 -0)
(-0 1510.45064701326 -0)
(-0 1510.45064600851 -0)
(-0 1510.45064654917 -0)
(-0 1510.45064836755 -0)
(-0 1510.45064902055 -0)
(-0 1510.45064595224 -0)
(-0 1510.45064485958 -0)
(-0 1510.45064592551 -0)
(-0 1510.45064453164 -0)
(-0 1510.45064393957 -0)
(-0 1510.45064484762 -0)
(-0 1510.4506439897 -0)
(-0 1510.45064514269 -0)
(-0 1510.45064442024 -0)
(-0 1510.45064119439 -0)
(-0 1510.45064120043 -0)
(-0 1510.4506407875 -0)
(-0 1510.45063890357 -0)
(-0 1510.45064138865 -0)
(-0 1510.45064286137 -0)
(-0 1510.45064000843 -0)
(-0 1510.45063948835 -0)
(-0 1510.45064102653 -0)
(-0 1510.45064303461 -0)
(-0 1510.45064428869 -0)
(-0 1510.45064423517 -0)
(-0 1510.4506430123 -0)
(-0 1510.45064136806 -0)
(-0 1510.45063989831 -0)
(-0 1510.45063782266 -0)
(-0 1510.45063497161 -0)
(-0 1510.45063293144 -0)
(-0 1510.45063100627 -0)
(-0 1510.45063150422 -0)
(-0 1510.45063243664 -0)
(-0 1510.45062818385 -0)
(-0 1510.45062409286 -0)
(-0 1510.45062505181 -0)
(-0 1510.45062542847 -0)
(-0 1510.45062680445 -0)
(-0 1510.45063056189 -0)
(-0 1510.45063095143 -0)
(-0 1510.45062916666 -0)
(-0 1510.45062760195 -0)
(-0 1510.45062621734 -0)
(-0 1510.45062447426 -0)
(-0 1510.45062613092 -0)
(-0 1510.45062403345 -0)
(-0 1510.45062251447 -0)
(-0 1510.45062606362 -0)
(-0 1510.450625173 -0)
(-0 1510.45062252455 -0)
(-0 1510.45062292877 -0)
(-0 1510.45062239129 -0)
(-0 1510.45061759084 -0)
(-0 1510.45061510592 -0)
(-0 1510.45061700739 -0)
(-0 1510.45061898588 -0)
(-0 1510.45061944449 -0)
(-0 1510.45061938333 -0)
(-0 1510.45062113476 -0)
(-0 1510.45062345192 -0)
(-0 1510.45062334907 -0)
(-0 1510.45062275709 -0)
(-0 1510.45062354161 -0)
(-0 1510.45062493779 -0)
(-0 1510.45062568267 -0)
(-0 1510.45062637398 -0)
(-0 1510.37653912326 -0)
)
;

boundaryField
{
    dielectric_2
    {
        type            calculated;
        value           uniform (-0 1510.30245127322 -0);
    }
    dielectric_1
    {
        type            calculated;
        value           nonuniform 0();
    }
    otherfaces
    {
        type            empty;
    }
    procBoundary3to2
    {
        type            processor;
        value           uniform (-0 2265.91141751492 -0);
    }
}


// ************************************************************************* //
