/*--------------------------------*- C++ -*----------------------------------*\
| =========                 |                                                 |
| \\      /  F ield         | foam-extend: Open Source CFD                    |
|  \\    /   O peration     | Version:     4.0                                |
|   \\  /    A nd           | Web:         http://www.foam-extend.org         |
|    \\/     M anipulation  |                                                 |
\*---------------------------------------------------------------------------*/
FoamFile
{
    version     2.0;
    format      ascii;
    class       volScalarField;
    location    "7.8e-06";
    object      Arm;
}
// * * * * * * * * * * * * * * * * * * * * * * * * * * * * * * * * * * * * * //

dimensions      [0 0 0 1 0 0 0];

internalField   nonuniform List<scalar> 
300
(
3.57411415921864e+15
3.57598841234972e+15
3.57793600743308e+15
3.57924222374754e+15
3.58005852551396e+15
3.58043712041266e+15
3.5804222075597e+15
3.58004523558414e+15
3.57933186591112e+15
3.57830407872237e+15
3.5769776545574e+15
3.57536667897651e+15
3.5734832059189e+15
3.57133783837025e+15
3.56894003367934e+15
3.56629833265006e+15
3.56341756891202e+15
3.56030632359294e+15
3.55697293584862e+15
3.55342388729966e+15
3.54966537939959e+15
3.54570333380315e+15
3.54154344050336e+15
3.53719112479687e+15
3.53263577303735e+15
3.52789506383613e+15
3.52297271765209e+15
3.51787076816938e+15
3.51260277982585e+15
3.50717362007612e+15
3.50156959063348e+15
3.49580204042511e+15
3.48988904905766e+15
3.48383601678518e+15
3.47764802987156e+15
3.47132988380114e+15
3.46488176762961e+15
3.45831018952277e+15
3.45162221278366e+15
3.44482137766917e+15
3.43791119029062e+15
3.43089692245338e+15
3.4237824567187e+15
3.4165714846165e+15
3.40926750625909e+15
3.40187378245293e+15
3.39439126170131e+15
3.38682137889025e+15
3.37915639205614e+15
3.37139486704198e+15
3.36352425050417e+15
3.35555698854681e+15
3.34748774406798e+15
3.3393341912333e+15
3.33110448777569e+15
3.32281497530952e+15
3.31446897215673e+15
3.30606939448717e+15
3.29761881186887e+15
3.28911765055376e+15
3.2805702175823e+15
3.27197861961236e+15
3.26333949920265e+15
3.2546349431974e+15
3.24586892938472e+15
3.23706698223473e+15
3.22823122663569e+15
3.21936350234566e+15
3.21046539521528e+15
3.20153826208419e+15
3.19258125187352e+15
3.18358722950697e+15
3.17455466259915e+15
3.16549095676854e+15
3.15638261724225e+15
3.14723069030585e+15
3.13804149833737e+15
3.12881095742718e+15
3.11955894773698e+15
3.11025506309875e+15
3.1009337602974e+15
3.09159720177726e+15
3.08224231749249e+15
3.07287133819813e+15
3.06346949703515e+15
3.05404451115351e+15
3.04460806567757e+15
3.03516047982626e+15
3.02568988537624e+15
3.01620399227552e+15
3.00669675232344e+15
2.99712329523198e+15
2.98753868991794e+15
2.97794464349763e+15
2.96834118707567e+15
2.95872834647477e+15
2.94910590340603e+15
2.93947341168432e+15
2.92981996344483e+15
2.92014549162443e+15
2.91045624439656e+15
2.90075346464905e+15
2.89100551106368e+15
2.88124147976856e+15
2.87145220182936e+15
2.86162836435442e+15
2.85178491300642e+15
2.84190231955874e+15
2.83199096238731e+15
2.82205629004237e+15
2.81209644149517e+15
2.80210912363862e+15
2.79208661037389e+15
2.78202668219523e+15
2.77192709824594e+15
2.76177022507305e+15
2.75153723504278e+15
2.74125283922337e+15
2.73091793056454e+15
2.72052441713319e+15
2.71004598608045e+15
2.69949549314721e+15
2.68884405644283e+15
2.67810201994725e+15
2.667280795267e+15
2.65637816559907e+15
2.6453661132492e+15
2.63426197647697e+15
2.62305497611231e+15
2.61174304179099e+15
2.60031056356338e+15
2.58875365454423e+15
2.57706729063857e+15
2.56522539902353e+15
2.55319160212288e+15
2.54098466278207e+15
2.52860848585103e+15
2.51603807442945e+15
2.50325459889258e+15
2.49026711056908e+15
2.4770596546654e+15
2.46361555665352e+15
2.44990269194146e+15
2.43588897178932e+15
2.42154983193702e+15
2.40690496842957e+15
2.39193955753425e+15
2.37663721875271e+15
2.36096740940461e+15
2.34488134434659e+15
2.3283913235641e+15
2.31147259847508e+15
2.29406303118925e+15
2.2761613310962e+15
2.25774922285299e+15
2.23877702727552e+15
2.21920154163153e+15
2.19902213362095e+15
2.1782196481606e+15
2.15674917148919e+15
2.13457511204376e+15
2.11168232123041e+15
2.0880326438221e+15
2.06363852282002e+15
2.03848694245964e+15
2.01252348745013e+15
1.98576891104434e+15
1.95826773018954e+15
1.93004895020126e+15
1.90115455816477e+15
1.87165307448425e+15
1.84157795012695e+15
1.81102159425283e+15
1.78015544327412e+15
1.74917338339357e+15
1.71824530642552e+15
1.68755041166793e+15
1.65728772475516e+15
1.62769588606611e+15
1.59893057391167e+15
1.57114605842362e+15
1.54448930879355e+15
1.5190418158676e+15
1.4949181831451e+15
1.47211832133318e+15
1.45055230990253e+15
1.43025971196743e+15
1.41119011124999e+15
1.39325772505819e+15
1.37638202279989e+15
1.3604692773887e+15
1.34557093526292e+15
1.33217854407461e+15
1.32536628973022e+15
1.35130979457823e+15
1.41717826795273e+15
1.49685869514562e+15
1.56216763801538e+15
1.61997432388994e+15
1.67843484005609e+15
1.73630743200916e+15
1.78960535781119e+15
1.81409260965691e+15
1.79864701950887e+15
1.75518438963546e+15
1.70080224498446e+15
1.64991580668289e+15
1.6099654139701e+15
1.58148446814379e+15
1.562460533237e+15
1.54977914734251e+15
1.54180781410945e+15
1.53654779768076e+15
1.53360250196163e+15
1.53112927147358e+15
1.52898277495686e+15
1.52719410809405e+15
1.52539474580067e+15
1.52332113099074e+15
1.52081925693234e+15
1.51778338420974e+15
1.51376933530658e+15
1.50878972870083e+15
1.50303934379089e+15
1.49659946638102e+15
1.48963038789105e+15
1.48218033784274e+15
1.47428107804906e+15
1.46598272810627e+15
1.45734296946577e+15
1.4483976997718e+15
1.43919852749551e+15
1.42980118763322e+15
1.42024346923606e+15
1.41056497809981e+15
1.40081990622269e+15
1.39102742139629e+15
1.38123862018282e+15
1.37147161820043e+15
1.36176313704165e+15
1.35213625189273e+15
1.34260305728398e+15
1.33319637915884e+15
1.32391847750041e+15
1.31478978687493e+15
1.30583784209305e+15
1.29705893413389e+15
1.28846880487057e+15
1.28007631419576e+15
1.27187838655175e+15
1.26388571181325e+15
1.2560969114111e+15
1.24851092577068e+15
1.2411333874379e+15
1.2339539559562e+15
1.2269754918468e+15
1.22020036605699e+15
1.21361499920392e+15
1.20722742179826e+15
1.20102761226902e+15
1.19501610719299e+15
1.18917865690929e+15
1.18352037397178e+15
1.17803174001243e+15
1.17270909463181e+15
1.16754723124364e+15
1.16253705605867e+15
1.15767393394068e+15
1.1529457777624e+15
1.14835685784009e+15
1.14389765017515e+15
1.13957093757704e+15
1.13536135388788e+15
1.13127330430431e+15
1.12729383632959e+15
1.12342063822006e+15
1.11965117517069e+15
1.11598466637756e+15
1.1124223190229e+15
1.10895705790505e+15
1.10558697955418e+15
1.10227106685264e+15
1.09886593126508e+15
1.09536179369747e+15
1.09192254802515e+15
1.08855018942929e+15
1.08525372437838e+15
1.08203621380891e+15
1.07888837182763e+15
1.07541843222095e+15
1.07174384078254e+15
1.06815430454839e+15
1.06465783577765e+15
1.06061227479848e+15
1.0564165289072e+15
1.05211734522606e+15
1.04706118232807e+15
1.04151831401369e+15
1.03511572778053e+15
1.02730362670103e+15
)
;

boundaryField
{
    electrode
    {
        type            zeroGradient;
    }
    ground
    {
        type            zeroGradient;
    }
    otherfaces
    {
        type            empty;
    }
}


// ************************************************************************* //
