/*--------------------------------*- C++ -*----------------------------------*\
| =========                 |                                                 |
| \\      /  F ield         | foam-extend: Open Source CFD                    |
|  \\    /   O peration     | Version:     4.0                                |
|   \\  /    A nd           | Web:         http://www.foam-extend.org         |
|    \\/     M anipulation  |                                                 |
\*---------------------------------------------------------------------------*/
FoamFile
{
    version     2.0;
    format      ascii;
    class       volVectorField;
    location    "7.8e-06";
    object      E;
}
// * * * * * * * * * * * * * * * * * * * * * * * * * * * * * * * * * * * * * //

dimensions      [0 0 0 1 0 0 0];

internalField   nonuniform List<vector> 
300
(
(5.42820213361717 -0 -0)
(10.9794912619976 -0 -0)
(19.3462647943288 -0 -0)
(27.0951919359444 -0 -0)
(34.7992520965949 -0 -0)
(42.5709778012489 -0 -0)
(50.3361710813005 -0 -0)
(58.1163650578686 -0 -0)
(65.9124346852343 -0 -0)
(73.7247319734798 -0 -0)
(81.5554898656019 -0 -0)
(89.406311117036 -0 -0)
(97.278882749131 -0 -0)
(105.174928079208 -0 -0)
(113.096166327876 -0 -0)
(121.044332353216 -0 -0)
(129.021174040397 -0 -0)
(137.028452851242 -0 -0)
(145.067945035717 -0 -0)
(153.141442381374 -0 -0)
(161.250753108468 -0 -0)
(169.397702773357 -0 -0)
(177.584135155336 -0 -0)
(185.811913189228 -0 -0)
(194.082919935392 -0 -0)
(202.399059549825 -0 -0)
(210.762258229249 -0 -0)
(219.174465281027 -0 -0)
(227.637654105767 -0 -0)
(236.153823329757 -0 -0)
(244.72499782077 -0 -0)
(253.353229899504 -0 -0)
(262.040600405881 -0 -0)
(270.789219959683 -0 -0)
(279.601230135317 -0 -0)
(288.478804719191 -0 -0)
(297.42415105369 -0 -0)
(306.439511341065 -0 -0)
(315.527164034023 -0 -0)
(324.689425254575 -0 -0)
(333.928650331149 -0 -0)
(343.247235226643 -0 -0)
(352.64761824031 -0 -0)
(362.132281574097 -0 -0)
(371.703753072918 -0 -0)
(381.364607980646 -0 -0)
(391.117470802037 -0 -0)
(400.96501717633 -0 -0)
(410.909975928672 -0 -0)
(420.955131061245 -0 -0)
(431.103323980709 -0 -0)
(441.357455691114 -0 -0)
(451.72048918065 -0 -0)
(462.195451807248 -0 -0)
(472.785437916114 -0 -0)
(483.493611447189 -0 -0)
(494.323208720441 -0 -0)
(505.277541365585 -0 -0)
(516.359999366731 -0 -0)
(527.574054189124 -0 -0)
(538.923262154209 -0 -0)
(550.41126791322 -0 -0)
(562.041808073517 -0 -0)
(573.818715077279 -0 -0)
(585.745921162388 -0 -0)
(597.827462571535 -0 -0)
(610.067484034597 -0 -0)
(622.470243304015 -0 -0)
(635.040116113487 -0 -0)
(647.781601259616 -0 -0)
(660.699325990979 -0 -0)
(673.798051620341 -0 -0)
(687.08267956803 -0 -0)
(700.558257575448 -0 -0)
(714.229986283138 -0 -0)
(728.103226227473 -0 -0)
(742.183505132584 -0 -0)
(756.476525662423 -0 -0)
(770.988173537454 -0 -0)
(785.724526167047 -0 -0)
(800.691861692437 -0 -0)
(815.896668593468 -0 -0)
(831.345655803564 -0 -0)
(847.045763421954 -0 -0)
(863.004174081556 -0 -0)
(879.228324804178 -0 -0)
(895.725919419875 -0 -0)
(912.504942457515 -0 -0)
(929.57367489719 -0 -0)
(946.940708883385 -0 -0)
(964.614955204044 -0 -0)
(982.605651303291 -0 -0)
(1000.92241482617 -0 -0)
(1019.57535210427 -0 -0)
(1038.57499481726 -0 -0)
(1057.93175376328 -0 -0)
(1077.6557036325 -0 -0)
(1097.75923098332 -0 -0)
(1118.26092232409 -0 -0)
(1139.18057974294 -0 -0)
(1160.53381110903 -0 -0)
(1182.33480816284 -0 -0)
(1204.59826874209 -0 -0)
(1227.33957093727 -0 -0)
(1250.57481249758 -0 -0)
(1274.32086405183 -0 -0)
(1298.59541758125 -0 -0)
(1323.41703667089 -0 -0)
(1348.80521050498 -0 -0)
(1374.7804115738 -0 -0)
(1401.36415791594 -0 -0)
(1428.57908022337 -0 -0)
(1456.44899426198 -0 -0)
(1484.99897902624 -0 -0)
(1514.25546133387 -0 -0)
(1544.24630726094 -0 -0)
(1575.00092127938 -0 -0)
(1606.55035368343 -0 -0)
(1638.9274172548 -0 -0)
(1672.16681400284 -0 -0)
(1706.30527314577 -0 -0)
(1741.38170123232 -0 -0)
(1777.4373460859 -0 -0)
(1814.5159756735 -0 -0)
(1852.66407372005 -0 -0)
(1891.93105394218 -0 -0)
(1932.36949485048 -0 -0)
(1974.03539755715 -0 -0)
(2016.9884693446 -0 -0)
(2061.29243579012 -0 -0)
(2107.01538512866 -0 -0)
(2154.23014856571 -0 -0)
(2203.01472122651 -0 -0)
(2253.45272855902 -0 -0)
(2305.63394436637 -0 -0)
(2359.65486689323 -0 -0)
(2415.61936085245 -0 -0)
(2473.6393743302 -0 -0)
(2533.83574076338 -0 -0)
(2596.33907796017 -0 -0)
(2661.29079807992 -0 -0)
(2728.84424472905 -0 -0)
(2799.16597586637 -0 -0)
(2872.43721469769 -0 -0)
(2948.85549481399 -0 -0)
(3028.63652869656 -0 -0)
(3112.01633829171 -0 -0)
(3199.25368341025 -0 -0)
(3290.63285842779 -0 -0)
(3386.46686681186 -0 -0)
(3487.10113440187 -0 -0)
(3592.91774683142 -0 -0)
(3704.34038706353 -0 -0)
(3821.83993617069 -0 -0)
(3945.94151169804 -0 -0)
(4077.23202350732 -0 -0)
(4216.36772485087 -0 -0)
(4364.0911130216 -0 -0)
(4521.23170887516 -0 -0)
(4688.73689933087 -0 -0)
(4867.66755983843 -0 -0)
(5059.3126823489 -0 -0)
(5264.99450609672 -0 -0)
(5486.50457967032 -0 -0)
(5725.44495202672 -0 -0)
(5984.96668487625 -0 -0)
(6271.77614664643 -0 -0)
(6590.51542199275 -0 -0)
(6943.2137130697 -0 -0)
(7333.65466607791 -0 -0)
(7767.67104364643 -0 -0)
(8254.0239591085 -0 -0)
(8802.16454288668 -0 -0)
(9423.56941020196 -0 -0)
(10129.4222292501 -0 -0)
(10922.5136095408 -0 -0)
(11813.2225619181 -0 -0)
(12823.0757702365 -0 -0)
(13959.8808670401 -0 -0)
(15229.4337548069 -0 -0)
(16651.794539319 -0 -0)
(18233.5919239976 -0 -0)
(19975.3633332968 -0 -0)
(21892.6336785172 -0 -0)
(23980.7253886124 -0 -0)
(26229.8742800925 -0 -0)
(28646.9101874547 -0 -0)
(31213.7477707048 -0 -0)
(33906.4978150071 -0 -0)
(36721.2388114437 -0 -0)
(39635.7439784667 -0 -0)
(42619.1785636505 -0 -0)
(45655.7363989714 -0 -0)
(48737.9529844117 -0 -0)
(51839.1044334193 -0 -0)
(54934.3086089832 -0 -0)
(58018.5060303985 -0 -0)
(61091.7055729375 -0 -0)
(64154.5749857848 -0 -0)
(67204.467189833 -0 -0)
(70236.967642565 -0 -0)
(73266.0215868837 -0 -0)
(76315.053870067 -0 -0)
(79388.4558463788 -0 -0)
(82477.4743379331 -0 -0)
(85565.2830035089 -0 -0)
(88639.5671152965 -0 -0)
(91689.9689562067 -0 -0)
(94711.6937671338 -0 -0)
(97703.85080125 -0 -0)
(100667.406574104 -0 -0)
(103604.372456154 -0 -0)
(106517.303903095 -0 -0)
(109403.878720028 -0 -0)
(112259.439653003 -0 -0)
(115084.265583122 -0 -0)
(117881.037986703 -0 -0)
(120652.268408086 -0 -0)
(123400.294463986 -0 -0)
(126127.284957534 -0 -0)
(128835.260081751 -0 -0)
(131526.088137164 -0 -0)
(134201.503173391 -0 -0)
(136863.121264715 -0 -0)
(139512.455269352 -0 -0)
(142146.492172658 -0 -0)
(144761.795277582 -0 -0)
(147359.147922021 -0 -0)
(149939.742425702 -0 -0)
(152504.66986739 -0 -0)
(155054.94634746 -0 -0)
(157591.5046377 -0 -0)
(160115.218726705 -0 -0)
(162626.895846982 -0 -0)
(165127.297520293 -0 -0)
(167617.131667108 -0 -0)
(170097.070035801 -0 -0)
(172567.740286449 -0 -0)
(175029.741887194 -0 -0)
(177483.637676019 -0 -0)
(179929.968994177 -0 -0)
(182368.391024507 -0 -0)
(184796.187108738 -0 -0)
(187211.520462392 -0 -0)
(189614.864429206 -0 -0)
(192006.662048361 -0 -0)
(194387.339224173 -0 -0)
(196757.296579374 -0 -0)
(199116.921159932 -0 -0)
(201466.578894566 -0 -0)
(203806.624771977 -0 -0)
(206137.395791097 -0 -0)
(208459.220046085 -0 -0)
(210772.409650364 -0 -0)
(213077.269809436 -0 -0)
(215374.091539767 -0 -0)
(217663.160648341 -0 -0)
(219944.750922169 -0 -0)
(222219.132540512 -0 -0)
(224486.565021447 -0 -0)
(226747.304584744 -0 -0)
(229001.598628865 -0 -0)
(231249.690476385 -0 -0)
(233491.815148677 -0 -0)
(235728.204710134 -0 -0)
(237957.474780445 -0 -0)
(240177.809874238 -0 -0)
(242388.966212805 -0 -0)
(244591.1761829 -0 -0)
(246784.654016841 -0 -0)
(248969.623576081 -0 -0)
(251146.283568286 -0 -0)
(253314.850919798 -0 -0)
(255475.509988547 -0 -0)
(257628.468796544 -0 -0)
(259773.901632129 -0 -0)
(261912.004494605 -0 -0)
(264042.944356048 -0 -0)
(266166.906933186 -0 -0)
(268284.049982043 -0 -0)
(270394.553450994 -0 -0)
(272498.565805749 -0 -0)
(274596.260435656 -0 -0)
(276687.780003038 -0 -0)
(278773.287599387 -0 -0)
(280852.915118824 -0 -0)
(282926.818908635 -0 -0)
(284995.122609656 -0 -0)
(287057.975492474 -0 -0)
(289115.496335111 -0 -0)
(291167.828368292 -0 -0)
(293215.078281033 -0 -0)
(295257.379956539 -0 -0)
(297294.836122473 -0 -0)
(299327.572686861 -0 -0)
(301355.676976255 -0 -0)
(303379.266130759 -0 -0)
(305398.408096859 -0 -0)
(307413.012111852 -0 -0)
(309420.3245948 -0 -0)
)
;

boundaryField
{
    electrode
    {
        type            calculated;
        value           uniform (4.30643334539127 -0 -0);
    }
    ground
    {
        type            calculated;
        value           uniform (310421.297544177 -0 -0);
    }
    otherfaces
    {
        type            empty;
    }
}


// ************************************************************************* //
