/*--------------------------------*- C++ -*----------------------------------*\
| =========                 |                                                 |
| \\      /  F ield         | foam-extend: Open Source CFD                    |
|  \\    /   O peration     | Version:     4.0                                |
|   \\  /    A nd           | Web:         http://www.foam-extend.org         |
|    \\/     M anipulation  |                                                 |
\*---------------------------------------------------------------------------*/
FoamFile
{
    version     2.0;
    format      ascii;
    class       volScalarField;
    location    "7.8e-06";
    object      electron;
}
// * * * * * * * * * * * * * * * * * * * * * * * * * * * * * * * * * * * * * //

dimensions      [0 0 0 1 0 0 0];

internalField   nonuniform List<scalar> 
300
(
6.60774262486708e+16
6.60756745319334e+16
6.60711471995391e+16
6.60634543742458e+16
6.60526573115276e+16
6.60387317707068e+16
6.60216720454671e+16
6.60014774321766e+16
6.59781446844063e+16
6.59516710101548e+16
6.59220534188785e+16
6.5889288668983e+16
6.58533733319085e+16
6.58143037720265e+16
6.5772076148905e+16
6.57266864189397e+16
6.56781303355604e+16
6.56264034501339e+16
6.55715011128522e+16
6.55134184736921e+16
6.54521504834709e+16
6.53876918949827e+16
6.53200372642242e+16
6.52491809517118e+16
6.51751171238854e+16
6.50978397546003e+16
6.50173426267196e+16
6.49336193337997e+16
6.48466632818725e+16
6.47564676913245e+16
6.46630255988775e+16
6.45663298596674e+16
6.44663731494277e+16
6.43631479667777e+16
6.4256646635613e+16
6.41468613076105e+16
6.40337839648355e+16
6.39174064224554e+16
6.37977203315699e+16
6.36747171821535e+16
6.35483883061015e+16
6.34187248803985e+16
6.32857179303971e+16
6.31493583332052e+16
6.30096368211957e+16
6.28665439856263e+16
6.27200702803735e+16
6.2570206025783e+16
6.24169414126303e+16
6.22602665061962e+16
6.21001712504558e+16
6.19366454723761e+16
6.17696788863235e+16
6.15992610985821e+16
6.14253816119759e+16
6.1248029830593e+16
6.10671950646196e+16
6.08828665352684e+16
6.06950333797997e+16
6.05036846566433e+16
6.03088093506104e+16
6.01103963781873e+16
5.99084345929167e+16
5.9702912790852e+16
5.94938197160871e+16
5.92811440663602e+16
5.90648744987136e+16
5.88449996352151e+16
5.86215080687344e+16
5.83943883687581e+16
5.81636290872473e+16
5.79292187645343e+16
5.76911459352372e+16
5.74493991341872e+16
5.72039669023762e+16
5.69548377929011e+16
5.67020003768996e+16
5.64454432494696e+16
5.61851550355636e+16
5.59211243958447e+16
5.56533400324976e+16
5.53817906949828e+16
5.51064651857221e+16
5.48273523657064e+16
5.45444411600074e+16
5.42577205631953e+16
5.3967179644685e+16
5.36728075539199e+16
5.33745935251914e+16
5.30725268822418e+16
5.27665970437492e+16
5.24567935303143e+16
5.21431059676852e+16
5.18255240765931e+16
5.15040376654943e+16
5.11786366944327e+16
5.08493114019231e+16
5.05160521184622e+16
5.0178848293836e+16
4.98376877124745e+16
4.9492557053799e+16
4.91434427937106e+16
4.87903315319439e+16
4.84332100601505e+16
4.80720653791383e+16
4.77068847000968e+16
4.73376554410382e+16
4.69643652216441e+16
4.65870018573312e+16
4.62055533527247e+16
4.58200078945764e+16
4.54303538440783e+16
4.50365797285173e+16
4.46386742322221e+16
4.42366261867294e+16
4.38304245601038e+16
4.34200584453402e+16
4.30055170477665e+16
4.25867896713637e+16
4.21638657039121e+16
4.17367346008565e+16
4.13053858677925e+16
4.08698090414506e+16
4.04299936690428e+16
3.99859292858405e+16
3.95376053908221e+16
3.90850114202204e+16
3.86281367187909e+16
3.8166970508589e+16
3.77015018550349e+16
3.72317196300221e+16
3.67576124718e+16
3.62791687413288e+16
3.57963764747839e+16
3.53092233318524e+16
3.48176965394245e+16
3.43217828302554e+16
3.38214683761219e+16
3.33167387149537e+16
3.28075786713857e+16
3.22939722701203e+16
3.17759026414327e+16
3.12533519181144e+16
3.07263011231129e+16
3.01947300470261e+16
2.96586171146915e+16
2.91179392398973e+16
2.85726716677081e+16
2.80227878027307e+16
2.74682590241753e+16
2.69090544856979e+16
2.63451408996976e+16
2.57764823067159e+16
2.52030398368548e+16
2.46247714498153e+16
2.40416316402576e+16
2.34535712783504e+16
2.28605371316481e+16
2.22624718217108e+16
2.16593132807347e+16
2.10509951014671e+16
2.04374423393229e+16
1.98185752256512e+16
1.91943007834224e+16
1.85645125285907e+16
1.79290531060344e+16
1.72875343982643e+16
1.66393518695743e+16
1.59839579919285e+16
1.53209469308213e+16
1.46499683850044e+16
1.39706296573295e+16
1.32824888408634e+16
1.25851315118292e+16
1.18782915772496e+16
1.11622669130336e+16
1.04380586122083e+16
9.7070084398081e+15
8.97105719995237e+15
8.2332257035995e+15
7.49737574736175e+15
6.76819219548202e+15
6.05141613269445e+15
5.35353717259333e+15
4.68158612882265e+15
4.0429586589523e+15
3.44471463770567e+15
2.89313375915428e+15
2.39341236233903e+15
1.94906607195984e+15
1.56166294147892e+15
1.23084958153353e+15
954381617090976
728356467652607
547556293527924
405899557153071
297319235429878
215645377213326
155132406864606
110065351239778
76106196292829.9
51530714260328.7
34025433941426.1
21502429139400
13051202471531.3
7807893503676.46
4802885621684.44
3158957721685.35
2265617137589.45
1770549969636.78
1488518184504
1324239450060.28
1227448284934.9
1170748831297.18
1138614458961.95
1121693014875.05
1114031369082.29
1111706803425.92
1112141096782.65
1113883104808.82
1115770773540.14
1116938041277.01
1117016632432.54
1115636581871.61
1112599359094
1107808954176.65
1101244656452.45
1092938187391.81
1082958364298.6
1071400382713.59
1058377773889.42
1044016171591.8
1028448412982.59
1011810663582.85
994239356293.61
975868755525.94
956829112241.563
937244753076.183
917233562573.938
896897356277.195
876327041935.126
855616630826.416
834857862928.311
814135381574.444
793525791964.406
773097115217.135
752909093243.185
733013575948.92
713454995725.55
694270871108.015
675492327696.688
657144629934.795
639247701967.251
621816752974.476
604862765576.122
588394759720.14
572415430553.717
556920957163.316
541909892443.613
527379897654.843
513324510043.911
499735761530.371
486604474200.475
473920494461.609
461672874469.266
449850233241.108
438441096295.854
427433862785.475
416816700534.337
406577450820.817
396703454067.816
387178157654.772
377976742782.349
369079497630.225
360476562039.781
352159122104.118
344119400580.979
336350181823.965
328844874657.215
321597563963.547
314603056119.665
307856998401.953
301355009851.679
295092762376.135
289045491347.246
283182411025.587
277501693776.429
272017691479.173
266746990120.57
261705701948.361
256858883765.931
252189063045.524
247753066746.959
243575293051.5
239677262440.894
236150858293.959
233130699408.33
230893501693.784
229937970299.367
231098595135.718
)
;

boundaryField
{
    electrode
    {
        type            driftDiffusionElectronDensity;
        seec            0.05;
        Edepend         1;
        field_emission  0;
        field_enhancement_factor 55;
        work_function   5;
        value           uniform 6.60774262486708e+16;
    }
    ground
    {
        type            driftDiffusionElectronDensity;
        seec            0.05;
        Edepend         1;
        field_emission  0;
        field_enhancement_factor 55;
        work_function   5;
        value           uniform 233339427738.475;
    }
    otherfaces
    {
        type            empty;
    }
}


// ************************************************************************* //
