/*--------------------------------*- C++ -*----------------------------------*\
| =========                 |                                                 |
| \\      /  F ield         | foam-extend: Open Source CFD                    |
|  \\    /   O peration     | Version:     4.0                                |
|   \\  /    A nd           | Web:         http://www.foam-extend.org         |
|    \\/     M anipulation  |                                                 |
\*---------------------------------------------------------------------------*/
FoamFile
{
    version     2.0;
    format      ascii;
    class       volVectorField;
    location    "7.8e-06";
    object      J_Arp1;
}
// * * * * * * * * * * * * * * * * * * * * * * * * * * * * * * * * * * * * * //

dimensions      [1 -1 -1 0 0 0 0];

internalField   nonuniform List<vector> 
300
(
(2.02025398506892e+16 -0 -0)
(7.23558503970544e+16 -0 -0)
(1.29089734048787e+17 -0 -0)
(1.79533307331908e+17 -0 -0)
(2.30677870577329e+17 -0 -0)
(2.82134313673405e+17 -0 -0)
(3.33457585965386e+17 -0 -0)
(3.84839749921233e+17 -0 -0)
(4.36252106452147e+17 -0 -0)
(4.87694160243006e+17 -0 -0)
(5.39173435263802e+17 -0 -0)
(5.9069226529022e+17 -0 -0)
(6.42254172447035e+17 -0 -0)
(6.93862653952186e+17 -0 -0)
(7.45521091175251e+17 -0 -0)
(7.97232879652093e+17 -0 -0)
(8.49001387799455e+17 -0 -0)
(9.00829959272815e+17 -0 -0)
(9.52721913324303e+17 -0 -0)
(1.00468054241557e+18 -0 -0)
(1.05670911097221e+18 -0 -0)
(1.10881085390758e+18 -0 -0)
(1.16098897496147e+18 -0 -0)
(1.21324664513522e+18 -0 -0)
(1.26558700121525e+18 -0 -0)
(1.31801314417798e+18 -0 -0)
(1.37052813719395e+18 -0 -0)
(1.42313500426794e+18 -0 -0)
(1.47583672816249e+18 -0 -0)
(1.52863624903993e+18 -0 -0)
(1.58153646212646e+18 -0 -0)
(1.63454021646834e+18 -0 -0)
(1.68765031248362e+18 -0 -0)
(1.74086950048547e+18 -0 -0)
(1.79420047847241e+18 -0 -0)
(1.84764589012138e+18 -0 -0)
(1.90120832304399e+18 -0 -0)
(1.95489030655876e+18 -0 -0)
(2.00869430963956e+18 -0 -0)
(2.06262273873016e+18 -0 -0)
(2.11667793602811e+18 -0 -0)
(2.17086217666158e+18 -0 -0)
(2.22517766723644e+18 -0 -0)
(2.2796265431961e+18 -0 -0)
(2.33421086680603e+18 -0 -0)
(2.38893262483241e+18 -0 -0)
(2.44379372648961e+18 -0 -0)
(2.49879600092943e+18 -0 -0)
(2.55394119536964e+18 -0 -0)
(2.60923097240393e+18 -0 -0)
(2.66466690814733e+18 -0 -0)
(2.72025048966213e+18 -0 -0)
(2.77598311301882e+18 -0 -0)
(2.83186608068248e+18 -0 -0)
(2.88790059968687e+18 -0 -0)
(2.94408777911865e+18 -0 -0)
(3.00042862793258e+18 -0 -0)
(3.05692405288078e+18 -0 -0)
(3.1135748564284e+18 -0 -0)
(3.17038173427179e+18 -0 -0)
(3.22734527349506e+18 -0 -0)
(3.28446595046754e+18 -0 -0)
(3.34174412862043e+18 -0 -0)
(3.3991800567364e+18 -0 -0)
(3.4567738667222e+18 -0 -0)
(3.51452557164933e+18 -0 -0)
(3.57243506425034e+18 -0 -0)
(3.63050211454015e+18 -0 -0)
(3.68872636850948e+18 -0 -0)
(3.74710734618427e+18 -0 -0)
(3.80564444005285e+18 -0 -0)
(3.86433691316423e+18 -0 -0)
(3.9231838980931e+18 -0 -0)
(3.98218439520693e+18 -0 -0)
(4.04133727110025e+18 -0 -0)
(4.10064125752459e+18 -0 -0)
(4.16009494996185e+18 -0 -0)
(4.21969680656304e+18 -0 -0)
(4.27944514685219e+18 -0 -0)
(4.339338150918e+18 -0 -0)
(4.3993738582452e+18 -0 -0)
(4.45955016691577e+18 -0 -0)
(4.51986483277112e+18 -0 -0)
(4.58031546865096e+18 -0 -0)
(4.64089954404853e+18 -0 -0)
(4.70161438382156e+18 -0 -0)
(4.76245716592622e+18 -0 -0)
(4.82342492338508e+18 -0 -0)
(4.8845145530954e+18 -0 -0)
(4.94572281547608e+18 -0 -0)
(5.00704628554528e+18 -0 -0)
(5.06848129020842e+18 -0 -0)
(5.13002409697947e+18 -0 -0)
(5.19167146276517e+18 -0 -0)
(5.25342027379027e+18 -0 -0)
(5.31526427769483e+18 -0 -0)
(5.3771921175054e+18 -0 -0)
(5.43920179282158e+18 -0 -0)
(5.50132534710898e+18 -0 -0)
(5.56358853438107e+18 -0 -0)
(5.62599308166172e+18 -0 -0)
(5.6885332544417e+18 -0 -0)
(5.75120258117361e+18 -0 -0)
(5.81399428665057e+18 -0 -0)
(5.87690143587355e+18 -0 -0)
(5.93991699547632e+18 -0 -0)
(6.00303384570319e+18 -0 -0)
(6.06624478067763e+18 -0 -0)
(6.12954250716937e+18 -0 -0)
(6.19291964142907e+18 -0 -0)
(6.25636870618913e+18 -0 -0)
(6.31988212761347e+18 -0 -0)
(6.38345223233995e+18 -0 -0)
(6.44707124412152e+18 -0 -0)
(6.51073128080323e+18 -0 -0)
(6.57442435085517e+18 -0 -0)
(6.63814235007733e+18 -0 -0)
(6.70187705786074e+18 -0 -0)
(6.76562013357093e+18 -0 -0)
(6.8293631124569e+18 -0 -0)
(6.89309740175363e+18 -0 -0)
(6.95681427588393e+18 -0 -0)
(7.02050487215928e+18 -0 -0)
(7.0841601856437e+18 -0 -0)
(7.14777106389082e+18 -0 -0)
(7.21132820148439e+18 -0 -0)
(7.27482213395012e+18 -0 -0)
(7.3382432313746e+18 -0 -0)
(7.40158169182502e+18 -0 -0)
(7.46482753390664e+18 -0 -0)
(7.52797058923675e+18 -0 -0)
(7.59100049402118e+18 -0 -0)
(7.65390668054781e+18 -0 -0)
(7.71667836759265e+18 -0 -0)
(7.77930455068823e+18 -0 -0)
(7.84177399136582e+18 -0 -0)
(7.90407520584925e+18 -0 -0)
(7.96619645314093e+18 -0 -0)
(8.02812572221942e+18 -0 -0)
(8.08985071846045e+18 -0 -0)
(8.15135884915347e+18 -0 -0)
(8.21263720852507e+18 -0 -0)
(8.27367256157081e+18 -0 -0)
(8.33445132584715e+18 -0 -0)
(8.39495955798688e+18 -0 -0)
(8.45518292417729e+18 -0 -0)
(8.51510670560078e+18 -0 -0)
(8.57471571322947e+18 -0 -0)
(8.63399442833012e+18 -0 -0)
(8.69292664360006e+18 -0 -0)
(8.75149598562128e+18 -0 -0)
(8.80968519104905e+18 -0 -0)
(8.86747703161625e+18 -0 -0)
(8.92485241193772e+18 -0 -0)
(8.9817938532335e+18 -0 -0)
(9.0382838729421e+18 -0 -0)
(9.09428849302588e+18 -0 -0)
(9.14982664381831e+18 -0 -0)
(9.20479993462003e+18 -0 -0)
(9.25932185798409e+18 -0 -0)
(9.31307969288237e+18 -0 -0)
(9.36684890952971e+18 -0 -0)
(9.41904174716671e+18 -0 -0)
(9.47260949936975e+18 -0 -0)
(9.52234271736995e+18 -0 -0)
(9.57547277580866e+18 -0 -0)
(9.62557191321115e+18 -0 -0)
(9.67557743900383e+18 -0 -0)
(9.72500448620294e+18 -0 -0)
(9.77380670308537e+18 -0 -0)
(9.82119479015247e+18 -0 -0)
(9.87026751407148e+18 -0 -0)
(9.9140101399227e+18 -0 -0)
(9.96477977056752e+18 -0 -0)
(1.00059023413815e+19 -0 -0)
(1.00494473937098e+19 -0 -0)
(1.0095201053827e+19 -0 -0)
(1.01380674894849e+19 -0 -0)
(1.017461372693e+19 -0 -0)
(1.02183497768554e+19 -0 -0)
(1.02570194556774e+19 -0 -0)
(1.02885465528173e+19 -0 -0)
(1.03282905241965e+19 -0 -0)
(1.03620163513718e+19 -0 -0)
(1.03862650201966e+19 -0 -0)
(1.04253287552938e+19 -0 -0)
(1.04469570564399e+19 -0 -0)
(1.04746789531109e+19 -0 -0)
(1.0498684540705e+19 -0 -0)
(1.05273865884466e+19 -0 -0)
(1.05417164286965e+19 -0 -0)
(1.05747816565684e+19 -0 -0)
(1.05906191068701e+19 -0 -0)
(1.06309745468703e+19 -0 -0)
(1.06421416624733e+19 -0 -0)
(1.06993653751527e+19 -0 -0)
(1.07187496611599e+19 -0 -0)
(1.08023332799678e+19 -0 -0)
(1.0852512001985e+19 -0 -0)
(1.099823855633e+19 -0 -0)
(1.11412474253214e+19 -0 -0)
(1.13877801311338e+19 -0 -0)
(1.16428973975055e+19 -0 -0)
(1.19406233434108e+19 -0 -0)
(1.21337396166516e+19 -0 -0)
(1.23507588942724e+19 -0 -0)
(1.25084982220749e+19 -0 -0)
(1.26195739245471e+19 -0 -0)
(1.27053932300629e+19 -0 -0)
(1.27746300328639e+19 -0 -0)
(1.28339525749799e+19 -0 -0)
(1.2886914234104e+19 -0 -0)
(1.29369387286191e+19 -0 -0)
(1.29829341288474e+19 -0 -0)
(1.30299502322864e+19 -0 -0)
(1.30747720634884e+19 -0 -0)
(1.31209745000317e+19 -0 -0)
(1.31656748191231e+19 -0 -0)
(1.32121852568288e+19 -0 -0)
(1.32572731281371e+19 -0 -0)
(1.33042703981837e+19 -0 -0)
(1.334975145298e+19 -0 -0)
(1.33970292037242e+19 -0 -0)
(1.34426213579491e+19 -0 -0)
(1.34900929099339e+19 -0 -0)
(1.353488920448e+19 -0 -0)
(1.35827602821635e+19 -0 -0)
(1.36270892638334e+19 -0 -0)
(1.36744897237686e+19 -0 -0)
(1.37180253665623e+19 -0 -0)
(1.37646178822123e+19 -0 -0)
(1.38070358389437e+19 -0 -0)
(1.38525235188668e+19 -0 -0)
(1.38935797874203e+19 -0 -0)
(1.39377468261453e+19 -0 -0)
(1.39772722378928e+19 -0 -0)
(1.40199641721984e+19 -0 -0)
(1.40578336119073e+19 -0 -0)
(1.40989413696598e+19 -0 -0)
(1.41350669561136e+19 -0 -0)
(1.41745419595673e+19 -0 -0)
(1.42088173227735e+19 -0 -0)
(1.42464369081899e+19 -0 -0)
(1.42792069540194e+19 -0 -0)
(1.43150726613629e+19 -0 -0)
(1.43460257665334e+19 -0 -0)
(1.43802059227162e+19 -0 -0)
(1.44093736919486e+19 -0 -0)
(1.4441905133886e+19 -0 -0)
(1.44693428253619e+19 -0 -0)
(1.45002813355717e+19 -0 -0)
(1.45260565851092e+19 -0 -0)
(1.45554678885351e+19 -0 -0)
(1.45796489115441e+19 -0 -0)
(1.46076033169686e+19 -0 -0)
(1.4630261080642e+19 -0 -0)
(1.46568352980116e+19 -0 -0)
(1.46780575307084e+19 -0 -0)
(1.47033338406105e+19 -0 -0)
(1.47232153198515e+19 -0 -0)
(1.47472759280519e+19 -0 -0)
(1.47659064103571e+19 -0 -0)
(1.47888193867024e+19 -0 -0)
(1.48062623670328e+19 -0 -0)
(1.48281277377386e+19 -0 -0)
(1.48442540791713e+19 -0 -0)
(1.48653884227131e+19 -0 -0)
(1.48804362544672e+19 -0 -0)
(1.49006730917043e+19 -0 -0)
(1.49146511454986e+19 -0 -0)
(1.49341258907663e+19 -0 -0)
(1.49470509286751e+19 -0 -0)
(1.49658904254421e+19 -0 -0)
(1.49777758217023e+19 -0 -0)
(1.49960630346034e+19 -0 -0)
(1.50069610729195e+19 -0 -0)
(1.50247188642517e+19 -0 -0)
(1.50347057971323e+19 -0 -0)
(1.50519648314223e+19 -0 -0)
(1.5061075644836e+19 -0 -0)
(1.50779165507638e+19 -0 -0)
(1.50861715656504e+19 -0 -0)
(1.51026519889159e+19 -0 -0)
(1.51101103336659e+19 -0 -0)
(1.5126220223719e+19 -0 -0)
(1.51328571620002e+19 -0 -0)
(1.51486285233928e+19 -0 -0)
(1.5154442430751e+19 -0 -0)
(1.51698919621265e+19 -0 -0)
(1.5174925660752e+19 -0 -0)
(1.51900723709093e+19 -0 -0)
(1.51942517158173e+19 -0 -0)
(1.52090611855958e+19 -0 -0)
(1.52124195842191e+19 -0 -0)
(1.52268692875979e+19 -0 -0)
(1.52292677467078e+19 -0 -0)
(1.52433191344535e+19 -0 -0)
(1.52445538778656e+19 -0 -0)
(1.52579374955239e+19 -0 -0)
(1.52349359869071e+19 -0 -0)
)
;

boundaryField
{
    electrode
    {
        type            calculated;
        value           uniform (-14268204972.5584 -0 -0);
    }
    ground
    {
        type            calculated;
        value           uniform (1.52636652034643e+19 -0 -0);
    }
    otherfaces
    {
        type            empty;
    }
}


// ************************************************************************* //
