/*--------------------------------*- C++ -*----------------------------------*\
| =========                 |                                                 |
| \\      /  F ield         | foam-extend: Open Source CFD                    |
|  \\    /   O peration     | Version:     4.0                                |
|   \\  /    A nd           | Web:         http://www.foam-extend.org         |
|    \\/     M anipulation  |                                                 |
\*---------------------------------------------------------------------------*/
FoamFile
{
    version     2.0;
    format      ascii;
    class       volScalarField;
    location    "7.8e-06";
    object      Sy_electron;
}
// * * * * * * * * * * * * * * * * * * * * * * * * * * * * * * * * * * * * * //

dimensions      [1 -3 -1 0 0 0 0];

internalField   nonuniform List<scalar> 
300
(
3.21344762004025e-09
3.21415814866728e-09
3.21441818390343e-09
3.2143310303102e-09
3.21425932501447e-09
3.21413197798663e-09
3.21395762276726e-09
3.21374112485416e-09
3.21348014689438e-09
3.21317481781903e-09
3.21282484894394e-09
3.21242985569529e-09
3.21198949552797e-09
3.21150339524601e-09
3.21097116641631e-09
3.21039240584989e-09
3.20976669403684e-09
3.20909359552084e-09
3.20837265872476e-09
3.20760341580591e-09
3.20678538255563e-09
3.20591805826815e-09
3.20500092561168e-09
3.20403345050438e-09
3.20301508195883e-09
3.20194525201548e-09
3.2008233755351e-09
3.19964885008597e-09
3.1984210558231e-09
3.19713935530739e-09
3.19580309334711e-09
3.19441159691443e-09
3.19296417496686e-09
3.19146011826128e-09
3.18989869920846e-09
3.18827917171758e-09
3.18660077102913e-09
3.18486271355732e-09
3.18306419671391e-09
3.18120439873113e-09
3.17928247848091e-09
3.1772975753073e-09
3.17524880883715e-09
3.17313527877677e-09
3.17095606473842e-09
3.1687102260394e-09
3.16639680149122e-09
3.16401480920412e-09
3.16156324635959e-09
3.15904108901873e-09
3.1564472918751e-09
3.15378078809068e-09
3.15104048898114e-09
3.14822528385459e-09
3.14533403971245e-09
3.14236560101551e-09
3.13931878940339e-09
3.13619240344206e-09
3.13298521833899e-09
3.12969598566682e-09
3.12632343306966e-09
3.12286626395385e-09
3.11932315716805e-09
3.11569276665799e-09
3.1119737211905e-09
3.10816462399392e-09
3.10426405232743e-09
3.10027055713894e-09
3.0961826626698e-09
3.09199886604232e-09
3.08771763682517e-09
3.08333741659491e-09
3.07885661847889e-09
3.07427362667347e-09
3.06958679589618e-09
3.06479445090657e-09
3.05989488593984e-09
3.05488636410182e-09
3.04976711681376e-09
3.04453534306129e-09
3.03918920889899e-09
3.03372684660967e-09
3.02814635400675e-09
3.0224457936803e-09
3.01662319214686e-09
3.01067653902609e-09
3.00460378618592e-09
2.99840284691738e-09
2.99207159481662e-09
2.98560786191501e-09
2.9790094370478e-09
2.97227406890289e-09
2.96539947258757e-09
2.95838331467941e-09
2.95122315705948e-09
2.94391646381615e-09
2.93646090677726e-09
2.92885474016158e-09
2.92188121981575e-09
2.91596834071911e-09
2.9099178757755e-09
2.90372656398083e-09
2.89739131683175e-09
2.89090902530146e-09
2.8842765256207e-09
2.8774905860821e-09
2.87054790093635e-09
2.86344508617755e-09
2.85617867587665e-09
2.84874511833228e-09
2.84114077213348e-09
2.83336190201353e-09
2.82540467444411e-09
2.81726515302611e-09
2.80893929355829e-09
2.80042293880711e-09
2.79171181301382e-09
2.78280151609681e-09
2.77368751733857e-09
2.76436514880552e-09
2.7548295983072e-09
2.74507590199895e-09
2.73509893632624e-09
2.72489340963871e-09
2.71445385310032e-09
2.70377461102422e-09
2.69284983054332e-09
2.68167345068269e-09
2.67023919048529e-09
2.65854053643462e-09
2.64657072890997e-09
2.63432274772247e-09
2.62178929654165e-09
2.60896278615817e-09
2.59583531654031e-09
2.58239865759853e-09
2.56864422828725e-09
2.55456307418405e-09
2.54014584336225e-09
2.52538276032464e-09
2.51026359778635e-09
2.49477764624968e-09
2.47891368104641e-09
2.46265992677118e-09
2.44600401860444e-09
2.42893296069621e-09
2.41143308029598e-09
2.39348997975778e-09
2.37508848110955e-09
2.35621256998223e-09
2.33684533312514e-09
2.31696888912429e-09
2.29656430551494e-09
2.27561153967325e-09
2.25408937729667e-09
2.23197509031613e-09
2.20924501867254e-09
2.18587337228474e-09
2.16183347924677e-09
2.13709566598174e-09
2.11277464249169e-09
2.08845530854431e-09
2.06337558320058e-09
2.03750142426162e-09
2.01086163414696e-09
1.98376135856131e-09
1.95615563720694e-09
1.92743915405606e-09
1.89732815822361e-09
1.86590629525574e-09
1.83331014308963e-09
1.79951152646516e-09
1.76428631598782e-09
1.72730571844887e-09
1.68751150608236e-09
1.64438352278133e-09
1.59882880268896e-09
1.54880660103034e-09
1.49225397054128e-09
1.43220411576986e-09
1.36910521436077e-09
1.30256370341098e-09
1.23388118532668e-09
1.16445818227356e-09
1.09556446759519e-09
1.02293304134806e-09
9.5657100042868e-10
9.00753474430156e-10
8.55880256744264e-10
8.19675758735542e-10
8.05253045719685e-10
8.09317148040551e-10
8.36552827283059e-10
8.996327687293e-10
1.00658476331016e-09
1.1795161020931e-09
1.46177289437624e-09
1.93819102143256e-09
2.75216797298279e-09
4.02853195337226e-09
5.32975016598602e-09
6.5676595180657e-09
7.47963054851297e-09
7.20454626400501e-09
6.12433151289999e-09
4.77282520154851e-09
3.60090196681231e-09
2.73381154862695e-09
2.16398967626296e-09
1.80228995625459e-09
1.57997096952219e-09
1.44972043997322e-09
1.36603144435286e-09
1.32154980899454e-09
1.29954687569766e-09
1.28773600542094e-09
1.28544840433269e-09
1.28847709409265e-09
1.29404004195593e-09
1.30058426322153e-09
1.30684452432086e-09
1.31060623389837e-09
1.31227134749964e-09
1.31208441430188e-09
1.30982781854533e-09
1.30540034422266e-09
1.29878696448804e-09
1.29003257549952e-09
1.27922444962754e-09
1.26647997001423e-09
1.25193740338376e-09
1.2357487329376e-09
1.21807401327658e-09
1.19907689797628e-09
1.17892110158287e-09
1.15776757890364e-09
1.13577239682993e-09
1.11308448366161e-09
1.08984520229207e-09
1.06617651538961e-09
1.04218722295062e-09
1.01799019530262e-09
9.93695640999344e-10
9.694052837994e-10
9.45211307013657e-10
9.21195693221186e-10
8.97430595832815e-10
8.7397879482967e-10
8.50894256377573e-10
8.28222726580386e-10
8.06002345261348e-10
7.84264273489499e-10
7.63033305710681e-10
7.42297020305738e-10
7.22058111011749e-10
7.0239934544768e-10
6.83323940786894e-10
6.64827335739862e-10
6.46907802680886e-10
6.29562549688677e-10
6.12783160562616e-10
5.96460210472383e-10
5.80661778678374e-10
5.65376529606955e-10
5.50592137867415e-10
5.3629572129833e-10
5.22474250836193e-10
5.09114506073835e-10
4.96202947249782e-10
4.83725602901663e-10
4.71667910704396e-10
4.60010681411662e-10
4.48724677824302e-10
4.3778682908468e-10
4.27185882522565e-10
4.16911626509837e-10
4.06955029151787e-10
3.97307653046108e-10
3.87961732227308e-10
3.7891022510791e-10
3.70146857101143e-10
3.61666262958087e-10
3.53462925780171e-10
3.45058112671976e-10
3.36706084357228e-10
3.28551210830217e-10
3.20590685876116e-10
3.12839607132864e-10
3.05314606341768e-10
2.97867831565293e-10
2.89495717445038e-10
2.81289977241356e-10
2.73308034221356e-10
2.64718264388159e-10
2.55032073306241e-10
2.45666232775837e-10
2.33341676375416e-10
2.1983588737964e-10
2.02671081261865e-10
1.77982236597998e-10
)
;

boundaryField
{
    electrode
    {
        type            zeroGradient;
    }
    ground
    {
        type            zeroGradient;
    }
    otherfaces
    {
        type            empty;
    }
}


// ************************************************************************* //
