/*--------------------------------*- C++ -*----------------------------------*\
| =========                 |                                                 |
| \\      /  F ield         | foam-extend: Open Source CFD                    |
|  \\    /   O peration     | Version:     4.0                                |
|   \\  /    A nd           | Web:         http://www.foam-extend.org         |
|    \\/     M anipulation  |                                                 |
\*---------------------------------------------------------------------------*/
FoamFile
{
    version     2.0;
    format      ascii;
    class       volScalarField;
    location    "7.8e-06";
    object      Te;
}
// * * * * * * * * * * * * * * * * * * * * * * * * * * * * * * * * * * * * * //

dimensions      [0 0 0 1 0 0 0];

internalField   nonuniform List<scalar> 
300
(
40128.9480536981
40129.2361478671
40129.4100037506
40129.5139375026
40129.6781602062
40129.8773908263
40130.1148880864
40130.392466027
40130.7093832585
40131.065790589
40131.4616985204
40131.8970946828
40132.371992698
40132.8864062686
40133.4403547847
40134.0338635328
40134.6669631982
40135.3396900598
40136.0520859948
40136.8041985012
40137.5960807333
40138.427791535
40139.2993954772
40140.2109629022
40141.1625699679
40142.1542986943
40143.1862370179
40144.2584788469
40145.3711241218
40146.5242788781
40147.7180553143
40148.9525718635
40150.2279532675
40151.5443306585
40152.9018416398
40154.3006303787
40155.740847697
40157.2226511673
40158.7462052161
40160.3116812335
40161.9192576807
40163.5691202104
40165.2614617907
40166.9964828298
40168.7743913129
40170.5954029407
40172.4597412751
40174.3676378931
40176.3193325436
40178.3150733137
40180.3551168018
40182.4397282973
40184.5691819671
40186.743761052
40188.9637580704
40191.2294750267
40193.5412236358
40195.8993255526
40198.3041126085
40200.7559270618
40203.2551218595
40205.8020609042
40208.3971193388
40211.0406838381
40213.7331529131
40216.474937234
40219.2664599575
40222.1081570742
40225.0004777714
40227.9438848065
40230.938854898
40233.9858791384
40237.0854634199
40240.238128876
40243.4444123497
40246.7048668786
40250.0200622008
40253.3905852848
40256.8170408826
40260.3000521086
40263.840261043
40267.4383293658
40271.0949390175
40274.8107928935
40278.5866155664
40282.4231540342
40286.3211785403
40290.2814834649
40294.3048881543
40298.3922375027
40302.5444027097
40306.7622838842
40311.046814122
40315.398955728
40319.8196800088
40324.3099700677
40328.8709404626
40333.5039938691
40338.2105210753
40342.9915350578
40347.8479878194
40352.7810532252
40357.79203198
40362.8822872131
40368.0532355065
40373.3063455071
40378.6431392382
40384.0651943203
40389.5741465466
40395.1716926719
40400.8595934051
40406.6396765946
40412.5138406175
40418.4840579952
40424.5523792492
40430.7209370162
40436.9919504479
40443.3677299156
40449.850682049
40456.44331514
40463.1482449353
40469.9682008645
40476.9060327415
40483.9647179716
40491.1473693324
40498.4572433677
40505.8977494599
40513.4724596569
40521.1851193185
40529.039658673
40537.0402053847
40545.1910982376
40553.4969020576
40561.9624240149
40570.592731466
40579.3931715089
40588.36939247
40597.5273675463
40606.8734208724
40616.414256328
40626.1569894415
40636.1091827936
40646.2788853973
40656.6746766388
40667.3057153422
40678.1817948607
40689.3134047411
40700.7118008779
40712.3890834294
40724.3582868249
40736.6334813792
40749.2298886572
40762.1640100728
40775.4537877276
40789.1187912233
40803.180311284
40817.6618935562
40832.5891356093
40847.9906124356
40863.8973538502
40880.3472598791
40897.3767842226
40915.0360776487
40933.3761795936
40952.4857283087
40972.5981680539
40993.81026889
41015.9713228006
41039.0906440096
41063.3693164953
41089.0615073994
41116.3750960127
41145.4564377154
41176.4348043052
41209.0674766276
41243.3918365523
41280.2724602132
41319.839611794
41361.7015891636
41406.6844124731
41455.5019248763
41508.2681259189
41566.337352943
41631.2958969623
41704.8064387095
41790.9674466523
41894.8829756042
42022.6005466462
42184.7599558887
42395.6250356409
42673.3572139078
43044.7329114923
43547.3820027539
44234.7708316053
45184.1130908102
46490.2264461348
48314.7826966649
50903.5702488384
54638.9481914606
59904.0290627069
66619.9160794889
76163.6977550806
90657.3753225124
110296.967809674
137661.43627455
175269.468566227
224518.641549949
284127.183092929
349939.269312015
416815.564421002
480619.458022735
538904.403934977
590672.602717797
635936.937269123
675296.421092421
709418.593841294
739061.298541537
765003.798942525
787882.945032484
808202.786062174
826357.866117446
842685.405406382
857474.064708872
870961.471890271
883351.594756407
894806.880130206
905461.742681724
915427.07989956
924794.617315605
933640.345809432
942027.187298868
950007.109999088
957622.827998627
964909.175386944
971894.231105161
978600.223936716
985044.381472265
991239.314782299
997195.330692728
1002916.24734526
1008400.71760428
1013649.04696206
1018659.37962338
1023426.79949162
1027944.26673376
1032202.70438925
1036191.34231275
1039897.88067965
1043308.65343483
1046408.76803631
1049182.23206093
1051612.07252967
1053680.41013872
1055368.61328986
1056656.75302671
1057524.97638195
1057942.59157837
1057910.42363905
1057394.91155611
1056375.59497922
1054829.73191332
1052735.1070738
1050068.85505528
1046807.78515764
1042928.28714961
1038406.37879705
1033217.83613298
1027338.07803637
1020742.08822224
1013404.39663671
1005300.27212436
996405.621509042
986690.210912039
976125.478761096
964686.122104327
952341.526514746
939059.829022163
924807.243936962
909548.091732186
893244.524920496
875856.177990194
857340.255896165
837650.220537161
816744.596173002
794570.866248866
771065.207765815
746166.842092859
719800.737329246
691876.801231522
662312.925941278
630999.2057311
597800.013809303
562579.964394584
525149.27665135
485273.859270477
442665.650182314
396927.43302225
347492.312886004
293539.97099643
233995.157206976
)
;

boundaryField
{
    electrode
    {
        type            electronTemperature;
        seec            0.05;
        Tse             1000;
        Edepend         1;
        TFN             1000;
        field_emission  0;
        field_enhancement_factor 55;
        work_function   5;
        value           uniform 40128.9480536981;
    }
    ground
    {
        type            electronTemperature;
        seec            0.05;
        Tse             1000;
        Edepend         1;
        TFN             1000;
        field_emission  0;
        field_enhancement_factor 55;
        work_function   5;
        value           uniform 200228.923434556;
    }
    otherfaces
    {
        type            empty;
    }
}


// ************************************************************************* //
