/*--------------------------------*- C++ -*----------------------------------*\
| =========                 |                                                 |
| \\      /  F ield         | foam-extend: Open Source CFD                    |
|  \\    /   O peration     | Version:     4.0                                |
|   \\  /    A nd           | Web:         http://www.foam-extend.org         |
|    \\/     M anipulation  |                                                 |
\*---------------------------------------------------------------------------*/
FoamFile
{
    version     2.0;
    format      ascii;
    class       volScalarField;
    location    "7.8e-06";
    object      TeMean;
}
// * * * * * * * * * * * * * * * * * * * * * * * * * * * * * * * * * * * * * //

dimensions      [0 0 0 1 0 0 0];

internalField   nonuniform List<scalar> 
300
(
36140.6554811315
36140.9481482179
36141.0845205603
36141.1005598843
36141.1426105304
36141.1891962733
36141.243282314
36141.3074983492
36141.3817409391
36141.466576045
36141.5624693765
36141.6698548544
36141.7891652232
36141.9208069947
36142.0651755118
36142.2226537999
36142.3936113795
36142.5784082115
36142.7773943284
36142.9909096834
36143.2192864433
36143.4628472751
36143.7219073169
36143.9967735968
36144.287744713
36144.5951198728
36144.919192921
36145.2602501901
36145.6185775634
36145.9944509689
36146.3881353407
36146.7999047541
36147.2300404501
36147.6788147706
36148.1464957903
36148.6333440521
36149.1396191849
36149.6655871985
36150.211513377
36150.7776586184
36151.3642810967
36151.9716456057
36152.6000169202
36153.2496575438
36153.9208306495
36154.6137999123
36155.3288291953
36156.0661818486
36156.8261181365
36157.6088952285
36158.4147674394
36159.2439983603
36160.0968677415
36160.9736565362
36161.8746509384
36162.800147368
36163.7504395844
36164.7258204237
36165.7265925274
36166.753063284
36167.8055436588
36168.8843557553
36169.9898130739
36171.122229033
36172.2819460625
36173.4693235693
36174.6847228697
36175.9285089803
36177.2010538398
36178.5027405042
36179.8339567201
36181.1950879504
36182.5865388748
36184.0087305263
36185.4620829686
36186.9470175841
36188.4639801947
36190.0134475112
36191.5958959484
36193.2118068434
36194.861694919
36196.5460919277
36198.2655290428
36200.0205433489
36201.8116862412
36203.6395424059
36205.5047265094
36207.4078609238
36209.3495781439
36211.3305372951
36213.3514065342
36215.4128730578
36217.5156832986
36219.6605933401
36221.8483729474
36224.0798346298
36226.3558103057
36228.6771590461
36231.0447621148
36233.4595332857
36235.9224349507
36238.4344413982
36240.996559807
36243.6098623161
36246.2754552573
36248.99447951
36251.7681143486
36254.5975853452
36257.4841755568
36260.4292153427
36263.434087291
36266.5002267759
36269.6291196168
36272.8223292065
36276.0814741272
36279.4082286507
36282.8043341459
36286.2716245765
36289.812030906
36293.4275350861
36297.120201977
36300.8922004737
36304.7457939798
36308.6833655173
36312.7074296
36316.8206057356
36321.025619608
36325.3253478075
36329.7228238066
36334.2212157489
36338.8238527389
36343.5342558634
36348.3561460461
36353.2934124295
36358.3501540166
36363.5307612724
36368.8398972373
36374.2824918693
36379.8637776327
36385.5893252352
36391.4650732479
36397.4973527705
36403.692921962
36410.0590002932
36416.6033492604
36423.3343526627
36430.2610580685
36437.3932528211
36444.7414885927
36452.317208218
36460.1329333588
36468.2023175443
36476.5403000234
36485.1633704567
36494.089646355
36503.3392215273
36512.9343898771
36522.9003434053
36533.2656891932
36544.0646544621
36555.3461234332
36567.1725814349
36579.6038194802
36592.7001094775
36606.5411865098
36621.2114187326
36636.7756628242
36653.3175407256
36670.972276288
36689.8850500478
36710.1612706169
36731.8954504369
36755.2090199666
36780.1378998501
36806.7150671095
36835.2087302493
36865.8383835009
36898.7324504939
36934.5273628476
36974.2974986392
37019.4512970631
37072.6306856874
37138.0690878648
37221.8205573547
37333.3757659886
37486.8799362231
37702.5634455825
38010.5320462039
38455.6646555865
39105.0662614613
40061.5704604754
41486.907926945
43641.0907622911
47019.4443122629
52125.8868401789
59318.4453176593
69764.873888108
84062.1534605729
103318.482491533
127884.613393639
157856.081633204
192946.868912397
232308.839470868
275187.240691256
321199.535312109
369852.094755915
420184.820149385
470556.106357225
519075.151874939
564206.25601038
605066.430815504
641419.094782095
673455.805798457
701607.681626719
726378.097644785
748247.390297044
767686.409842409
785107.425587275
800843.279971074
815165.269025442
828288.682202007
840391.373213983
851631.723902436
862140.255792076
872024.27751137
881371.158612735
890253.040840326
898729.190590915
906848.131294905
914649.435060184
922165.100869684
929420.678255835
936436.179460357
943226.767678662
949803.413223309
956173.462320707
962341.027886312
968307.375174963
974071.296363492
979629.461122364
984975.877432973
990102.549327229
995000.481939629
999659.398680212
1004067.81430686
1008213.10057154
1012081.40972781
1015657.97929059
1018927.34803042
1021873.1489919
1024478.76127175
1026727.19040337
1028600.73363634
1030081.28385904
1031150.07448805
1031788.10329424
1031970.60786506
1031689.00475923
1030922.02150921
1029647.59125004
1027845.50457968
1025495.46999828
1022577.10766852
1019069.81814687
1014952.73858179
1010205.0171797
1004805.18901335
998731.270834724
991961.485317133
984473.52416145
976244.657533839
967250.831509861
957467.288488209
946869.235178188
935430.249597032
923122.274470891
909915.786354194
895779.604910873
880680.726730418
864584.052578925
847452.233510918
829245.492550234
809924.542389543
789445.957411699
767755.797693931
744798.653667483
720513.324235815
694824.644428846
667655.851977896
638921.304527361
608512.779305351
576306.731940001
542167.038539176
505910.388016946
467314.53513825
426100.200015212
381875.128234246
334097.139943541
281975.450891036
224467.807647072
)
;

boundaryField
{
    electrode
    {
        type            calculated;
        value           uniform 36140.655481133;
    }
    ground
    {
        type            calculated;
        value           uniform 191855.908208303;
    }
    otherfaces
    {
        type            empty;
    }
}


// ************************************************************************* //
