/*--------------------------------*- C++ -*----------------------------------*\
| =========                 |                                                 |
| \\      /  F ield         | foam-extend: Open Source CFD                    |
|  \\    /   O peration     | Version:     4.0                                |
|   \\  /    A nd           | Web:         http://www.foam-extend.org         |
|    \\/     M anipulation  |                                                 |
\*---------------------------------------------------------------------------*/
FoamFile
{
    version     2.0;
    format      ascii;
    class       volScalarField;
    location    "3.6e-06";
    object      Arp1;
}
// * * * * * * * * * * * * * * * * * * * * * * * * * * * * * * * * * * * * * //

dimensions      [0 0 0 1 0 0 0];

internalField   nonuniform List<scalar> 
300
(
5.86909165081677e+16
5.87300804629285e+16
5.87064052038158e+16
5.87006421631264e+16
5.86913272074243e+16
5.86779751025852e+16
5.86622193845664e+16
5.86435085772917e+16
5.86218882706403e+16
5.85973890656201e+16
5.85700009306872e+16
5.8539729040246e+16
5.85065775648417e+16
5.84705502585846e+16
5.84316515486079e+16
5.83898861285955e+16
5.83452589737925e+16
5.82977753475417e+16
5.82474407759451e+16
5.81942610306638e+16
5.81382421106787e+16
5.80793902229237e+16
5.80177117615957e+16
5.79532132866176e+16
5.78859015017708e+16
5.78157832313303e+16
5.77428653957948e+16
5.76671549873165e+16
5.75886590439492e+16
5.75073846227925e+16
5.74233387727376e+16
5.73365285066097e+16
5.72469607717505e+16
5.71546424206988e+16
5.70595801806846e+16
5.69617806227962e+16
5.68612501296845e+16
5.67579948643377e+16
5.66520207359756e+16
5.65433333673576e+16
5.64319380608582e+16
5.63178397636062e+16
5.62010430329737e+16
5.60815520015029e+16
5.59593703409746e+16
5.5834501226847e+16
5.57069473023823e+16
5.55767106422047e+16
5.54437927157673e+16
5.53081943520841e+16
5.51699157020258e+16
5.5028956203017e+16
5.4885314542753e+16
5.4738988729847e+16
5.45899760314e+16
5.44382726843753e+16
5.42838740290383e+16
5.41267744769824e+16
5.39669674803555e+16
5.3804445494529e+16
5.36391999471692e+16
5.34712212103346e+16
5.33004985588425e+16
5.31270201531386e+16
5.29507729986983e+16
5.27717429245595e+16
5.2589914555031e+16
5.24052712840457e+16
5.22177952510147e+16
5.20274673204504e+16
5.18342670549613e+16
5.16381727061239e+16
5.14391611861229e+16
5.12372080609084e+16
5.10322875330323e+16
5.08243724304798e+16
5.06134341981698e+16
5.03994428904608e+16
5.01823671668319e+16
4.99621742943269e+16
4.97388301389212e+16
4.95122991793815e+16
4.9282544507333e+16
4.90495278379851e+16
4.88132095228279e+16
4.8573548565826e+16
4.83305026416759e+16
4.80840281144787e+16
4.78340800708709e+16
4.75806123398232e+16
4.73235775321101e+16
4.7062927073661e+16
4.6798611245797e+16
4.65305792287454e+16
4.6258779149516e+16
4.59831581347474e+16
4.57036623651797e+16
4.54202371363873e+16
4.51328269215136e+16
4.48413754414711e+16
4.45458257364753e+16
4.42461202425931e+16
4.39422008758463e+16
4.36340091118559e+16
4.33214860848999e+16
4.30045726736316e+16
4.26832096063954e+16
4.23573375622086e+16
4.20268972800192e+16
4.16918296708342e+16
4.13520759345935e+16
4.10075776827781e+16
4.06582770648569e+16
4.03041168981524e+16
3.99450408034045e+16
3.95809933448276e+16
3.92119201750865e+16
3.8837768182834e+16
3.84584856466028e+16
3.80740223925276e+16
3.76843299588306e+16
3.72893617580393e+16
3.68890732552922e+16
3.6483422139202e+16
3.60723685074525e+16
3.5655875052251e+16
3.52339072521902e+16
3.48064335722604e+16
3.4373425667465e+16
3.39348585940725e+16
3.3490711030707e+16
3.30409655040074e+16
3.25856086285494e+16
3.21246313535377e+16
3.16580292276633e+16
3.11858026726762e+16
3.07079572801638e+16
3.02245041282078e+16
2.97354601200312e+16
2.92408483559202e+16
2.87406985420369e+16
2.82350474381289e+16
2.77239393617985e+16
2.72074267574987e+16
2.66855708371877e+16
2.6158442323477e+16
2.56261223021033e+16
2.50887032183571e+16
2.45462900337885e+16
2.39990016687855e+16
2.34469725531288e+16
2.28903541981175e+16
2.23293199140527e+16
2.17640636870146e+16
2.11947892637036e+16
2.06218267499734e+16
2.004530351508e+16
1.94655605705739e+16
1.88839671853129e+16
1.82965360791219e+16
1.77131842947316e+16
1.71378701163165e+16
1.65585873129049e+16
1.59762436127382e+16
1.53947278699934e+16
1.48145491923749e+16
1.42456650077996e+16
1.36794338448455e+16
1.31293252402514e+16
1.25861968270552e+16
1.20351674621877e+16
1.14930440999659e+16
1.09932642326587e+16
1.05010744605143e+16
9.98396717401007e+15
9.53065613198621e+15
9.10780378686246e+15
8.63953020577237e+15
8.25006418883948e+15
7.89491304745664e+15
7.50069255075197e+15
7.17140311306408e+15
6.89628536207065e+15
6.57822480324294e+15
6.30930472588474e+15
6.08562759011278e+15
5.8660503321364e+15
5.64617681140208e+15
5.4657960952441e+15
5.31788741516565e+15
5.17376420719988e+15
5.02636591960138e+15
4.9049685043001e+15
4.81320843143122e+15
4.74519877269817e+15
4.7115669195703e+15
4.67063448905755e+15
4.67445554330465e+15
4.69426276236698e+15
4.71837139880416e+15
4.75248399573008e+15
4.75118809701868e+15
4.73555095570578e+15
4.69722603823529e+15
4.64905728279808e+15
4.598929613393e+15
4.55266056752507e+15
4.50797429492298e+15
4.46871653850367e+15
4.43187018393133e+15
4.40062128438045e+15
4.36440302418617e+15
4.32005111417248e+15
4.27861261837259e+15
4.24183621600819e+15
4.20736282087618e+15
4.17716309757698e+15
4.14869115745274e+15
4.12414035275254e+15
4.10079178016088e+15
4.08096436318385e+15
4.06192792342884e+15
4.04610004645331e+15
4.03071289537226e+15
4.01141850127094e+15
3.9857221943904e+15
3.9630516394424e+15
3.94028938815345e+15
3.9204139114645e+15
3.90015170640326e+15
3.88266763724138e+15
3.86456807644271e+15
3.84918850533077e+15
3.83299281770948e+15
3.81944894470812e+15
3.80487908829594e+15
3.79291637760912e+15
3.77970679548141e+15
3.76910236112255e+15
3.75708547045841e+15
3.74773638110289e+15
3.73684835877713e+15
3.72455455015463e+15
3.70586291084095e+15
3.68998807693434e+15
3.67242700445183e+15
3.65774919301926e+15
3.64123288352094e+15
3.62765254514205e+15
3.61207633780606e+15
3.5994846904427e+15
3.58475883498056e+15
3.57308562708166e+15
3.55914588992974e+15
3.54832882504283e+15
3.53513056805301e+15
3.52513752287091e+15
3.51264327969529e+15
3.5034420243108e+15
3.49163478679722e+15
3.48320578473426e+15
3.47206607535473e+15
3.46439349817225e+15
3.45391475199707e+15
3.44696325859257e+15
3.43717454952762e+15
3.43085700488464e+15
3.4215746888061e+15
3.41012367671176e+15
3.3957567112799e+15
3.38494322992932e+15
3.3711527729207e+15
3.36096801964886e+15
3.3477082386955e+15
3.33810875490133e+15
3.32533079080623e+15
3.31629380615391e+15
3.30396626184023e+15
3.29547975064171e+15
3.28357241624218e+15
3.27561613451461e+15
3.2641138540693e+15
3.25665619145422e+15
3.2455346963613e+15
3.23853657718122e+15
3.22777977063713e+15
3.22121842451379e+15
3.2108116769346e+15
3.20466102870594e+15
3.19457692776208e+15
3.18879443406097e+15
3.17899327455776e+15
3.17356901277288e+15
3.16403389362807e+15
3.1589357200225e+15
3.14962434783452e+15
3.14484368919932e+15
3.13571743761466e+15
3.13119703210178e+15
3.11994991651052e+15
)
;

boundaryField
{
    electrode
    {
        type            driftDiffusionPositiveIonDensity;
        seec            0;
        fieldName       Arp1;
        value           uniform 5.85253562628336e+16;
    }
    ground
    {
        type            driftDiffusionPositiveIonDensity;
        seec            0;
        fieldName       Arp1;
        value           uniform 3.11994991651052e+15;
    }
    otherfaces
    {
        type            empty;
    }
}


// ************************************************************************* //
