/*--------------------------------*- C++ -*----------------------------------*\
| =========                 |                                                 |
| \\      /  F ield         | foam-extend: Open Source CFD                    |
|  \\    /   O peration     | Version:     4.0                                |
|   \\  /    A nd           | Web:         http://www.foam-extend.org         |
|    \\/     M anipulation  |                                                 |
\*---------------------------------------------------------------------------*/
FoamFile
{
    version     2.0;
    format      ascii;
    class       volScalarField;
    location    "3.6e-06";
    object      electron;
}
// * * * * * * * * * * * * * * * * * * * * * * * * * * * * * * * * * * * * * //

dimensions      [0 0 0 1 0 0 0];

internalField   nonuniform List<scalar> 
300
(
5.87008958155803e+16
5.86992460089137e+16
5.86950228579776e+16
5.8687866228148e+16
5.86778315643682e+16
5.86649018601427e+16
5.86490742163504e+16
5.86303520557111e+16
5.86087371118443e+16
5.85842319377615e+16
5.85568395266112e+16
5.85265631790338e+16
5.84934065535372e+16
5.84573736427236e+16
5.84184687585019e+16
5.83766965195389e+16
5.8332061836006e+16
5.82845698936721e+16
5.82342261371058e+16
5.81810362518971e+16
5.8125006145951e+16
5.80661419298538e+16
5.80044498963152e+16
5.79399364986992e+16
5.78726083286588e+16
5.78024720928747e+16
5.77295345889244e+16
5.76538026802881e+16
5.75752832705145e+16
5.74939832765603e+16
5.74099096013185e+16
5.732306910537e+16
5.7233468577979e+16
5.7141114707348e+16
5.70460140501668e+16
5.6948173000486e+16
5.68475977579415e+16
5.67442942953718e+16
5.6638268325856e+16
5.6529525269214e+16
5.64180702180143e+16
5.63039079031372e+16
5.61870426589367e+16
5.60674783880603e+16
5.59452185260058e+16
5.5820266005472e+16
5.56926232206116e+16
5.55622919912965e+16
5.54292735275296e+16
5.52935683941843e+16
5.51551764762518e+16
5.50140969446886e+16
5.48703282224985e+16
5.47238679488367e+16
5.4574712936428e+16
5.44228591293539e+16
5.42683015642111e+16
5.41110343347848e+16
5.39510505586619e+16
5.3788342345006e+16
5.36229007630586e+16
5.3454715811188e+16
5.32837763864908e+16
5.31100702550717e+16
5.29335840231269e+16
5.27543031090037e+16
5.25722117163711e+16
5.2387292808609e+16
5.21995280845576e+16
5.20088979557183e+16
5.18153815250437e+16
5.16189565674297e+16
5.14195995119685e+16
5.12172854260906e+16
5.10119880016781e+16
5.08036795432229e+16
5.05923309581661e+16
5.03779117495278e+16
5.01603900109025e+16
4.9939732423894e+16
4.9715904258104e+16
4.94888693737959e+16
4.9258590227293e+16
4.90250278792199e+16
4.87881420056929e+16
4.85478909125261e+16
4.8304231552544e+16
4.80571195460934e+16
4.78065092048486e+16
4.75523535589695e+16
4.72946043877015e+16
4.70332122534806e+16
4.67681265395999e+16
4.64992954915247e+16
4.62266662619218e+16
4.59501849594424e+16
4.56697967012903e+16
4.53854456696211e+16
4.50970751718267e+16
4.4804627704729e+16
4.45080450226853e+16
4.42072682096299e+16
4.39022377550348e+16
4.35928936338023e+16
4.32791753900769e+16
4.29610222249156e+16
4.26383730878142e+16
4.23111667720336e+16
4.19793420136276e+16
4.1642837594116e+16
4.13015924467239e+16
4.09555457660716e+16
4.06046371211808e+16
4.02488065716625e+16
3.98879947869352e+16
3.9522143168299e+16
3.91511939736655e+16
3.87750904447166e+16
3.83937769362676e+16
3.80071990475783e+16
3.76153037553036e+16
3.72180395477868e+16
3.68153565603684e+16
3.64072067113174e+16
3.59935438380058e+16
3.55743238329059e+16
3.51495047789355e+16
3.4719047083672e+16
3.42829136118975e+16
3.38410698159142e+16
3.33934838630313e+16
3.29401267595862e+16
3.2480972470811e+16
3.20159980358413e+16
3.15451836771055e+16
3.10685129032895e+16
3.05859726050802e+16
3.00975531428101e+16
2.9603248425116e+16
2.91030559777499e+16
2.85969770016324e+16
2.80850164192669e+16
2.75671829087218e+16
2.70434889244294e+16
2.65139507041976e+16
2.59785882620613e+16
2.54374253668831e+16
2.48904895070595e+16
2.43378118423536e+16
2.37794271443849e+16
2.32153737287109e+16
2.26456933848921e+16
2.2070431299844e+16
2.14896359824874e+16
2.09033592762609e+16
2.03116559645841e+16
1.97145837368685e+16
1.91122035706508e+16
1.85045723200167e+16
1.78917473763648e+16
1.7273743112479e+16
1.66503938164194e+16
1.60213602956782e+16
1.53863225559705e+16
1.47450724569748e+16
1.40974763376746e+16
1.3443398635474e+16
1.27826775965899e+16
1.21151773483723e+16
1.14408783719448e+16
1.07601372139763e+16
1.00738925144542e+16
9.38348045712431e+15
8.69056256211018e+15
7.99760234050251e+15
7.30796405824756e+15
6.62551485452871e+15
5.95489001908367e+15
5.30158882403399e+15
4.67137479264268e+15
4.07020357555872e+15
3.50411180221041e+15
2.97838384186455e+15
2.49741577637166e+15
2.06467734301597e+15
1.68216433938427e+15
1.3502254957574e+15
1.06768312076873e+15
831942069526186
639221254077005
484710265688795
363138202252606
269321451768109
198152287339545
144804973239824
104129631874528
73141782234992
50555392568549.5
34152960724896.6
22218154506458
13976352437698.3
8687084329982.65
5522096561624.86
3710464028706.81
2685188522982.9
2097932964270.5
1753654918469.01
1547245354420.23
1421847719858.61
1345332559224.11
1298955775320.98
1271525660777.5
1255941403492.6
1247508287644.43
1243167790625.52
1240905867186.07
1239342491966.08
1237537573138.73
1234853526701.46
1230870593972.4
1225302258854.32
1217960154165.6
1208773778048.83
1197760785548.45
1184987498851.22
1170556190974.1
1154593166417.83
1137239531405.07
1118644467114.2
1098960561559.61
1078340187888.86
1056932719220.49
1034882389194.3
1012326683315.28
989395168968.226
966208688402.15
942878849073.509
919507761676.448
896187977868.432
873002589452.942
850025467983.833
827321614839.591
804947814289.16
782953518146.652
761381226554.349
740266127726.08
719636657045.282
699510210692.864
679897326060.739
660809898076.416
642258093262.198
624248195554.944
606782907202.573
589861766451.523
573481450774.589
557638115197.798
542323049608.41
527522252763.537
513225491588.65
499422909013.258
486101545769.704
473247863942.855
460847733163.311
448886749144.129
437350120838.585
426222933399.871
415485330880.394
405115671794.669
395098016144.444
385419540491.943
376068350590.736
367033120280.731
358303005086.6
349867666108.517
341717308271.052
333842723750.346
326235335354.907
318887241609.826
311791257910.972
304940937175.436
298330425822.054
291953699895.333
285800079525.731
279839109058.159
274050752400.45
268442234875.812
263024126261.4
257808067800.838
252805538870.597
247985375855.392
243325939805.111
238864708414.975
234638897293.316
230643760035.55
226924824185.155
223563075027.821
220693827404.6
218610358821.187
217751409818.452
218934763871.489
)
;

boundaryField
{
    electrode
    {
        type            driftDiffusionElectronDensity;
        seec            0.05;
        Edepend         1;
        field_emission  0;
        field_enhancement_factor 55;
        work_function   5;
        value           uniform 5.87008958155803e+16;
    }
    ground
    {
        type            driftDiffusionElectronDensity;
        seec            0.05;
        Edepend         1;
        field_emission  0;
        field_enhancement_factor 55;
        work_function   5;
        value           uniform 221125607635.557;
    }
    otherfaces
    {
        type            empty;
    }
}


// ************************************************************************* //
