/*--------------------------------*- C++ -*----------------------------------*\
| =========                 |                                                 |
| \\      /  F ield         | foam-extend: Open Source CFD                    |
|  \\    /   O peration     | Version:     4.0                                |
|   \\  /    A nd           | Web:         http://www.foam-extend.org         |
|    \\/     M anipulation  |                                                 |
\*---------------------------------------------------------------------------*/
FoamFile
{
    version     2.0;
    format      ascii;
    class       volVectorField;
    location    "3.6e-06";
    object      J_Arp1;
}
// * * * * * * * * * * * * * * * * * * * * * * * * * * * * * * * * * * * * * //

dimensions      [1 -1 -1 0 0 0 0];

internalField   nonuniform List<vector> 
300
(
(1.86586423736843e+16 -0 -0)
(6.60851305837472e+16 -0 -0)
(1.17553741751554e+17 -0 -0)
(1.63593685734547e+17 -0 -0)
(2.10031715759331e+17 -0 -0)
(2.56753392147459e+17 -0 -0)
(3.03296937430344e+17 -0 -0)
(3.49814354347167e+17 -0 -0)
(3.96282681974364e+17 -0 -0)
(4.42688713012397e+17 -0 -0)
(4.89030489870429e+17 -0 -0)
(5.35301865238909e+17 -0 -0)
(5.81497394331318e+17 -0 -0)
(6.27612033847425e+17 -0 -0)
(6.73640859156037e+17 -0 -0)
(7.19579198562441e+17 -0 -0)
(7.65422635912169e+17 -0 -0)
(8.11167019538034e+17 -0 -0)
(8.56808480200841e+17 -0 -0)
(9.02343445233488e+17 -0 -0)
(9.47768653437997e+17 -0 -0)
(9.9308116927781e+17 -0 -0)
(1.0382783977828e+18 -0 -0)
(1.08335809815034e+18 -0 -0)
(1.12831839810925e+18 -0 -0)
(1.17315780753456e+18 -0 -0)
(1.21787523190012e+18 -0 -0)
(1.26246998556403e+18 -0 -0)
(1.30694180448502e+18 -0 -0)
(1.35129085899516e+18 -0 -0)
(1.39551776600885e+18 -0 -0)
(1.43962360061003e+18 -0 -0)
(1.48360990749107e+18 -0 -0)
(1.52747871206462e+18 -0 -0)
(1.57123253069533e+18 -0 -0)
(1.6148743808279e+18 -0 -0)
(1.65840779022585e+18 -0 -0)
(1.70183680572094e+18 -0 -0)
(1.74516600162336e+18 -0 -0)
(1.78840048687553e+18 -0 -0)
(1.83154591204001e+18 -0 -0)
(1.87460847495243e+18 -0 -0)
(1.91759492609298e+18 -0 -0)
(1.96051257239653e+18 -0 -0)
(2.00336928001385e+18 -0 -0)
(2.04617347620893e+18 -0 -0)
(2.08893414867374e+18 -0 -0)
(2.13166084380216e+18 -0 -0)
(2.17436366161873e+18 -0 -0)
(2.21705324816918e+18 -0 -0)
(2.25974078372559e+18 -0 -0)
(2.30243796952579e+18 -0 -0)
(2.34515701778632e+18 -0 -0)
(2.38791069821271e+18 -0 -0)
(2.43071248441074e+18 -0 -0)
(2.47357654163143e+18 -0 -0)
(2.51651759376442e+18 -0 -0)
(2.5595508745145e+18 -0 -0)
(2.60269210535118e+18 -0 -0)
(2.64595748273088e+18 -0 -0)
(2.68936366793266e+18 -0 -0)
(2.73292777905848e+18 -0 -0)
(2.7766673787027e+18 -0 -0)
(2.82060046074336e+18 -0 -0)
(2.86474543390589e+18 -0 -0)
(2.90912110176169e+18 -0 -0)
(2.95374664214908e+18 -0 -0)
(2.99864158358092e+18 -0 -0)
(3.04382577961487e+18 -0 -0)
(3.08931938263117e+18 -0 -0)
(3.13514281276728e+18 -0 -0)
(3.18131672828142e+18 -0 -0)
(3.22786199261056e+18 -0 -0)
(3.2747996396476e+18 -0 -0)
(3.32215083864795e+18 -0 -0)
(3.36993685659125e+18 -0 -0)
(3.4181790181976e+18 -0 -0)
(3.46689866437692e+18 -0 -0)
(3.51611710947778e+18 -0 -0)
(3.56585559785495e+18 -0 -0)
(3.61613525621146e+18 -0 -0)
(3.66697704566465e+18 -0 -0)
(3.7184017128021e+18 -0 -0)
(3.77042973709456e+18 -0 -0)
(3.82308127813068e+18 -0 -0)
(3.87637612081795e+18 -0 -0)
(3.93033361940661e+18 -0 -0)
(3.98497263844844e+18 -0 -0)
(4.04031149404743e+18 -0 -0)
(4.09636789233091e+18 -0 -0)
(4.15315886686333e+18 -0 -0)
(4.21070071524597e+18 -0 -0)
(4.26900893391674e+18 -0 -0)
(4.32809815122849e+18 -0 -0)
(4.38798205951422e+18 -0 -0)
(4.44867334661784e+18 -0 -0)
(4.51018362631217e+18 -0 -0)
(4.57252336769945e+18 -0 -0)
(4.63570182297552e+18 -0 -0)
(4.6997269554957e+18 -0 -0)
(4.76460536698046e+18 -0 -0)
(4.83034222371433e+18 -0 -0)
(4.8969411839447e+18 -0 -0)
(4.96440432217583e+18 -0 -0)
(5.03273205664544e+18 -0 -0)
(5.10192307475662e+18 -0 -0)
(5.17197425883347e+18 -0 -0)
(5.24288061311696e+18 -0 -0)
(5.31463519128545e+18 -0 -0)
(5.38722902411615e+18 -0 -0)
(5.46065104790921e+18 -0 -0)
(5.5348880347079e+18 -0 -0)
(5.6099245237008e+18 -0 -0)
(5.6857427539324e+18 -0 -0)
(5.76232259852624e+18 -0 -0)
(5.83964150126111e+18 -0 -0)
(5.91767441528346e+18 -0 -0)
(5.99639374437181e+18 -0 -0)
(6.07576928624698e+18 -0 -0)
(6.15576817916726e+18 -0 -0)
(6.23635485273218e+18 -0 -0)
(6.31749097965797e+18 -0 -0)
(6.39913543387409e+18 -0 -0)
(6.48124425102906e+18 -0 -0)
(6.56377059358364e+18 -0 -0)
(6.64666472068431e+18 -0 -0)
(6.72987396231729e+18 -0 -0)
(6.81334269908707e+18 -0 -0)
(6.89701234726931e+18 -0 -0)
(6.9808213490255e+18 -0 -0)
(7.06470516940933e+18 -0 -0)
(7.1485962985924e+18 -0 -0)
(7.23242426193819e+18 -0 -0)
(7.3161156352089e+18 -0 -0)
(7.3995940691477e+18 -0 -0)
(7.48278031953658e+18 -0 -0)
(7.56559228572471e+18 -0 -0)
(7.6479450586165e+18 -0 -0)
(7.72975097547515e+18 -0 -0)
(7.81091968433012e+18 -0 -0)
(7.89135821932546e+18 -0 -0)
(7.97097108459542e+18 -0 -0)
(8.04966034944149e+18 -0 -0)
(8.12732575719391e+18 -0 -0)
(8.20386484454173e+18 -0 -0)
(8.27917307800949e+18 -0 -0)
(8.35314400575487e+18 -0 -0)
(8.42566942872106e+18 -0 -0)
(8.49663958657681e+18 -0 -0)
(8.56594341395379e+18 -0 -0)
(8.6334687593855e+18 -0 -0)
(8.69910239606156e+18 -0 -0)
(8.76273184646227e+18 -0 -0)
(8.82424402685688e+18 -0 -0)
(8.88351508795803e+18 -0 -0)
(8.94048373159746e+18 -0 -0)
(8.99496330840869e+18 -0 -0)
(9.04682208098128e+18 -0 -0)
(9.09672213002099e+18 -0 -0)
(9.14180726557396e+18 -0 -0)
(9.18776034636261e+18 -0 -0)
(9.22750385354486e+18 -0 -0)
(9.26470320166074e+18 -0 -0)
(9.29947465940051e+18 -0 -0)
(9.33172247298446e+18 -0 -0)
(9.36003997958874e+18 -0 -0)
(9.38746910565067e+18 -0 -0)
(9.40852172959577e+18 -0 -0)
(9.43141727338911e+18 -0 -0)
(9.44664492598855e+18 -0 -0)
(9.46128636167003e+18 -0 -0)
(9.47152099735122e+18 -0 -0)
(9.48705390500113e+18 -0 -0)
(9.4882669298119e+18 -0 -0)
(9.49097792971145e+18 -0 -0)
(9.50339512438365e+18 -0 -0)
(9.49855450935135e+18 -0 -0)
(9.49203491996141e+18 -0 -0)
(9.50448837637179e+18 -0 -0)
(9.49237620851293e+18 -0 -0)
(9.48729071176187e+18 -0 -0)
(9.48849273507009e+18 -0 -0)
(9.49076042571584e+18 -0 -0)
(9.47929177334489e+18 -0 -0)
(9.47767134967315e+18 -0 -0)
(9.47660478994169e+18 -0 -0)
(9.47428696514376e+18 -0 -0)
(9.47308050978564e+18 -0 -0)
(9.47975114307287e+18 -0 -0)
(9.49088085614231e+18 -0 -0)
(9.5017094918812e+18 -0 -0)
(9.52212975706518e+18 -0 -0)
(9.55066675349097e+18 -0 -0)
(9.60147086868975e+18 -0 -0)
(9.66894169273267e+18 -0 -0)
(9.79353056442082e+18 -0 -0)
(9.94920076310404e+18 -0 -0)
(1.01833678524358e+19 -0 -0)
(1.04406846957585e+19 -0 -0)
(1.06958165649484e+19 -0 -0)
(1.09623268178202e+19 -0 -0)
(1.11336143731633e+19 -0 -0)
(1.12833742627111e+19 -0 -0)
(1.14094721745654e+19 -0 -0)
(1.14951264498688e+19 -0 -0)
(1.15593446049311e+19 -0 -0)
(1.16175717938771e+19 -0 -0)
(1.16651319592451e+19 -0 -0)
(1.17130069611468e+19 -0 -0)
(1.17544011146884e+19 -0 -0)
(1.1798749672378e+19 -0 -0)
(1.18380746377417e+19 -0 -0)
(1.18812430914441e+19 -0 -0)
(1.19219600898334e+19 -0 -0)
(1.19661004866687e+19 -0 -0)
(1.2007846622949e+19 -0 -0)
(1.20535046089547e+19 -0 -0)
(1.2096393014702e+19 -0 -0)
(1.21434330677473e+19 -0 -0)
(1.21871455657586e+19 -0 -0)
(1.22348188532102e+19 -0 -0)
(1.22786796041427e+19 -0 -0)
(1.23263370856909e+19 -0 -0)
(1.2369740742367e+19 -0 -0)
(1.24168550713902e+19 -0 -0)
(1.24596178463885e+19 -0 -0)
(1.2506629303726e+19 -0 -0)
(1.2548444622687e+19 -0 -0)
(1.25947750274576e+19 -0 -0)
(1.26353879692372e+19 -0 -0)
(1.26807149968156e+19 -0 -0)
(1.27199150681764e+19 -0 -0)
(1.27641101414169e+19 -0 -0)
(1.28017845031516e+19 -0 -0)
(1.28446349380726e+19 -0 -0)
(1.28804733914062e+19 -0 -0)
(1.29216883977561e+19 -0 -0)
(1.29553046178346e+19 -0 -0)
(1.29945937472475e+19 -0 -0)
(1.30258403212102e+19 -0 -0)
(1.30632458029556e+19 -0 -0)
(1.30923015954369e+19 -0 -0)
(1.31279598837532e+19 -0 -0)
(1.31554532537761e+19 -0 -0)
(1.31900085198141e+19 -0 -0)
(1.32157260846722e+19 -0 -0)
(1.32491007324573e+19 -0 -0)
(1.32731788385721e+19 -0 -0)
(1.3305403839659e+19 -0 -0)
(1.33278253853915e+19 -0 -0)
(1.33588487462143e+19 -0 -0)
(1.33796052966147e+19 -0 -0)
(1.34094748764208e+19 -0 -0)
(1.34286160237598e+19 -0 -0)
(1.34573758539219e+19 -0 -0)
(1.34749946500315e+19 -0 -0)
(1.35027752400476e+19 -0 -0)
(1.35189677843117e+19 -0 -0)
(1.35458764527755e+19 -0 -0)
(1.35607963220266e+19 -0 -0)
(1.35869696680054e+19 -0 -0)
(1.36007433318659e+19 -0 -0)
(1.36263147857106e+19 -0 -0)
(1.36391032767813e+19 -0 -0)
(1.36641127692533e+19 -0 -0)
(1.36762045846949e+19 -0 -0)
(1.37004702020209e+19 -0 -0)
(1.37120185749062e+19 -0 -0)
(1.37361203054391e+19 -0 -0)
(1.37468044932289e+19 -0 -0)
(1.37702803447955e+19 -0 -0)
(1.37800902384259e+19 -0 -0)
(1.38031225621791e+19 -0 -0)
(1.38120444343804e+19 -0 -0)
(1.3834622164184e+19 -0 -0)
(1.3842612394748e+19 -0 -0)
(1.38647946587575e+19 -0 -0)
(1.38718676757355e+19 -0 -0)
(1.38937473173657e+19 -0 -0)
(1.38999109607718e+19 -0 -0)
(1.3921536138362e+19 -0 -0)
(1.3926851437533e+19 -0 -0)
(1.39482120310336e+19 -0 -0)
(1.39526917950604e+19 -0 -0)
(1.39737344592392e+19 -0 -0)
(1.39774170134399e+19 -0 -0)
(1.39981485769956e+19 -0 -0)
(1.4001071089831e+19 -0 -0)
(1.40214757625073e+19 -0 -0)
(1.40236120904676e+19 -0 -0)
(1.40435929498911e+19 -0 -0)
(1.404485361059e+19 -0 -0)
(1.40644482128529e+19 -0 -0)
(1.40648370887486e+19 -0 -0)
(1.40839787383659e+19 -0 -0)
(1.40833795773241e+19 -0 -0)
(1.4102099283146e+19 -0 -0)
(1.41004050598617e+19 -0 -0)
(1.41185224678672e+19 -0 -0)
(1.41053284952417e+19 -0 -0)
)
;

boundaryField
{
    electrode
    {
        type            calculated;
        value           uniform (138660223391.031 -0 -0);
    }
    ground
    {
        type            calculated;
        value           uniform (1.41237579510618e+19 -0 -0);
    }
    otherfaces
    {
        type            empty;
    }
}


// ************************************************************************* //
