/*--------------------------------*- C++ -*----------------------------------*\
| =========                 |                                                 |
| \\      /  F ield         | foam-extend: Open Source CFD                    |
|  \\    /   O peration     | Version:     4.0                                |
|   \\  /    A nd           | Web:         http://www.foam-extend.org         |
|    \\/     M anipulation  |                                                 |
\*---------------------------------------------------------------------------*/
FoamFile
{
    version     2.0;
    format      ascii;
    class       volVectorField;
    location    "3.6e-06";
    object      J_electron;
}
// * * * * * * * * * * * * * * * * * * * * * * * * * * * * * * * * * * * * * //

dimensions      [1 -1 -1 0 0 0 0];

internalField   nonuniform List<vector> 
300
(
(-1.24337963863065e+19 0 0)
(-1.27134792064044e+19 0 0)
(-1.49788195768318e+19 0 0)
(-1.45661338329009e+19 0 0)
(-1.45452843719088e+19 0 0)
(-1.45381483187589e+19 0 0)
(-1.4480917093457e+19 0 0)
(-1.44363379276151e+19 0 0)
(-1.43909595065068e+19 0 0)
(-1.43447171592036e+19 0 0)
(-1.42988418387995e+19 0 0)
(-1.42529714517698e+19 0 0)
(-1.4207131600754e+19 0 0)
(-1.41613492458762e+19 0 0)
(-1.41156179581496e+19 0 0)
(-1.40699410371021e+19 0 0)
(-1.40243211639004e+19 0 0)
(-1.39787599909547e+19 0 0)
(-1.39332591989682e+19 0 0)
(-1.38878200815857e+19 0 0)
(-1.38424437101057e+19 0 0)
(-1.37971306972418e+19 0 0)
(-1.37518814887614e+19 0 0)
(-1.37066960525899e+19 0 0)
(-1.36615740747771e+19 0 0)
(-1.36165148531041e+19 0 0)
(-1.35715173016608e+19 0 0)
(-1.35265799915488e+19 0 0)
(-1.34817010170844e+19 0 0)
(-1.34368781126135e+19 0 0)
(-1.33921086394804e+19 0 0)
(-1.33473894675435e+19 0 0)
(-1.33027170481988e+19 0 0)
(-1.32580874371681e+19 0 0)
(-1.32134961808023e+19 0 0)
(-1.31689384261352e+19 0 0)
(-1.31244088603379e+19 0 0)
(-1.30799016582697e+19 0 0)
(-1.30354106191055e+19 0 0)
(-1.2990929010964e+19 0 0)
(-1.29464496914368e+19 0 0)
(-1.29019649919127e+19 0 0)
(-1.28574668855782e+19 0 0)
(-1.28129469005914e+19 0 0)
(-1.27683960927686e+19 0 0)
(-1.27238052959108e+19 0 0)
(-1.26791649053893e+19 0 0)
(-1.26344651861944e+19 0 0)
(-1.2589696193423e+19 0 0)
(-1.25448479395658e+19 0 0)
(-1.24999098668897e+19 0 0)
(-1.24548696073726e+19 0 0)
(-1.24097065914548e+19 0 0)
(-1.23643899606873e+19 0 0)
(-1.23189047999238e+19 0 0)
(-1.22732509999886e+19 0 0)
(-1.22274206511504e+19 0 0)
(-1.21814018397079e+19 0 0)
(-1.21351798639155e+19 0 0)
(-1.20887385920984e+19 0 0)
(-1.20420608978238e+19 0 0)
(-1.19951293662023e+19 0 0)
(-1.1947926404662e+19 0 0)
(-1.19004342381631e+19 0 0)
(-1.18526351621633e+19 0 0)
(-1.18045111576054e+19 0 0)
(-1.17560441652595e+19 0 0)
(-1.17072160068883e+19 0 0)
(-1.16580082270958e+19 0 0)
(-1.16084025170243e+19 0 0)
(-1.15583802226728e+19 0 0)
(-1.15079226060883e+19 0 0)
(-1.1457010965492e+19 0 0)
(-1.14056263622682e+19 0 0)
(-1.13537499206561e+19 0 0)
(-1.13013628734622e+19 0 0)
(-1.12484464557676e+19 0 0)
(-1.11949819166201e+19 0 0)
(-1.11409505972941e+19 0 0)
(-1.10863340932091e+19 0 0)
(-1.10311142101253e+19 0 0)
(-1.0975272796899e+19 0 0)
(-1.09187922317174e+19 0 0)
(-1.08616550075641e+19 0 0)
(-1.08038440487876e+19 0 0)
(-1.07453426000443e+19 0 0)
(-1.06861344310821e+19 0 0)
(-1.06262037409647e+19 0 0)
(-1.0565535208099e+19 0 0)
(-1.05041141437872e+19 0 0)
(-1.04419263286015e+19 0 0)
(-1.03789582410375e+19 0 0)
(-1.03151971026726e+19 0 0)
(-1.02506308128431e+19 0 0)
(-1.01852479801723e+19 0 0)
(-1.0119037993132e+19 0 0)
(-1.00519910945367e+19 0 0)
(-9.98409846571663e+18 0 0)
(-9.91535209521558e+18 0 0)
(-9.84574490203233e+18 0 0)
(-9.77527081830292e+18 0 0)
(-9.70392462916007e+18 0 0)
(-9.63170233160617e+18 0 0)
(-9.55860077074501e+18 0 0)
(-9.48461784343826e+18 0 0)
(-9.409752665146e+18 0 0)
(-9.33400521433783e+18 0 0)
(-9.2573765527782e+18 0 0)
(-9.17986884908587e+18 0 0)
(-9.10148532448893e+18 0 0)
(-9.02223013842623e+18 0 0)
(-8.94210845354125e+18 0 0)
(-8.86112637650574e+18 0 0)
(-8.77929094060809e+18 0 0)
(-8.69660995077695e+18 0 0)
(-8.61309200895889e+18 0 0)
(-8.52874630423432e+18 0 0)
(-8.44358269161859e+18 0 0)
(-8.35761138974169e+18 0 0)
(-8.27084284576347e+18 0 0)
(-8.18328776349791e+18 0 0)
(-8.09495668214884e+18 0 0)
(-8.00585979908378e+18 0 0)
(-7.91600692711077e+18 0 0)
(-7.82540693163108e+18 0 0)
(-7.73406758205863e+18 0 0)
(-7.64199515604071e+18 0 0)
(-7.54919397431496e+18 0 0)
(-7.45566603942507e+18 0 0)
(-7.36141042487132e+18 0 0)
(-7.26642275462676e+18 0 0)
(-7.17069445428675e+18 0 0)
(-7.07421217561615e+18 0 0)
(-6.97695671019844e+18 0 0)
(-6.87890227048795e+18 0 0)
(-6.78001538651338e+18 0 0)
(-6.68025350229852e+18 0 0)
(-6.5795639182219e+18 0 0)
(-6.4778821313689e+18 0 0)
(-6.37513001862273e+18 0 0)
(-6.27121406746139e+18 0 0)
(-6.16602320324736e+18 0 0)
(-6.05942612875018e+18 0 0)
(-5.95126882285912e+18 0 0)
(-5.84137132361541e+18 0 0)
(-5.72952428086821e+18 0 0)
(-5.61548518277251e+18 0 0)
(-5.49897427295299e+18 0 0)
(-5.37966815471469e+18 0 0)
(-5.25719745192054e+18 0 0)
(-5.13114726135444e+18 0 0)
(-5.00098442853561e+18 0 0)
(-4.86616098784517e+18 0 0)
(-4.72634708682342e+18 0 0)
(-4.57848809718075e+18 0 0)
(-4.42540393793638e+18 0 0)
(-4.26393709038377e+18 0 0)
(-4.05862335820018e+18 0 0)
(-3.89538688667851e+18 0 0)
(-3.46502784723032e+18 0 0)
(-2.62228274370839e+18 0 0)
(-2.13716562996416e+18 0 0)
(-2.11030014675229e+18 0 0)
(-2.00314697178887e+18 0 0)
(-1.74013393260144e+18 0 0)
(-1.19355551199317e+18 0 0)
(-6.89009724757115e+17 0 0)
(-2.31940017134502e+17 0 0)
(3.07865854263951e+16 0 0)
(-5.2116568575207e+17 0 0)
(-1.09176730822902e+18 0 0)
(-6.8466980039426e+17 0 0)
(-6.74920729777537e+17 0 0)
(-2.23257282610935e+18 0 0)
(-2.71636838061022e+18 0 0)
(-2.3976293575835e+18 0 0)
(-3.94786474013229e+18 0 0)
(-4.39127044891188e+18 0 0)
(-3.51785314102018e+18 0 0)
(-3.82630235465266e+18 0 0)
(-3.15217357559143e+18 0 0)
(-4.24957180107555e+17 0 0)
(5.8055443469933e+17 0 0)
(2.46354040986639e+18 0 0)
(5.08323950247595e+18 0 0)
(7.20229046233439e+18 0 0)
(8.75826699846969e+18 0 0)
(9.94373734725347e+18 0 0)
(1.02942789539788e+19 0 0)
(1.07307086159636e+19 0 0)
(9.25462493909366e+18 0 0)
(7.44956929508141e+18 0 0)
(6.2597819925231e+18 0 0)
(4.47583363526649e+18 0 0)
(6.2473713506591e+18 0 0)
(-1.77448627386204e+18 0 0)
(-1.66744932825407e+18 0 0)
(2.05936304190112e+17 0 0)
(-2.44005918882987e+18 0 0)
(-2.68941324592816e+18 0 0)
(-2.57170396114376e+18 0 0)
(-2.53091476547211e+18 0 0)
(-2.6484596117853e+18 0 0)
(-2.85031525756677e+18 0 0)
(-3.02117763707751e+18 0 0)
(-3.11647561043432e+18 0 0)
(-3.158012848798e+18 0 0)
(-3.15864981223681e+18 0 0)
(-3.13547557004977e+18 0 0)
(-3.10361569563374e+18 0 0)
(-3.06366392473303e+18 0 0)
(-3.01871777315458e+18 0 0)
(-2.97201709049913e+18 0 0)
(-2.92424473452551e+18 0 0)
(-2.87450997804953e+18 0 0)
(-2.82406638559761e+18 0 0)
(-2.77294668709106e+18 0 0)
(-2.72136417829985e+18 0 0)
(-2.66949849457912e+18 0 0)
(-2.61718987419483e+18 0 0)
(-2.56514058095049e+18 0 0)
(-2.51330971092955e+18 0 0)
(-2.46143153084039e+18 0 0)
(-2.40989187559949e+18 0 0)
(-2.35876041146244e+18 0 0)
(-2.30812878942718e+18 0 0)
(-2.25807741842252e+18 0 0)
(-2.20868608421343e+18 0 0)
(-2.16001939139162e+18 0 0)
(-2.11213429396112e+18 0 0)
(-2.06508015604747e+18 0 0)
(-2.01889882225126e+18 0 0)
(-1.97362553117585e+18 0 0)
(-1.92928866813631e+18 0 0)
(-1.88591074028506e+18 0 0)
(-1.8435081920912e+18 0 0)
(-1.80209248944659e+18 0 0)
(-1.7616698619752e+18 0 0)
(-1.72224246287799e+18 0 0)
(-1.68380823537675e+18 0 0)
(-1.64636175152076e+18 0 0)
(-1.60989664593013e+18 0 0)
(-1.57440119943228e+18 0 0)
(-1.53985587729972e+18 0 0)
(-1.50624149395436e+18 0 0)
(-1.47355310645729e+18 0 0)
(-1.44170405740695e+18 0 0)
(-1.41083313502985e+18 0 0)
(-1.38081236741154e+18 0 0)
(-1.35159916066458e+18 0 0)
(-1.32320139647038e+18 0 0)
(-1.29559476281362e+18 0 0)
(-1.26875987367679e+18 0 0)
(-1.24266964204533e+18 0 0)
(-1.21732915914785e+18 0 0)
(-1.19261277632051e+18 0 0)
(-1.16864188351337e+18 0 0)
(-1.14536408044191e+18 0 0)
(-1.12264720127048e+18 0 0)
(-1.10057616335567e+18 0 0)
(-1.07909549419287e+18 0 0)
(-1.05819084832826e+18 0 0)
(-1.0378412591044e+18 0 0)
(-1.01802469943124e+18 0 0)
(-9.98730482673327e+17 0 0)
(-9.79876235838462e+17 0 0)
(-9.61597767452737e+17 0 0)
(-9.43779370690634e+17 0 0)
(-9.26391350344796e+17 0 0)
(-9.09437800460951e+17 0 0)
(-8.92906740376677e+17 0 0)
(-8.76785748748419e+17 0 0)
(-8.61061963399836e+17 0 0)
(-8.45722803335534e+17 0 0)
(-8.30756171190916e+17 0 0)
(-8.16150256256349e+17 0 0)
(-8.01893753519992e+17 0 0)
(-7.87975521468594e+17 0 0)
(-7.74384754352049e+17 0 0)
(-7.61109495297225e+17 0 0)
(-7.48135089288339e+17 0 0)
(-7.35420550358988e+17 0 0)
(-7.22904412076505e+17 0 0)
(-7.1108181998279e+17 0 0)
(-6.99314681144686e+17 0 0)
(-6.87842871485619e+17 0 0)
(-6.76618917496924e+17 0 0)
(-6.65684605871277e+17 0 0)
(-6.54650780434946e+17 0 0)
(-6.44663751244613e+17 0 0)
(-6.34597340038372e+17 0 0)
(-6.24705566291442e+17 0 0)
(-6.14909142431713e+17 0 0)
(-6.06193684496799e+17 0 0)
(-5.96936125509388e+17 0 0)
(-5.88920440843926e+17 0 0)
(-5.8086203361955e+17 0 0)
(-5.74331092902205e+17 0 0)
(-5.68249396462071e+17 0 0)
(-5.58426367206226e+17 0 0)
)
;

boundaryField
{
    electrode
    {
        type            calculated;
        value           uniform (-1.47837531132563e+19 0 0);
    }
    ground
    {
        type            calculated;
        value           uniform (-5.5587690914698e+17 0 0);
    }
    otherfaces
    {
        type            empty;
    }
}


// ************************************************************************* //
