/*--------------------------------*- C++ -*----------------------------------*\
| =========                 |                                                 |
| \\      /  F ield         | foam-extend: Open Source CFD                    |
|  \\    /   O peration     | Version:     4.0                                |
|   \\  /    A nd           | Web:         http://www.foam-extend.org         |
|    \\/     M anipulation  |                                                 |
\*---------------------------------------------------------------------------*/
FoamFile
{
    version     2.0;
    format      ascii;
    class       volScalarField;
    location    "3.6e-06";
    object      Phi;
}
// * * * * * * * * * * * * * * * * * * * * * * * * * * * * * * * * * * * * * //

dimensions      [0 0 0 1 0 0 0];

internalField   nonuniform List<scalar> 
300
(
699.999926867855
699.99969995746
699.999173774862
699.998377532086
699.997321319712
699.99599989757
699.994414218546
699.992564311111
699.990449996429
699.988071231063
699.985427935074
699.982520019589
699.979347390677
699.975909944385
699.972207566401
699.968240130864
699.964007498924
699.959509517322
699.95474601685
699.949716810718
699.944421692818
699.938860435889
699.933032789583
699.92693847842
699.920577199647
699.913948620979
699.90705237824
699.899888072883
699.892455269407
699.884753492651
699.876782224977
699.868540903328
699.860028916173
699.851245600328
699.842190237645
699.832862051591
699.823260203684
699.813383789809
699.803231836406
699.792803296514
699.782097045695
699.771111877818
699.759846500706
699.748299531648
699.73646949278
699.724354806326
699.711953789706
699.699264650524
699.686285481422
699.673014254838
699.65944881765
699.645586885755
699.631426038552
699.616963713236
699.602197198414
699.58712362634
699.571739966018
699.5560430166
699.540029400731
699.523695557743
699.507037736674
699.490051989075
699.472734161586
699.455079888327
699.437084583056
699.41874343114
699.400051381315
699.381003137242
699.361593148858
699.341815603508
699.32166441687
699.301133223659
699.280215368093
699.258903894136
699.237191535486
699.215070705305
699.192533485684
699.169571616839
699.14617648601
699.122339116058
699.098050153733
699.073299857627
699.048078085749
699.022374282745
698.996177466712
698.969476215604
698.942258653185
698.914512434508
698.886224730912
698.857382214456
698.82797104181
698.797976837518
698.767384676613
698.736179066536
698.704343928307
698.671862576893
698.638717700712
698.604891340207
698.570364865425
698.535118952517
698.499133559088
698.462387898287
698.42486041155
698.386528739886
698.347369693595
698.307359220261
698.266472370916
698.224683264204
698.181965048362
698.13828986086
698.093628785474
698.047951806591
698.001227760488
697.953424283316
697.904507755504
697.854443242252
697.803194429761
697.750723556788
697.696991341112
697.641956900411
697.585577667019
697.527809295956
697.468605565597
697.407918270206
697.345697103537
697.281889532573
697.216440660373
697.149293076887
697.080386696418
697.009658580299
696.937042743127
696.862469940709
696.785867437607
696.70715875192
696.626263374587
696.543096460121
696.457568485285
696.369584871674
696.279045567578
696.185844583865
696.089869477743
695.991000777375
695.889111339172
695.784065628299
695.675718911338
695.563916348263
695.44849196863
695.329267514297
695.20605112789
695.078635862427
694.946797982601
694.810295024632
694.668863573228
694.522216688664
694.370040990481
694.211993253064
694.047695902116
693.876733850706
693.698646664625
693.512918606612
693.318996137784
693.116168957397
692.903519889969
692.680050967805
692.444686880955
692.196218110569
691.933256084229
691.654114554449
691.356863165814
691.039183867324
690.698490553908
690.332129211318
689.937129099448
689.509771275209
689.04610990969
688.54242547612
687.994067912766
687.3959830617
686.743885477694
686.032573371756
685.256628300432
684.411753345814
683.493200925228
682.496024170256
681.416856195711
680.252406809829
678.999497807552
677.655860134572
676.220200577821
674.691420580424
673.068601181738
671.351505303373
669.540667078663
667.636602485372
665.63982349082
663.550389212693
661.36818712277
659.093711250473
656.726254369497
654.265019681797
651.70936412979
649.058441968288
646.312173410012
643.470805131721
640.535066835413
637.505905324845
634.3843178005
631.171228919979
627.867534086615
624.474020566335
620.991427859932
617.420383565356
613.761615377251
610.016014690359
606.184414507434
602.267554183675
598.266126774788
594.180739440409
590.011964586947
585.760295781246
581.426202378004
577.010082902241
572.512319947441
567.933231566951
563.273126906124
558.532393639655
553.711548117088
548.811045831058
543.831344082578
538.772842114428
533.635946915058
528.421009605805
523.128393659177
517.758407855731
512.311377365517
506.787574042216
501.187290353237
495.510766352036
489.758267151276
483.930005494914
478.026222519503
472.0471057373
465.992873600259
459.863772841704
453.660178825222
447.382410297533
441.030819910959
434.605702364526
428.107389321647
421.536153437592
414.892307495925
408.1761042931
401.387839536791
394.527747579737
387.596108345127
380.593138997799
373.51910456232
366.374205673546
359.158693221484
351.87275192737
344.51661890169
337.09046335491
329.594508996368
322.028909847043
314.393876344418
306.689548031109
298.916121486397
291.073723521289
283.162540555163
275.182802622092
267.134798380406
259.018745060989
250.8349197446
242.583527033264
234.264833349742
225.879031540016
217.426378350827
208.907055329586
200.321310177766
191.669313385327
182.951304214826
174.167442504995
165.317959386596
156.403004681127
147.42280186797
138.377491541828
129.267289855762
120.092328625244
110.852816978349
101.54887848304
92.1807157815609
82.7484450505276
73.2522632546569
63.6922793724525
54.0686850316308
44.3815826731919
34.6311594407969
24.8175114501782
14.9408221568158
5.00118220466304
)
;

boundaryField
{
    electrode
    {
        type            fixedValue;
        value           uniform 700;
    }
    ground
    {
        type            fixedValue;
        value           uniform 0;
    }
    otherfaces
    {
        type            empty;
    }
}


// ************************************************************************* //
