/*--------------------------------*- C++ -*----------------------------------*\
| =========                 |                                                 |
| \\      /  F ield         | foam-extend: Open Source CFD                    |
|  \\    /   O peration     | Version:     4.0                                |
|   \\  /    A nd           | Web:         http://www.foam-extend.org         |
|    \\/     M anipulation  |                                                 |
\*---------------------------------------------------------------------------*/
FoamFile
{
    version     2.0;
    format      ascii;
    class       volScalarField;
    location    "3.6e-06";
    object      PhiMean;
}
// * * * * * * * * * * * * * * * * * * * * * * * * * * * * * * * * * * * * * //

dimensions      [0 0 0 1 0 0 0];

internalField   nonuniform List<scalar> 
300
(
699.979589783346
699.9776740904
699.975506596884
699.973103303688
699.970473883875
699.967610690135
699.964512115554
699.961176485055
699.957602223105
699.953788151129
699.949733311688
699.945436989123
699.940898659196
699.936117975459
699.931094752495
699.925828949517
699.920320657243
699.914570089332
699.908577571381
699.902343530672
699.895868489214
699.889153056449
699.882197922598
699.875003851886
699.867571674948
699.85990229872
699.851996689924
699.8438558693
699.835480910713
699.826872928977
699.818033071197
699.80896253615
699.799662562878
699.790134407802
699.780379340527
699.770398638452
699.760193580418
699.749765444409
699.739115501113
699.728245006412
699.71715519861
699.705847295949
699.69432248696
699.682581925986
699.670626728664
699.658457967407
699.646076666876
699.633483801228
699.620680291069
699.607667006084
699.594444765621
699.581014355677
699.567376515292
699.553531939517
699.539481254305
699.525225007151
699.510763649808
699.496097531606
699.481226893741
699.466151862044
699.450872441936
699.435388512527
699.419699819414
699.403805967242
699.3877064457
699.371400621334
699.354887698957
699.338166716138
699.321236537342
699.304095846632
699.286743140259
699.269176717269
699.251394690807
699.233394986638
699.21517531221
699.196733162579
699.178065833662
699.159170403167
699.14004371868
699.120682357501
699.101082665031
699.081240697916
699.061152208868
699.040812640301
699.020217105875
698.999360404076
698.978236996924
698.956840976186
698.935166047577
698.913205530093
698.89095233272
698.868398935133
698.84553742915
698.822359439249
698.798856098239
698.775018031056
698.75083533118
698.726297541989
698.701393627875
698.676111957236
698.650440280688
698.624365696375
698.59787461449
698.570952771908
698.543585162657
698.515756009113
698.487448741598
698.458645939897
698.429329321951
698.399479684843
698.369076850956
698.338099626008
698.306525745403
698.274331836174
698.241493364378
698.207984559969
698.173778389611
698.138846502406
698.103159125402
698.066684977351
698.029391185811
697.991243235143
697.952204849516
697.91223793814
697.871302460349
697.829356274158
697.786355005395
697.742251938678
697.696997833935
697.65054076782
697.602825956845
697.553795570423
697.503388513632
697.451540184852
697.398182231969
697.343242342055
697.286643887766
697.228305556819
697.168140998658
697.106058440664
697.041960186843
696.97574209224
696.907292992807
696.836494064539
696.763218131532
696.68732889781
696.60867997539
696.527113842043
696.442460621793
696.354536720671
696.263143381471
696.168064862868
696.06906637628
695.965891825484
695.85826097189
695.74586627721
695.628369207745
695.505395906698
695.37653190269
695.241316069999
695.099233187067
694.949701884828
694.792052732782
694.625511282928
694.449186114784
694.262047186143
694.062892916188
693.850307238637
693.622614028453
693.377816903625
693.113549308717
692.827033736846
692.515050911482
692.173821317268
691.798995874529
691.385755428421
690.928630835358
690.421572608848
689.858282751893
689.231982774939
688.535693598224
687.762629507092
686.906180899045
685.960031557725
684.918934155484
683.778301744308
682.534420976134
681.184852059893
679.728205011359
678.163785984269
676.491659091139
674.712582666841
672.827902895343
670.839260937285
668.748045299818
666.555367714502
664.262149356236
661.868943489315
659.376260050899
656.784585445648
654.09447322947
651.306551571066
648.421575533834
645.440561707225
642.36471280418
639.195158675411
635.932958683717
632.57907758909
629.134412096169
625.599769405332
621.975899724925
618.263473357244
614.463250107632
610.576099591881
606.602841518043
602.544224224987
598.400957998317
594.173690844605
589.863042816599
585.469579021266
580.993845241046
576.436338480384
571.797543957161
567.077904211725
562.277858260258
557.397909979637
552.438659887738
547.400665532221
542.284479614464
537.090614469519
531.819581822758
526.471854860868
521.047911476449
515.548196549013
509.973163704846
504.323232232915
498.598832579619
492.800361177947
486.928228349176
480.982810864403
474.96450232239
468.87366403817
462.710681157273
456.475976540178
450.170051554843
443.793360833514
437.346384307866
430.829554474646
424.24333155972
417.588127383699
410.864384031762
404.072493849791
397.212882189605
390.285922907848
383.29202586178
376.231547314529
369.104882664183
361.912371429515
354.654395406981
347.331278232016
339.943388802794
332.491035657375
324.974575537759
317.394302347796
309.750561386483
302.043638246565
294.273882863507
286.441584609633
278.547130895609
270.59086678099
262.573214033331
254.494504505111
246.355149510123
238.155466318362
229.895856462227
221.576623047306
213.198158451857
204.760752078326
196.264787723905
187.710541554263
179.098389326744
170.428594330179
161.70152484551
152.917431635662
144.076676187509
135.179497136767
126.226249734673
117.217160766626
108.152579752056
99.0327218860596
89.8579313856179
80.6284123510189
71.3445043943851
62.0064007999511
52.6144369493703
43.1687959253039
33.6698097399269
24.11765171368
14.5126516224764
4.85497386162209
)
;

boundaryField
{
    electrode
    {
        type            calculated;
        value           uniform 700.000000000645;
    }
    ground
    {
        type            calculated;
        value           uniform 0;
    }
    otherfaces
    {
        type            empty;
    }
}


// ************************************************************************* //
