/*--------------------------------*- C++ -*----------------------------------*\
| =========                 |                                                 |
| \\      /  F ield         | foam-extend: Open Source CFD                    |
|  \\    /   O peration     | Version:     4.0                                |
|   \\  /    A nd           | Web:         http://www.foam-extend.org         |
|    \\/     M anipulation  |                                                 |
\*---------------------------------------------------------------------------*/
FoamFile
{
    version     2.0;
    format      ascii;
    class       volScalarField;
    location    "3.6e-06";
    object      Sy_electron;
}
// * * * * * * * * * * * * * * * * * * * * * * * * * * * * * * * * * * * * * //

dimensions      [1 -3 -1 0 0 0 0];

internalField   nonuniform List<scalar> 
300
(
1.67626104802927e-09
1.67658019019717e-09
1.67670262659264e-09
1.67666657827798e-09
1.67663425152816e-09
1.67657657294643e-09
1.67649593162857e-09
1.67639497122849e-09
1.6762728158749e-09
1.67612955977306e-09
1.6759652237698e-09
1.67577977234197e-09
1.67557319991357e-09
1.67534550279523e-09
1.67509668103104e-09
1.67482673970704e-09
1.67453568788554e-09
1.67422353829506e-09
1.67389030691573e-09
1.67353601251156e-09
1.67316067615369e-09
1.67276432070923e-09
1.67234697030832e-09
1.67190864978356e-09
1.67144938405522e-09
1.67096919759548e-09
1.67046811371142e-09
1.66994615390132e-09
1.66940333718089e-09
1.66883967932291e-09
1.66825519209715e-09
1.66764988256027e-09
1.66702375222196e-09
1.6663767961852e-09
1.66570900229668e-09
1.66502035026808e-09
1.66431081074837e-09
1.66358034440576e-09
1.66282890094357e-09
1.662056418102e-09
1.6612628206377e-09
1.66044801927623e-09
1.65961190963447e-09
1.65875437111422e-09
1.65787526577854e-09
1.65697443718753e-09
1.65605170921433e-09
1.65510688483683e-09
1.65413974488086e-09
1.65315004678611e-09
1.65213752332325e-09
1.65110188149317e-09
1.65004280171486e-09
1.64941440951467e-09
1.64890746122236e-09
1.64838751073677e-09
1.6478541583877e-09
1.64730697032114e-09
1.64674547765269e-09
1.64616917539355e-09
1.64557752120414e-09
1.64496993398036e-09
1.64434579234751e-09
1.64370443312418e-09
1.64304514979319e-09
1.64236719092952e-09
1.64166975853749e-09
1.64095200649446e-09
1.64021303895489e-09
1.63945190873095e-09
1.638667615687e-09
1.63785910514115e-09
1.63702526626606e-09
1.63616493049634e-09
1.63527686988956e-09
1.63435979556774e-09
1.63341235610133e-09
1.63243313590592e-09
1.6314206537383e-09
1.63037336099919e-09
1.62928964035e-09
1.62816780403641e-09
1.6270060924087e-09
1.62580267242716e-09
1.62455563615405e-09
1.62326299936023e-09
1.62192270005348e-09
1.62053259704677e-09
1.61909046858964e-09
1.61759401106743e-09
1.61604083763434e-09
1.61442847690322e-09
1.61275437190316e-09
1.6110158786377e-09
1.60921026499804e-09
1.6073347096496e-09
1.60538630094702e-09
1.603362035878e-09
1.60125881905203e-09
1.59907346178012e-09
1.59680268115388e-09
1.59444309916618e-09
1.59199124183835e-09
1.58944353857534e-09
1.58679632129046e-09
1.58404582374663e-09
1.58118818093065e-09
1.5782194283577e-09
1.5751355015573e-09
1.57193223544978e-09
1.56860536380723e-09
1.56515051873501e-09
1.56156323015305e-09
1.55783892529457e-09
1.55397292817747e-09
1.54996045905872e-09
1.54579663390164e-09
1.54147646383422e-09
1.53699485440482e-09
1.53234660489675e-09
1.52752640751278e-09
1.52252884653378e-09
1.51734839718023e-09
1.51197942452735e-09
1.50641618207758e-09
1.50065281015772e-09
1.49468333406322e-09
1.48850166204636e-09
1.48210158276679e-09
1.47547676251789e-09
1.46862074195223e-09
1.46152693239378e-09
1.45418861153663e-09
1.44659891853275e-09
1.43875084843089e-09
1.43063724588586e-09
1.42225079784477e-09
1.41358402534246e-09
1.40462927424492e-09
1.39537870478641e-09
1.38582427968664e-09
1.37595775084678e-09
1.36577064437103e-09
1.35525424381805e-09
1.34439957140075e-09
1.33319736704583e-09
1.32163806485796e-09
1.30971176704125e-09
1.29740821508227e-09
1.28471675762774e-09
1.27162631357754e-09
1.25812534117345e-09
1.24420179631207e-09
1.22984302715139e-09
1.21505635140233e-09
1.20301699699204e-09
1.1905357223835e-09
1.17760481014314e-09
1.16420456707195e-09
1.15036255519016e-09
1.13620983667611e-09
1.12173178461701e-09
1.10668901853604e-09
1.09092787155035e-09
1.07444536138432e-09
1.05729622414684e-09
1.03948831058228e-09
1.02093375958616e-09
1.0014920383227e-09
9.80785180103634e-10
9.58462072229571e-10
9.34752629616749e-10
9.09840564278126e-10
8.84142622193157e-10
8.57544404544979e-10
8.29733043998344e-10
8.00500172559132e-10
7.6972435949969e-10
7.39026098794323e-10
7.09269767721052e-10
6.78726720230767e-10
6.51558590150287e-10
6.31757129028414e-10
6.18584152737648e-10
6.12959188666675e-10
6.22195997149436e-10
6.4654730672955e-10
6.83972230629042e-10
7.46626656114926e-10
8.42107038973171e-10
9.80874025299013e-10
1.19285429366325e-09
1.52240229441273e-09
2.05426194388505e-09
2.97479091054434e-09
4.24396249157529e-09
5.48104185813807e-09
6.72169162508407e-09
7.572648436923e-09
7.32651721988686e-09
6.34105214884244e-09
5.09847775912469e-09
3.96115202555381e-09
3.08068099143339e-09
2.46689488720281e-09
2.06807943791089e-09
1.81433816683178e-09
1.6494004735128e-09
1.55442398850376e-09
1.49146714728761e-09
1.45680843259543e-09
1.44056303948758e-09
1.43362293141899e-09
1.43008878687181e-09
1.43050375603968e-09
1.43271178644808e-09
1.43523210739047e-09
1.43705792185685e-09
1.4375093402965e-09
1.43614408781726e-09
1.43266211756152e-09
1.426868042834e-09
1.41788306527653e-09
1.40611104444665e-09
1.39218934258765e-09
1.37624345835392e-09
1.35842623190491e-09
1.33890723340558e-09
1.31786502593347e-09
1.29548181363499e-09
1.27193927559511e-09
1.24741536087899e-09
1.22208182330448e-09
1.19610236765333e-09
1.16963130067936e-09
1.14281260209238e-09
1.11577933799088e-09
1.08865336237161e-09
1.06154524888131e-09
1.0345544106908e-09
1.00776938258685e-09
9.81268229586874e-10
9.55119316405279e-10
9.29382362959481e-10
9.041088946159e-10
8.79341782563976e-10
8.55115984059945e-10
8.31453224638655e-10
8.08367011105016e-10
7.85872680568349e-10
7.63983518807724e-10
7.42708149145868e-10
7.22050923815934e-10
7.02012418115199e-10
6.82589751656991e-10
6.6377946213357e-10
6.45571664636492e-10
6.27951936897679e-10
6.10908407091418e-10
5.94430362689838e-10
5.78503254318736e-10
5.63111848103576e-10
5.48240157957837e-10
5.33871837086471e-10
5.19990030110378e-10
5.06577770095169e-10
4.93612077270557e-10
4.8106776236076e-10
4.68926527429849e-10
4.5717371709097e-10
4.45795706859934e-10
4.34779499354847e-10
4.24112623027012e-10
4.13783160766683e-10
4.03779792826214e-10
3.94091845889655e-10
3.84709340374626e-10
3.75623039409921e-10
3.66824491432993e-10
3.58306049450338e-10
3.50060698436832e-10
3.41862215919765e-10
3.33568611064462e-10
3.25484426205627e-10
3.17585756130028e-10
3.09880676947766e-10
3.0238007936684e-10
2.95095530049445e-10
2.87997910736993e-10
2.79994182367961e-10
2.7214562445982e-10
2.64489815800759e-10
2.57060493925706e-10
2.4793055134188e-10
2.39010631401504e-10
2.29144968481774e-10
2.17895515764971e-10
2.04277045748679e-10
1.87309488077656e-10
1.63667146226121e-10
)
;

boundaryField
{
    electrode
    {
        type            zeroGradient;
    }
    ground
    {
        type            zeroGradient;
    }
    otherfaces
    {
        type            empty;
    }
}


// ************************************************************************* //
