/*--------------------------------*- C++ -*----------------------------------*\
| =========                 |                                                 |
| \\      /  F ield         | foam-extend: Open Source CFD                    |
|  \\    /   O peration     | Version:     4.0                                |
|   \\  /    A nd           | Web:         http://www.foam-extend.org         |
|    \\/     M anipulation  |                                                 |
\*---------------------------------------------------------------------------*/
FoamFile
{
    version     2.0;
    format      ascii;
    class       volScalarField;
    location    "3.6e-06";
    object      Te;
}
// * * * * * * * * * * * * * * * * * * * * * * * * * * * * * * * * * * * * * //

dimensions      [0 0 0 1 0 0 0];

internalField   nonuniform List<scalar> 
300
(
39499.2084667427
39499.5076725433
39499.7062071069
39499.8437483248
39500.0515184845
39500.306199771
39500.6098544802
39500.9646143904
39501.3697851745
39501.8254552174
39502.3316520459
39502.8883592995
39503.4955860622
39504.1533444823
39504.8616516121
39505.6205307681
39506.4300110085
39507.2901272353
39508.2009202549
39509.162436808
39510.174729615
39511.2378574268
39512.3518850758
39513.516883531
39514.7329299628
39516.0001078025
39517.318506813
39518.6882231628
39520.109359505
39521.5820250609
39523.1063357066
39524.6824140623
39526.3103895983
39527.9903987338
39529.7225849472
39531.5070988934
39533.3440985213
39535.2337492081
39537.1762238885
39539.171703195
39541.2203756085
39543.322437612
39545.4780938529
39547.6875573022
39549.9510494371
39552.2688004108
39554.6410492346
39557.0680439611
39559.5500418648
39562.0873096249
39564.6801235434
39567.3287698692
39570.0335455929
39572.7947598226
39575.6127384685
39578.4878183577
39581.4203467248
39584.4106821835
39587.4591954483
39590.5662699204
39593.7323021801
39596.9577024256
39600.2428948798
39603.5883182135
39606.9944259701
39610.4616870248
39613.9905860722
39617.58162413
39621.2353190818
39624.9522062308
39628.7328388919
39632.5777890261
39636.487647881
39640.4630266795
39644.5045573406
39648.6128932172
39652.7887098734
39657.0327059166
39661.3456038601
39665.7281510193
39670.1811204482
39674.705311938
39679.301553054
39683.9707002195
39688.7136398626
39693.5312896173
39698.4245995804
39703.3945536318
39708.4421708317
39713.5685068783
39718.7746556538
39724.0617508429
39729.4309676358
39734.883524518
39740.420685171
39746.0437604732
39751.7541106112
39757.5531472926
39763.4423361018
39769.4231989912
39775.4973169083
39781.6663325809
39787.9319534626
39794.2959548563
39800.7601832416
39807.3265597824
39813.9970840683
39820.773838105
39827.6589905389
39834.6548011633
39841.7636257294
39848.9879210765
39856.3302506118
39863.7932901646
39871.3798342567
39879.0928028194
39886.9352484043
39894.9103639096
39903.0214908925
39911.2721285246
39919.6659432323
39928.2067790881
39936.8986690597
39945.7458471562
39954.7527615904
39963.9240890637
39973.2647502801
39982.7799268245
39992.4750795569
40002.3559686881
40012.4286757324
40022.6996275561
40033.1756227543
40043.8638606656
40054.7719733238
40065.9080607132
40077.2807297866
40088.8991377107
40100.7730398919
40112.9128434842
40125.3296671161
40138.0354077105
40151.0428154816
40164.3655783081
40178.0184168995
40192.0171924842
40206.3790290002
40221.1224521205
40236.2675482051
40251.8361461946
40267.8520253085
40284.3411637188
40301.3320196418
40318.8558016751
40336.9472261484
40355.6444545885
40374.9896298681
40395.0362549716
40415.8344773863
40437.4826325481
40460.1829125482
40484.0361724679
40508.9665148557
40534.9831884835
40562.2421512602
40590.9739280382
40621.3981299457
40653.6814572707
40687.9773067829
40724.2352196085
40762.4344878561
40803.1578094737
40847.0021207673
40893.68430747
40943.3979571585
40997.5179277479
41056.3313493905
41120.1978809562
41191.6284306943
41272.470577172
41364.7119113782
41474.1795306201
41606.5508502135
41767.7217842535
41969.9928275946
42229.1743407034
42564.939175251
43005.407034293
43589.8126280651
44376.2709117402
45441.6176725823
46882.0675080614
48861.0480461731
51620.9203601449
55582.1710792945
60861.1390336233
67444.8457209512
77042.6051498122
90933.463274559
109402.8813781
134486.137080553
168064.480779588
211152.659910077
262847.796685086
320116.035617599
379006.038503803
435993.555600344
488760.105583241
536288.757275836
578359.571988249
615249.980303455
647554.908955681
675891.276750827
700817.121471116
722864.452810291
742507.723735363
760136.300703126
776075.223905486
790593.04832211
803915.025306649
816222.423664779
827659.365265786
838354.419817664
848417.6079651
857937.335868136
866987.221574784
875628.305925379
883911.038987774
891876.907010766
899559.846834992
906987.323722329
914181.220207712
921158.565234169
927932.140311046
934510.988273568
940900.842554761
947104.493229559
953122.101636623
958951.473841534
964588.297350353
970026.352224541
975257.658107169
980272.643926468
985060.450432173
989609.157084961
993905.585483757
997936.654476243
1001686.40851259
1005136.89634802
1008272.57863218
1011077.30263427
1013533.71806901
1015623.93949401
1017329.66357636
1018631.63001879
1019511.34002552
1019938.53013856
1019916.65049339
1019413.17074368
1018409.35358059
1016884.14523913
1014817.14103332
1012187.57872598
1008974.59494366
1005156.91610447
1000714.83548719
995626.013462672
989866.075825049
983413.754826008
976246.830480502
968341.663425257
959673.749836928
950217.685438018
939947.090122978
928834.479925038
916851.118491248
903966.845106407
890149.879811741
875366.604245359
859581.361287683
842756.347615386
824852.613504492
805834.053414217
785649.101362853
764243.670084604
741566.374982845
717548.460408543
692113.147276628
665191.352566518
636691.393546195
606500.642951573
574502.913818073
540553.767926408
504467.055904168
466022.81240979
424937.452727171
380813.664465434
333106.630994919
281014.692612405
223489.523039305
)
;

boundaryField
{
    electrode
    {
        type            electronTemperature;
        seec            0.05;
        Tse             1000;
        Edepend         1;
        TFN             1000;
        field_emission  0;
        field_enhancement_factor 55;
        work_function   5;
        value           uniform 39499.2084667427;
    }
    ground
    {
        type            electronTemperature;
        seec            0.05;
        Tse             1000;
        Edepend         1;
        TFN             1000;
        field_emission  0;
        field_enhancement_factor 55;
        work_function   5;
        value           uniform 190828.424571168;
    }
    otherfaces
    {
        type            empty;
    }
}


// ************************************************************************* //
