/*--------------------------------*- C++ -*----------------------------------*\
| =========                 |                                                 |
| \\      /  F ield         | foam-extend: Open Source CFD                    |
|  \\    /   O peration     | Version:     4.0                                |
|   \\  /    A nd           | Web:         http://www.foam-extend.org         |
|    \\/     M anipulation  |                                                 |
\*---------------------------------------------------------------------------*/
FoamFile
{
    version     2.0;
    format      ascii;
    class       volScalarField;
    location    "3.6e-06";
    object      TeMean;
}
// * * * * * * * * * * * * * * * * * * * * * * * * * * * * * * * * * * * * * //

dimensions      [0 0 0 1 0 0 0];

internalField   nonuniform List<scalar> 
300
(
31374.5401427568
31374.8257045426
31374.9073225583
31374.8104525789
31374.6957444106
31374.5465878228
31374.3655373468
31374.1561413378
31373.9190458672
31373.6553012278
31373.365902315
31373.051802779
31372.7139229387
31372.3531257214
31371.9702429422
31371.5660724775
31371.1413762694
31370.6968886484
31370.2333155023
31369.7513339283
31369.2515971416
31368.7347307005
31368.2013367355
31367.6519926116
31367.0872501786
31366.5076552745
31365.9137347091
31365.305991518
31364.6849201909
31364.0509859638
31363.4046224697
31362.7462752592
31362.0763973855
31361.3954144974
31360.703734723
31360.0017414587
31359.2898075564
31358.5683109862
31357.8376192988
31357.0980815876
31356.3500320732
31355.5938102609
31354.8297462956
31354.0581558057
31353.2793460282
31352.4936152386
31351.7012518171
31350.9025324599
31350.0977163198
31349.2870448109
31348.4707420199
31347.6490407789
31346.822197318
31345.990458516
31345.1540703257
31344.3132882857
31343.4683493345
31342.6194752204
31341.7668953189
31340.9108352004
31340.0515137268
31339.1891590754
31338.3239656089
31337.456112022
31336.5858240391
31335.7133478877
31334.8389170558
31333.9627557368
31333.0850853784
31332.2061331378
31331.3261172417
31330.4452312346
31329.5636899827
31328.6817228932
31327.7995357045
31326.9173147226
31326.0352761737
31325.1536793985
31324.2727584563
31323.3927326557
31322.5138673442
31321.6364375224
31320.760688757
31319.8868502812
31319.0151520491
31318.1458648003
31317.2792919317
31316.4157200156
31315.5554224571
31314.6986938913
31313.8458107698
31312.9970515432
31312.1527821339
31311.3133469569
31310.4790758005
31309.6503444812
31308.8275228854
31308.0109934005
31307.2011409745
31306.3983682527
31305.6031219169
31304.81581181
31304.0368568705
31303.2667525591
31302.5060014287
31301.7551108101
31301.0145978758
31300.2850032232
31299.5669114087
31298.8609248982
31298.1676705465
31297.487796269
31296.8219612191
31296.1708894202
31295.5353158249
31294.9159815628
31294.3136523963
31293.7291672863
31293.1634407645
31292.617355533
31292.0918233621
31291.5878219444
31291.1063646894
31290.6485447492
31290.215549611
31289.8085915789
31289.4288972722
31289.0777903456
31288.7566890407
31288.4670413213
31288.2103635338
31287.98828784
31287.8025570174
31287.6549331936
31287.5472580558
31287.4816070102
31287.4601909164
31287.4852913164
31287.5593675393
31287.6850999159
31287.8653560938
31288.1031825302
31288.4018323186
31288.7647941884
31289.1958872666
31289.6993365881
31290.2797724034
31290.9422864719
31291.6923604752
31292.5360057768
31293.4800236394
31294.5319203462
31295.7000525774
31296.9939098228
31298.4241018276
31300.0025913767
31301.7431249257
31303.6616057946
31305.7767446903
31308.1124721935
31310.7045690433
31313.5997637878
31316.840968186
31320.46678059
31324.5294601723
31329.1039278004
31334.2811618011
31340.162366649
31346.850633072
31354.428874624
31362.9445694807
31372.4594700837
31383.0619727908
31394.7091123749
31407.3358227983
31421.0697696828
31435.9201416593
31451.9965065086
31470.0762888398
31491.3519430908
31517.8817451358
31553.7343786371
31605.2139938058
31681.940795706
31799.3383056591
31980.3161989956
32258.5632359494
32685.1367905522
33337.2126577203
34332.5995238265
35855.8856051753
38205.3443139581
41869.5856341819
47814.3156708644
56978.1332539192
69909.6436207247
88884.4345377494
114844.738582919
149570.108292709
193240.745990934
244927.100932696
302062.866917214
361450.455560048
419627.371966073
473874.78006344
522670.764562153
565608.080043631
602965.261263398
635384.363970353
663600.809015645
688284.483312345
710013.959726779
729282.493624064
746511.116307221
762050.398429766
776186.178024701
789152.020514175
801139.418018607
812305.512659438
822777.675474358
832661.682900978
842042.132733892
850989.603087437
859567.098004724
867824.742864978
875803.163858377
883535.264035624
891047.342952958
898360.056219594
905489.222050311
912446.465057851
919239.758413728
925873.872929249
932350.62295583
938669.265509704
944826.888359093
950818.54734537
956637.506647182
962275.422902027
967722.5288492
972967.775090207
977998.947260449
982802.843793631
987365.484774637
991672.227701297
995707.913830472
999456.425794997
1002901.25511555
1006025.63040791
1008811.96856454
1011243.32057926
1013302.90705161
1014973.30601122
1016236.97769021
1017076.09335197
1017472.86350214
1017406.84945041
1016859.85691629
1015823.59071005
1014273.62932974
1012192.09701691
1009560.38472501
1006360.17182541
1002572.95421171
998180.042085924
993163.125719549
987502.796577746
981179.007941501
974172.521822961
966463.109854695
958029.614003113
948850.45140395
938903.458843719
928165.188908238
916610.910997689
904214.591602007
890948.778164673
876784.397021526
861690.611379176
845634.536420959
828581.130817839
810493.087830557
791334.77964412
771061.489249252
749621.471551265
726963.915101101
703027.226082708
677739.316299001
651029.366066494
622811.853767106
592981.43763447
561421.596634296
527996.888072077
492529.769568558
454806.001957805
414553.034234434
371385.62233377
324779.533872022
273969.18936793
217938.038268243
)
;

boundaryField
{
    electrode
    {
        type            calculated;
        value           uniform 31374.5401427602;
    }
    ground
    {
        type            calculated;
        value           uniform 186176.803192083;
    }
    otherfaces
    {
        type            empty;
    }
}


// ************************************************************************* //
