/*--------------------------------*- C++ -*----------------------------------*\
| =========                 |                                                 |
| \\      /  F ield         | foam-extend: Open Source CFD                    |
|  \\    /   O peration     | Version:     4.0                                |
|   \\  /    A nd           | Web:         http://www.foam-extend.org         |
|    \\/     M anipulation  |                                                 |
\*---------------------------------------------------------------------------*/
FoamFile
{
    version     2.0;
    format      ascii;
    class       volScalarField;
    location    "5.9e-06";
    object      Ar;
}
// * * * * * * * * * * * * * * * * * * * * * * * * * * * * * * * * * * * * * //

dimensions      [0 0 0 1 0 0 0];

internalField   nonuniform List<scalar> 
300
(
3.21880277700512e+22
3.21880277273113e+22
3.21880277553345e+22
3.21880277659873e+22
3.21880277844762e+22
3.21880278102193e+22
3.21880278416222e+22
3.21880278793131e+22
3.21880279231709e+22
3.2188027973163e+22
3.21880280292927e+22
3.21880280915477e+22
3.21880281599217e+22
3.21880282344105e+22
3.21880283150109e+22
3.21880284017212e+22
3.21880284945436e+22
3.21880285934771e+22
3.21880286985213e+22
3.21880288096778e+22
3.21880289269493e+22
3.21880290503387e+22
3.21880291798499e+22
3.21880293154873e+22
3.21880294572718e+22
3.21880296051965e+22
3.21880297592687e+22
3.21880299194982e+22
3.21880300858832e+22
3.21880302584315e+22
3.21880304371697e+22
3.21880306220999e+22
3.2188030813218e+22
3.21880310105328e+22
3.21880312140542e+22
3.21880314237929e+22
3.21880316397644e+22
3.21880318619788e+22
3.21880320904458e+22
3.21880323251793e+22
3.21880325661937e+22
3.21880328135024e+22
3.21880330671204e+22
3.21880333270636e+22
3.21880335933486e+22
3.21880338659928e+22
3.21880341450163e+22
3.21880344304396e+22
3.21880347222925e+22
3.21880350205993e+22
3.2188035325396e+22
3.21880356366938e+22
3.21880359545227e+22
3.21880362788898e+22
3.21880366098125e+22
3.21880369473003e+22
3.21880372913765e+22
3.21880376420651e+22
3.21880379993909e+22
3.21880383633813e+22
3.21880387340602e+22
3.21880391114563e+22
3.2188039495605e+22
3.21880398865515e+22
3.21880402843051e+22
3.21880406888772e+22
3.21880411003178e+22
3.21880415186585e+22
3.2188041943934e+22
3.21880423761803e+22
3.21880428154357e+22
3.21880432617452e+22
3.2188043715148e+22
3.21880441756748e+22
3.21880446433771e+22
3.21880451182921e+22
3.21880456004517e+22
3.21880460898982e+22
3.21880465866501e+22
3.21880470907761e+22
3.21880476022801e+22
3.21880481211982e+22
3.21880486475715e+22
3.21880491814361e+22
3.21880497228445e+22
3.2188050271827e+22
3.21880508284094e+22
3.21880513926288e+22
3.21880519645344e+22
3.21880525441552e+22
3.21880531315339e+22
3.21880537267517e+22
3.21880543297892e+22
3.21880549406804e+22
3.21880555594601e+22
3.2188056186163e+22
3.21880568208233e+22
3.21880574634749e+22
3.21880581141617e+22
3.21880587729162e+22
3.21880594397637e+22
3.21880601147341e+22
3.21880607978894e+22
3.21880614892301e+22
3.21880621887943e+22
3.21880628966195e+22
3.21880636127178e+22
3.21880643371354e+22
3.21880650698875e+22
3.21880658109934e+22
3.21880665604787e+22
3.21880673183687e+22
3.21880680846932e+22
3.21880688594753e+22
3.21880696427375e+22
3.21880704345163e+22
3.2188071234849e+22
3.21880720437278e+22
3.2188072861168e+22
3.21880736871928e+22
3.21880745218428e+22
3.21880753651182e+22
3.21880762170601e+22
3.21880770776693e+22
3.21880779469446e+22
3.21880788248975e+22
3.21880797115644e+22
3.21880806069351e+22
3.2188081511027e+22
3.21880824238476e+22
3.21880833454173e+22
3.21880842757436e+22
3.21880852148347e+22
3.21880861627187e+22
3.21880871194333e+22
3.21880880849604e+22
3.21880890592957e+22
3.21880900424633e+22
3.21880910344804e+22
3.21880920353353e+22
3.21880930450408e+22
3.21880940636092e+22
3.2188095091067e+22
3.2188096127442e+22
3.21880971727526e+22
3.21880982269621e+22
3.21880992900824e+22
3.21881003621542e+22
3.21881014431093e+22
3.21881025329884e+22
3.21881036318155e+22
3.21881047395932e+22
3.21881058563697e+22
3.21881069820977e+22
3.21881081168107e+22
3.21881092604269e+22
3.21881104130755e+22
3.21881115744934e+22
3.21881127448372e+22
3.21881139238562e+22
3.21881151114144e+22
3.2188116308063e+22
3.21881175114637e+22
3.21881187271761e+22
3.21881199414431e+22
3.21881211539533e+22
3.21881223826808e+22
3.21881236201014e+22
3.21881248655986e+22
3.2188126113777e+22
3.21881273608208e+22
3.21881286119165e+22
3.21881298551835e+22
3.2188131105884e+22
3.21881323847509e+22
3.21881336285653e+22
3.21881348504059e+22
3.21881361054149e+22
3.21881373254163e+22
3.21881384923256e+22
3.21881396814132e+22
3.21881408180305e+22
3.21881418756089e+22
3.21881429447866e+22
3.21881439253787e+22
3.2188144817496e+22
3.21881456884646e+22
3.21881464745301e+22
3.21881471478715e+22
3.21881477810391e+22
3.21881483400528e+22
3.21881488167779e+22
3.21881491955126e+22
3.21881495570117e+22
3.21881498140198e+22
3.21881499911403e+22
3.21881500793819e+22
3.21881501594808e+22
3.21881502209452e+22
3.21881502767065e+22
3.218815027846e+22
3.21881502812019e+22
3.21881502830364e+22
3.21881503078679e+22
3.21881503629096e+22
3.21881504305597e+22
3.21881505065169e+22
3.21881505772721e+22
3.21881506413152e+22
3.21881506978284e+22
3.21881507479018e+22
3.21881507919632e+22
3.21881508319426e+22
3.2188150889693e+22
3.21881509417816e+22
3.21881509905073e+22
3.21881510340448e+22
3.21881510752288e+22
3.21881511120045e+22
3.21881511472059e+22
3.21881511785323e+22
3.21881512089891e+22
3.21881512361958e+22
3.218815126298e+22
3.21881512877527e+22
3.21881513268726e+22
3.218815136219e+22
3.21881513980145e+22
3.21881514301706e+22
3.21881514631051e+22
3.21881514924416e+22
3.21881515227963e+22
3.21881515495823e+22
3.21881515775824e+22
3.21881516020502e+22
3.21881516278989e+22
3.21881516502288e+22
3.21881516740862e+22
3.21881516944062e+22
3.21881517163702e+22
3.21881517347756e+22
3.21881517561192e+22
3.21881517829659e+22
3.21881518114132e+22
3.2188151836453e+22
3.21881518632182e+22
3.21881518865381e+22
3.21881519117493e+22
3.21881519334644e+22
3.21881519572e+22
3.21881519774326e+22
3.21881519997896e+22
3.2188152018616e+22
3.21881520396917e+22
3.21881520571947e+22
3.2188152077044e+22
3.21881520932987e+22
3.21881521120055e+22
3.21881521270557e+22
3.21881521446704e+22
3.21881521585784e+22
3.21881521751616e+22
3.2188152187974e+22
3.21881522035961e+22
3.21881522153853e+22
3.21881522310955e+22
3.21881522484619e+22
3.21881522688161e+22
3.21881522852016e+22
3.21881523046902e+22
3.21881523201199e+22
3.21881523387814e+22
3.2188152353313e+22
3.21881523711983e+22
3.2188152384866e+22
3.21881524020117e+22
3.21881524148691e+22
3.21881524313287e+22
3.21881524434195e+22
3.21881524592296e+22
3.21881524705909e+22
3.21881524858304e+22
3.21881524967222e+22
3.21881525116557e+22
3.21881525219964e+22
3.21881525364101e+22
3.218815254615e+22
3.21881525600474e+22
3.21881525692046e+22
3.21881525829803e+22
3.21881525920686e+22
3.21881526055342e+22
3.21881526140926e+22
3.21881526276498e+22
3.2188152636328e+22
3.21881526498033e+22
3.2188152658732e+22
3.21881526728734e+22
3.21881526825258e+22
3.21881527017637e+22
)
;

boundaryField
{
    electrode
    {
        type            zeroGradient;
    }
    ground
    {
        type            zeroGradient;
    }
    otherfaces
    {
        type            empty;
    }
}


// ************************************************************************* //
