/*--------------------------------*- C++ -*----------------------------------*\
| =========                 |                                                 |
| \\      /  F ield         | foam-extend: Open Source CFD                    |
|  \\    /   O peration     | Version:     4.0                                |
|   \\  /    A nd           | Web:         http://www.foam-extend.org         |
|    \\/     M anipulation  |                                                 |
\*---------------------------------------------------------------------------*/
FoamFile
{
    version     2.0;
    format      ascii;
    class       volScalarField;
    location    "5.9e-06";
    object      Arp1;
}
// * * * * * * * * * * * * * * * * * * * * * * * * * * * * * * * * * * * * * //

dimensions      [0 0 0 1 0 0 0];

internalField   nonuniform List<scalar> 
300
(
6.28117053329454e+16
6.28541241702374e+16
6.28282656785039e+16
6.28233614287317e+16
6.28139937254039e+16
6.28007156380867e+16
6.27850822299156e+16
6.2766434400956e+16
6.27448702961511e+16
6.27204029958822e+16
6.26930157770379e+16
6.26627097109407e+16
6.26294817589941e+16
6.2593328669203e+16
6.2554247353272e+16
6.25122344273744e+16
6.24672863403292e+16
6.24193993607256e+16
6.23685695669303e+16
6.23147928472229e+16
6.22580648954082e+16
6.21983812078107e+16
6.21357370797219e+16
6.20701276014962e+16
6.20015476552229e+16
6.1929991911142e+16
6.18554548233911e+16
6.17779306267772e+16
6.16974133330043e+16
6.16138967266787e+16
6.15273743617375e+16
6.14378395581961e+16
6.13452853980865e+16
6.12497047221644e+16
6.11510901269062e+16
6.10494339607276e+16
6.0944728321223e+16
6.08369650524542e+16
6.07261357416665e+16
6.06122317171657e+16
6.04952440461673e+16
6.03751635321763e+16
6.0251980713646e+16
6.01256858624683e+16
5.99962689823893e+16
5.98637198084388e+16
5.9728027806426e+16
5.95891821724466e+16
5.94471718331502e+16
5.93019854464178e+16
5.91536114026248e+16
5.90020378245483e+16
5.88472525728065e+16
5.86892432460408e+16
5.85279971833583e+16
5.83635014564947e+16
5.81957428669528e+16
5.80247079856406e+16
5.78503832790116e+16
5.76727551478261e+16
5.74918094096786e+16
5.73075300120647e+16
5.7119899379335e+16
5.69289051037224e+16
5.67345495717739e+16
5.65368124692543e+16
5.63356596470092e+16
5.61310762880363e+16
5.5923044624446e+16
5.57115462333741e+16
5.54965625090109e+16
5.52780747355144e+16
5.50560641228986e+16
5.48305118226288e+16
5.46013989376241e+16
5.43687065323104e+16
5.41324156425058e+16
5.38925072855706e+16
5.36489624716034e+16
5.34017622154209e+16
5.31508875485713e+16
5.28963195322943e+16
5.26380392713792e+16
5.23760279278362e+16
5.21102667355449e+16
5.18407370155797e+16
5.15674201913277e+16
5.12902978045059e+16
5.10093515316322e+16
5.07245632002675e+16
5.04359148060667e+16
5.01433885300705e+16
4.98469667558938e+16
4.9546632087112e+16
4.92423673653698e+16
4.89341556877256e+16
4.86219804245777e+16
4.83058252377067e+16
4.79856740977336e+16
4.76615113019489e+16
4.73333214921235e+16
4.70010896717288e+16
4.66648012231046e+16
4.63244419248646e+16
4.59799979683832e+16
4.56314559741871e+16
4.52788030084081e+16
4.49220265983586e+16
4.45611147477727e+16
4.41960559522036e+16
4.38268392132731e+16
4.34534540527341e+16
4.30758905264981e+16
4.26941392375949e+16
4.23081913489141e+16
4.19180385958979e+16
4.15236732982854e+16
4.11250883717017e+16
4.07222773392989e+16
4.03152343425295e+16
3.9903954152297e+16
3.94884321799743e+16
3.90686644882773e+16
3.86446478026695e+16
3.82163795233211e+16
3.77838577375504e+16
3.73470812331584e+16
3.69060495140226e+16
3.64607628159071e+16
3.6011222126424e+16
3.55574292059233e+16
3.50993866139216e+16
3.46370977391395e+16
3.41705668308983e+16
3.36997990501597e+16
3.32248005088435e+16
3.27455783376814e+16
3.22621407345238e+16
3.17744971197891e+16
3.12826581919072e+16
3.07866357800514e+16
3.02864437143436e+16
2.97820979345823e+16
2.92736141479971e+16
2.87610106792677e+16
2.82443182966126e+16
2.77235548140348e+16
2.71987127223437e+16
2.66699090917143e+16
2.61371744002788e+16
2.56004985512278e+16
2.50599332021108e+16
2.45155246106475e+16
2.39673566194891e+16
2.34154525094122e+16
2.28599857365378e+16
2.23009160041327e+16
2.17385565748988e+16
2.1172823771974e+16
2.06040712543752e+16
2.00325337766595e+16
1.94577424909155e+16
1.88821534702895e+16
1.83002894652083e+16
1.7726094477897e+16
1.71603384962992e+16
1.65855874374434e+16
1.60098003419251e+16
1.54339182864871e+16
1.48636111611225e+16
1.43029860453128e+16
1.37472162149692e+16
1.32084360799242e+16
1.26713602954014e+16
1.21146502201835e+16
1.16003272512204e+16
1.11138257450726e+16
1.05979027934797e+16
1.01175219128726e+16
9.68685689788006e+15
9.22593752397031e+15
8.8036747006284e+15
8.4403452605121e+15
8.03858274773065e+15
7.69166128577576e+15
7.3930078595047e+15
7.0694779242509e+15
6.78012999812308e+15
6.54968701501289e+15
6.30431352073463e+15
6.07849163762613e+15
5.88244861617743e+15
5.73505293572525e+15
5.55551610636911e+15
5.41058402593563e+15
5.27433188306771e+15
5.1883631854969e+15
5.10755622611998e+15
5.04621200830844e+15
4.99119127640289e+15
4.9916652241414e+15
5.00348263418833e+15
5.03352458282072e+15
5.05113452667467e+15
5.04012536383998e+15
5.01053749416688e+15
4.96450495431757e+15
4.91523955509845e+15
4.86596565349423e+15
4.81937953117084e+15
4.77614671710321e+15
4.73735928714883e+15
4.70110299191229e+15
4.64646294697151e+15
4.59754249241804e+15
4.55176869305343e+15
4.51121517481142e+15
4.47319707556314e+15
4.4398929798922e+15
4.40853945010418e+15
4.3814711711168e+15
4.35585970066742e+15
4.33416862267886e+15
4.31348468421152e+15
4.29530685768708e+15
4.26311367732156e+15
4.23500980437159e+15
4.20666060998952e+15
4.18220071662415e+15
4.15713666675871e+15
4.13582121595033e+15
4.11359971094013e+15
4.09501659851362e+15
4.0752647984521e+15
4.0590643693732e+15
4.04146105707328e+15
4.02734772090245e+15
4.01163906073898e+15
3.99939300090782e+15
3.98540191188701e+15
3.97485385059132e+15
3.96124833493875e+15
3.94199584557718e+15
3.92100484731193e+15
3.90327034356225e+15
3.88363841789551e+15
3.86728915076661e+15
3.84887531660919e+15
3.83377988990867e+15
3.8164931201755e+15
3.80253085446703e+15
3.7862697711527e+15
3.77336804622444e+15
3.75804138377013e+15
3.74611932733488e+15
3.73168464106369e+15
3.72067979192006e+15
3.70707366355532e+15
3.69696649241977e+15
3.68414516431467e+15
3.6748755409886e+15
3.66278885412762e+15
3.65432889286119e+15
3.64292400317467e+15
3.63521969987495e+15
3.62346636494189e+15
3.60993729429998e+15
3.59330451302111e+15
3.5805357405819e+15
3.5645541309662e+15
3.55253010235821e+15
3.53716846502962e+15
3.52584427009994e+15
3.51106854878435e+15
3.5004247473648e+15
3.48621899048382e+15
3.47621956407684e+15
3.46253623882122e+15
3.45313837013193e+15
3.43994440787325e+15
3.43112397334241e+15
3.41839072600278e+15
3.41011212882068e+15
3.39780557426747e+15
3.39002920108671e+15
3.37812721952447e+15
3.37083813315416e+15
3.35932869023404e+15
3.35250674495414e+15
3.34136199569394e+15
3.33497171394595e+15
3.32413845411632e+15
3.31814212025963e+15
3.30759914526518e+15
3.30197118460111e+15
3.29168034322829e+15
3.28640676427224e+15
3.27632360453654e+15
3.27133667556798e+15
3.25776357274446e+15
)
;

boundaryField
{
    electrode
    {
        type            driftDiffusionPositiveIonDensity;
        seec            0;
        fieldName       Arp1;
        value           uniform 6.26313960052741e+16;
    }
    ground
    {
        type            driftDiffusionPositiveIonDensity;
        seec            0;
        fieldName       Arp1;
        value           uniform 3.25776357274446e+15;
    }
    otherfaces
    {
        type            empty;
    }
}


// ************************************************************************* //
