/*--------------------------------*- C++ -*----------------------------------*\
| =========                 |                                                 |
| \\      /  F ield         | foam-extend: Open Source CFD                    |
|  \\    /   O peration     | Version:     4.0                                |
|   \\  /    A nd           | Web:         http://www.foam-extend.org         |
|    \\/     M anipulation  |                                                 |
\*---------------------------------------------------------------------------*/
FoamFile
{
    version     2.0;
    format      ascii;
    class       volVectorField;
    location    "5.9e-06";
    object      E;
}
// * * * * * * * * * * * * * * * * * * * * * * * * * * * * * * * * * * * * * //

dimensions      [0 0 0 1 0 0 0];

internalField   nonuniform List<vector> 
300
(
(5.41076002752439 -0 -0)
(10.7172179381054 -0 -0)
(18.9361802030441 -0 -0)
(26.523974716586 -0 -0)
(34.0642495086356 -0 -0)
(41.6710414632986 -0 -0)
(49.2703028459612 -0 -0)
(56.883615284774 -0 -0)
(64.5116162739663 -0 -0)
(72.1545690071664 -0 -0)
(79.8145844499427 -0 -0)
(87.4931516819952 -0 -0)
(95.1918526420635 -0 -0)
(102.91231078152 -0 -0)
(110.656153019807 -0 -0)
(118.425029599357 -0 -0)
(126.220612099712 -0 -0)
(134.044594474194 -0 -0)
(141.898694794308 -0 -0)
(149.784656540416 -0 -0)
(157.704249992287 -0 -0)
(165.659273511366 -0 -0)
(173.651555031292 -0 -0)
(181.682953340203 -0 -0)
(189.755359508717 -0 -0)
(197.870698226406 -0 -0)
(206.030929175706 -0 -0)
(214.238048447393 -0 -0)
(222.494089885389 -0 -0)
(230.80112647317 -0 -0)
(239.161271736757 -0 -0)
(247.576681135181 -0 -0)
(256.049553401552 -0 -0)
(264.582132032703 -0 -0)
(273.176706630463 -0 -0)
(281.835614338062 -0 -0)
(290.561241300698 -0 -0)
(299.356024056835 -0 -0)
(308.222451012062 -0 -0)
(317.163063903756 -0 -0)
(326.180459296544 -0 -0)
(335.277290056148 -0 -0)
(344.45626695554 -0 -0)
(353.720160091373 -0 -0)
(363.071800561811 -0 -0)
(372.51408206433 -0 -0)
(382.049962491172 -0 -0)
(391.682465661385 -0 -0)
(401.414682997577 -0 -0)
(411.249775283868 -0 -0)
(421.190974531126 -0 -0)
(431.241585836836 -0 -0)
(441.404989430428 -0 -0)
(451.684642904838 -0 -0)
(462.084082926462 -0 -0)
(472.606925810877 -0 -0)
(483.256868084916 -0 -0)
(494.037694012733 -0 -0)
(504.953297737654 -0 -0)
(516.007699440152 -0 -0)
(527.204973668811 -0 -0)
(538.549033043847 -0 -0)
(550.043582235654 -0 -0)
(561.693121772843 -0 -0)
(573.504805503772 -0 -0)
(585.487330488689 -0 -0)
(597.647532933689 -0 -0)
(609.990421224104 -0 -0)
(622.520850406041 -0 -0)
(635.243814521628 -0 -0)
(648.164448588267 -0 -0)
(661.288041738168 -0 -0)
(674.620044302587 -0 -0)
(688.1660735715 -0 -0)
(701.931919543168 -0 -0)
(715.92355109652 -0 -0)
(730.147122442047 -0 -0)
(744.608980062025 -0 -0)
(759.315670190238 -0 -0)
(774.273946719924 -0 -0)
(789.490779693012 -0 -0)
(804.973364361498 -0 -0)
(820.729130898539 -0 -0)
(836.765754740147 -0 -0)
(853.091167665826 -0 -0)
(869.713569645423 -0 -0)
(886.641441474976 -0 -0)
(903.883558296769 -0 -0)
(921.449004094391 -0 -0)
(939.34718707204 -0 -0)
(957.587856276296 -0 -0)
(976.181119188657 -0 -0)
(995.137460627168 -0 -0)
(1014.46776300678 -0 -0)
(1034.18332794543 -0 -0)
(1054.29589936656 -0 -0)
(1074.81768836388 -0 -0)
(1095.76139966627 -0 -0)
(1117.14026011106 -0 -0)
(1138.96804911234 -0 -0)
(1161.25913130043 -0 -0)
(1184.02849158968 -0 -0)
(1207.29177279522 -0 -0)
(1231.06531602055 -0 -0)
(1255.36620399781 -0 -0)
(1280.21230782633 -0 -0)
(1305.62233706087 -0 -0)
(1331.61589380994 -0 -0)
(1358.21353084444 -0 -0)
(1385.43681436315 -0 -0)
(1413.30839170131 -0 -0)
(1441.85206428105 -0 -0)
(1471.09286666417 -0 -0)
(1501.05715187186 -0 -0)
(1531.77268385639 -0 -0)
(1563.26873762516 -0 -0)
(1595.57620787054 -0 -0)
(1628.7277269296 -0 -0)
(1662.75779296088 -0 -0)
(1697.70290939525 -0 -0)
(1733.60173692258 -0 -0)
(1770.49525915094 -0 -0)
(1808.42696354141 -0 -0)
(1847.44303918677 -0 -0)
(1887.59259343408 -0 -0)
(1928.92788920006 -0 -0)
(1971.50460556922 -0 -0)
(2015.3821242912 -0 -0)
(2060.62384506149 -0 -0)
(2107.29753339657 -0 -0)
(2155.47570454428 -0 -0)
(2205.23604841113 -0 -0)
(2256.66190030476 -0 -0)
(2309.84276322574 -0 -0)
(2364.87488912028 -0 -0)
(2421.86192636347 -0 -0)
(2480.9156415973 -0 -0)
(2542.15672656377 -0 -0)
(2605.71570834562 -0 -0)
(2671.73396645089 -0 -0)
(2740.36485042757 -0 -0)
(2811.77501046285 -0 -0)
(2886.14592028416 -0 -0)
(2963.67527511698 -0 -0)
(3044.57888449128 -0 -0)
(3129.09400251102 -0 -0)
(3217.48011574868 -0 -0)
(3310.01849693566 -0 -0)
(3407.02850108114 -0 -0)
(3508.87444274144 -0 -0)
(3615.95130074678 -0 -0)
(3728.68782073576 -0 -0)
(3847.55933941946 -0 -0)
(3973.09735324548 -0 -0)
(4105.89367175255 -0 -0)
(4246.61574056394 -0 -0)
(4396.00832415519 -0 -0)
(4554.91770834283 -0 -0)
(4724.29580318144 -0 -0)
(4905.22352645155 -0 -0)
(5098.94674847225 -0 -0)
(5306.84024317217 -0 -0)
(5530.64137121862 -0 -0)
(5772.07484272774 -0 -0)
(6034.95429245049 -0 -0)
(6325.70517161477 -0 -0)
(6648.22160567212 -0 -0)
(7004.67109791353 -0 -0)
(7399.01684238478 -0 -0)
(7837.44145192848 -0 -0)
(8328.59445714714 -0 -0)
(8881.88268884893 -0 -0)
(9508.36915774802 -0 -0)
(10217.7490254773 -0 -0)
(11013.1233319901 -0 -0)
(11906.0941629032 -0 -0)
(12917.1543197747 -0 -0)
(14051.8590807354 -0 -0)
(15316.0366161891 -0 -0)
(16730.1543332804 -0 -0)
(18298.9231642498 -0 -0)
(20021.8760587919 -0 -0)
(21914.5825499828 -0 -0)
(23971.7378033643 -0 -0)
(26183.0460433007 -0 -0)
(28554.83553815 -0 -0)
(31070.3577366221 -0 -0)
(33705.5167914891 -0 -0)
(36455.8332736671 -0 -0)
(39302.5958025794 -0 -0)
(42215.6717543179 -0 -0)
(45177.5642876601 -0 -0)
(48181.825567601 -0 -0)
(51206.9155994613 -0 -0)
(54228.5452507812 -0 -0)
(57239.2379483169 -0 -0)
(60239.1662685553 -0 -0)
(63231.6150156362 -0 -0)
(66216.712217171 -0 -0)
(69187.6610751666 -0 -0)
(72155.8977878406 -0 -0)
(75144.3447830311 -0 -0)
(78155.4829715684 -0 -0)
(81185.7800577485 -0 -0)
(84222.1766292563 -0 -0)
(87249.0327178084 -0 -0)
(90254.7936436878 -0 -0)
(93232.7665113206 -0 -0)
(96181.4702766248 -0 -0)
(99101.4773719596 -0 -0)
(101994.509303363 -0 -0)
(104862.869009834 -0 -0)
(107708.635729255 -0 -0)
(110527.013483162 -0 -0)
(113314.172902244 -0 -0)
(116072.782168159 -0 -0)
(118805.363112032 -0 -0)
(121514.250923878 -0 -0)
(124201.627533514 -0 -0)
(126869.503765373 -0 -0)
(129519.760210515 -0 -0)
(132154.128481492 -0 -0)
(134774.232084712 -0 -0)
(137381.557661356 -0 -0)
(139977.165697191 -0 -0)
(142557.58626707 -0 -0)
(145119.82688658 -0 -0)
(147665.047814643 -0 -0)
(150194.348994122 -0 -0)
(152708.722090771 -0 -0)
(155209.11626117 -0 -0)
(157696.389546342 -0 -0)
(160171.366666202 -0 -0)
(162634.793060728 -0 -0)
(165087.387841142 -0 -0)
(167529.799413888 -0 -0)
(169962.657585014 -0 -0)
(172386.534046605 -0 -0)
(174801.992174495 -0 -0)
(177209.550068305 -0 -0)
(179609.71993151 -0 -0)
(182002.618139986 -0 -0)
(184385.619506031 -0 -0)
(186756.496638395 -0 -0)
(189115.707293899 -0 -0)
(191463.661201222 -0 -0)
(193800.775970604 -0 -0)
(196127.418775006 -0 -0)
(198443.96753107 -0 -0)
(200750.76191595 -0 -0)
(203048.143421948 -0 -0)
(205336.421109982 -0 -0)
(207615.914545285 -0 -0)
(209886.905256281 -0 -0)
(212149.688354103 -0 -0)
(214404.532718257 -0 -0)
(216651.714437016 -0 -0)
(218891.483107959 -0 -0)
(221124.109370321 -0 -0)
(223349.829438817 -0 -0)
(225568.89567756 -0 -0)
(227781.529348051 -0 -0)
(229987.974362575 -0 -0)
(232188.436079086 -0 -0)
(234383.142123659 -0 -0)
(236571.987119532 -0 -0)
(238753.214173751 -0 -0)
(240925.351501923 -0 -0)
(243088.628147919 -0 -0)
(245243.240243034 -0 -0)
(247389.412195339 -0 -0)
(249527.330789586 -0 -0)
(251657.206847693 -0 -0)
(253779.216896437 -0 -0)
(255893.565963423 -0 -0)
(258000.425762892 -0 -0)
(260099.990466731 -0 -0)
(262192.4174758 -0 -0)
(264277.888052217 -0 -0)
(266356.549627757 -0 -0)
(268428.576193985 -0 -0)
(270494.106580308 -0 -0)
(272553.303993066 -0 -0)
(274606.296986193 -0 -0)
(276653.236976136 -0 -0)
(278694.245759761 -0 -0)
(280729.470200717 -0 -0)
(282759.028645975 -0 -0)
(284783.061762297 -0 -0)
(286801.679414486 -0 -0)
(288815.011756793 -0 -0)
(290823.152510565 -0 -0)
(292826.220345152 -0 -0)
(294824.302731422 -0 -0)
(296817.510452035 -0 -0)
(298805.919255341 -0 -0)
(300789.635211015 -0 -0)
(302768.720304023 -0 -0)
(304743.267567892 -0 -0)
(306712.217483555 -0 -0)
)
;

boundaryField
{
    electrode
    {
        type            calculated;
        value           uniform (4.46551109007488 -0 -0);
    }
    ground
    {
        type            calculated;
        value           uniform (307694.642407599 -0 -0);
    }
    otherfaces
    {
        type            empty;
    }
}


// ************************************************************************* //
