/*--------------------------------*- C++ -*----------------------------------*\
| =========                 |                                                 |
| \\      /  F ield         | foam-extend: Open Source CFD                    |
|  \\    /   O peration     | Version:     4.0                                |
|   \\  /    A nd           | Web:         http://www.foam-extend.org         |
|    \\/     M anipulation  |                                                 |
\*---------------------------------------------------------------------------*/
FoamFile
{
    version     2.0;
    format      ascii;
    class       volScalarField;
    location    "5.9e-06";
    object      electron;
}
// * * * * * * * * * * * * * * * * * * * * * * * * * * * * * * * * * * * * * //

dimensions      [0 0 0 1 0 0 0];

internalField   nonuniform List<scalar> 
300
(
6.28237235088487e+16
6.28221686363112e+16
6.28180556920454e+16
6.2811001002868e+16
6.28010634758722e+16
6.2788219937094e+16
6.27724653203611e+16
6.27537991965313e+16
6.27322187723932e+16
6.27077217190622e+16
6.26803055415236e+16
6.26499675318207e+16
6.26167048258103e+16
6.25805143813797e+16
6.25413929776268e+16
6.24993372130619e+16
6.24543435022953e+16
6.2406408073154e+16
6.23555269635847e+16
6.23016960184184e+16
6.22449108860319e+16
6.21851670149205e+16
6.21224596501815e+16
6.20567838299221e+16
6.19881343816134e+16
6.19165059183983e+16
6.18418928353763e+16
6.17642893058686e+16
6.16836892776853e+16
6.16000864694155e+16
6.15134743667493e+16
6.14238462188504e+16
6.13311950348055e+16
6.12355135801574e+16
6.1136794373541e+16
6.10350296834511e+16
6.09302115251455e+16
6.08223316577126e+16
6.07113815813242e+16
6.05973525346848e+16
6.04802354927004e+16
6.03600211643876e+16
6.02366999910336e+16
6.01102621446406e+16
5.99806975266707e+16
5.98479957670917e+16
5.97121462237649e+16
5.95731379821821e+16
5.94309598555698e+16
5.92856003853876e+16
5.91370478422214e+16
5.89852902270881e+16
5.8830315273161e+16
5.86721104479045e+16
5.85106629557113e+16
5.83459597412751e+16
5.81779874937747e+16
5.80067326508436e+16
5.78321813997997e+16
5.76543196763193e+16
5.74731331739496e+16
5.72886073904911e+16
5.71007276935455e+16
5.69094792378952e+16
5.6714846490211e+16
5.65168126689249e+16
5.63153598372049e+16
5.61104694971695e+16
5.59021229475351e+16
5.56903013672263e+16
5.54749858428799e+16
5.52561573808505e+16
5.50337969151798e+16
5.48078853149966e+16
5.457840339228e+16
5.43453319102144e+16
5.41086515921857e+16
5.38683431314234e+16
5.36243872012554e+16
5.33767644659522e+16
5.31254555921406e+16
5.28704412607508e+16
5.26117021794647e+16
5.23492190956325e+16
5.208297280962e+16
5.18129441885471e+16
5.15391141803789e+16
5.12614638283282e+16
5.09799742855199e+16
5.06946268298806e+16
5.04054028791973e+16
5.01122840062978e+16
4.98152519543133e+16
4.95142886519556e+16
4.92093762287586e+16
4.89004970302407e+16
4.85876336329157e+16
4.82707688590999e+16
4.79498857914589e+16
4.76249677872226e+16
4.72959984920153e+16
4.69629618532321e+16
4.66258421328896e+16
4.62846239198864e+16
4.59392921416083e+16
4.55898320747948e+16
4.5236229355599e+16
4.48784699887637e+16
4.45165403558339e+16
4.41504272223282e+16
4.37801177437736e+16
4.34055994705325e+16
4.30268603513247e+16
4.26438887353495e+16
4.22566733729142e+16
4.18652034144681e+16
4.14694684079401e+16
4.10694582942642e+16
4.06651634009807e+16
4.02565744337953e+16
3.98436824659624e+16
3.94264789253596e+16
3.90049555791142e+16
3.85791045156284e+16
3.81489181238337e+16
3.77143890695071e+16
3.72755102684628e+16
3.68322748564127e+16
3.63846761552892e+16
3.59327076357866e+16
3.54763628758726e+16
3.50156355149982e+16
3.45505192036951e+16
3.40810075482617e+16
3.36070940501712e+16
3.31287720397859e+16
3.26460346040239e+16
3.21588745076275e+16
3.16672841072081e+16
3.1171255257329e+16
3.06707792102826e+16
3.01658465066118e+16
2.96564468492127e+16
2.91425689786884e+16
2.86242005555489e+16
2.81013279563036e+16
2.75739360613921e+16
2.70420083250927e+16
2.65055261761682e+16
2.59644674198119e+16
2.54188057765715e+16
2.48685117299205e+16
2.43135529732502e+16
2.37538942053256e+16
2.31894969640218e+16
2.26203192708158e+16
2.20463154726425e+16
2.14674359831959e+16
2.0883626960179e+16
2.02948305185913e+16
1.97009833408272e+16
1.91020183506017e+16
1.84978558071317e+16
1.78884010435755e+16
1.7273480037736e+16
1.66526889014439e+16
1.60254666636539e+16
1.53913339172836e+16
1.47499370610242e+16
1.41009598166522e+16
1.34440422291927e+16
1.27787911257569e+16
1.21048602373953e+16
1.142210128201e+16
1.07309259858001e+16
1.00323620203692e+16
9.327717035268e+15
8.61889264967854e+15
7.90886264099466e+15
7.20138189405297e+15
6.50099609144002e+15
5.81329568480571e+15
5.14449101370388e+15
4.50119563540942e+15
3.89032061495072e+15
3.31841817146805e+15
2.79126714580681e+15
2.31361424090948e+15
1.88864346472933e+15
1.51772117792918e+15
1.20044028054396e+15
934660431698197
716736186226072
541669484812855
403837305099267
297614398632423
217240527565846
157309619849176
112364149714020
78244102428584.8
53388007931250.7
35606708631095.9
22789129567004.2
14013376238254.5
8464674843106.2
5221535172920.46
3419765194437.47
2430944547804.46
1879906418224.94
1564794142817.81
1380200305218.96
1270563809959.39
1205500194174.61
1167705154473.82
1146795005093.25
1136362285670.04
1132144333984.34
1131263796637.01
1131971473836.45
1133121146739.03
1133793399232.29
1133462587191.7
1131732134151.03
1128380935018.27
1123295791158.79
1116441778427.95
1107841764857.4
1097559746956.83
1085688260625.35
1072339754756.59
1057639872749.26
1041722233149.08
1024724310914.62
1006784189549.02
988038010289.381
968617985781.574
948650884362.821
928256861836.742
907548697585.305
886630607012.356
865598759609.949
844529060518.578
823492420256.699
802566051015.532
781818978989.847
761312614139.16
741100320303.17
721227903350.638
701734074626.044
682650980718.19
664004738239.442
645815972350.626
628100337990.059
610869111893.219
594129666599.597
577887534535.014
562142331012.646
546887860236.744
532120576815.842
517836289908.608
504027074973.732
490683719828.642
477795805838.93
465352073178.314
453340631796.003
441749190530.827
430565392479.006
419777032273.875
409371729161.63
399336670453.307
389654800234.279
380302367659.771
371260879455.483
362519919026.233
354070027821.438
345902659228.755
338009800940.098
330384029688.467
323018551550.233
315907279018.794
309044853497.697
302426735190.556
296047996634.403
289902811852.143
283957677542.187
278185987778.524
272597898563.966
267207271121.422
262029764840.824
257068857199.029
252293368420.156
247700403434.822
243345035530.24
239238882957.935
235405490893.212
231938598651.654
228974303046.762
226790767460.464
225866538510.562
227030955144.216
)
;

boundaryField
{
    electrode
    {
        type            driftDiffusionElectronDensity;
        seec            0.05;
        Edepend         1;
        field_emission  0;
        field_enhancement_factor 55;
        work_function   5;
        value           uniform 6.28237235088488e+16;
    }
    ground
    {
        type            driftDiffusionElectronDensity;
        seec            0.05;
        Edepend         1;
        field_emission  0;
        field_enhancement_factor 55;
        work_function   5;
        value           uniform 229250598058.565;
    }
    otherfaces
    {
        type            empty;
    }
}


// ************************************************************************* //
