/*--------------------------------*- C++ -*----------------------------------*\
| =========                 |                                                 |
| \\      /  F ield         | foam-extend: Open Source CFD                    |
|  \\    /   O peration     | Version:     4.0                                |
|   \\  /    A nd           | Web:         http://www.foam-extend.org         |
|    \\/     M anipulation  |                                                 |
\*---------------------------------------------------------------------------*/
FoamFile
{
    version     2.0;
    format      ascii;
    class       volVectorField;
    location    "5.9e-06";
    object      J_Arp1;
}
// * * * * * * * * * * * * * * * * * * * * * * * * * * * * * * * * * * * * * //

dimensions      [1 -1 -1 0 0 0 0];

internalField   nonuniform List<vector> 
300
(
(1.85225106873826e+16 -0 -0)
(6.70920472677143e+16 -0 -0)
(1.20194897343172e+17 -0 -0)
(1.67087016989333e+17 -0 -0)
(2.14686195091561e+17 -0 -0)
(2.62574332302329e+17 -0 -0)
(3.10332613642692e+17 -0 -0)
(3.58143591991736e+17 -0 -0)
(4.05978826261132e+17 -0 -0)
(4.53837678000542e+17 -0 -0)
(5.01726843435418e+17 -0 -0)
(5.49648181544795e+17 -0 -0)
(5.9760473410395e+17 -0 -0)
(6.45599560354523e+17 -0 -0)
(6.93635666257279e+17 -0 -0)
(7.41716127890719e+17 -0 -0)
(7.89844056736598e+17 -0 -0)
(8.38022605010716e+17 -0 -0)
(8.86254969356162e+17 -0 -0)
(9.34544391924387e+17 -0 -0)
(9.82894162155435e+17 -0 -0)
(1.03130761753753e+18 -0 -0)
(1.07978814548854e+18 -0 -0)
(1.12833918366288e+18 -0 -0)
(1.17696422091659e+18 -0 -0)
(1.22566679749362e+18 -0 -0)
(1.2744505051113e+18 -0 -0)
(1.32331898703403e+18 -0 -0)
(1.37227593745949e+18 -0 -0)
(1.42132510081476e+18 -0 -0)
(1.47047027082639e+18 -0 -0)
(1.51971528924291e+18 -0 -0)
(1.56906404388392e+18 -0 -0)
(1.61852046721789e+18 -0 -0)
(1.66808853374453e+18 -0 -0)
(1.71777225753356e+18 -0 -0)
(1.76757568951641e+18 -0 -0)
(1.81750291402561e+18 -0 -0)
(1.86755804536184e+18 -0 -0)
(1.91774522389291e+18 -0 -0)
(1.96806861196299e+18 -0 -0)
(2.01853238915611e+18 -0 -0)
(2.0691407479111e+18 -0 -0)
(2.11989788757584e+18 -0 -0)
(2.17080800947395e+18 -0 -0)
(2.22187531101153e+18 -0 -0)
(2.27310397928855e+18 -0 -0)
(2.32449818494648e+18 -0 -0)
(2.3760620751425e+18 -0 -0)
(2.42779976644822e+18 -0 -0)
(2.47971533786989e+18 -0 -0)
(2.53181282297221e+18 -0 -0)
(2.58409620282157e+18 -0 -0)
(2.63656939924428e+18 -0 -0)
(2.68923626467389e+18 -0 -0)
(2.74210056426806e+18 -0 -0)
(2.79516595554626e+18 -0 -0)
(2.84843600590752e+18 -0 -0)
(2.90191430094729e+18 -0 -0)
(2.95560453681932e+18 -0 -0)
(3.00951011425103e+18 -0 -0)
(3.06363280348461e+18 -0 -0)
(3.11797219278673e+18 -0 -0)
(3.17253127534039e+18 -0 -0)
(3.22732888413952e+18 -0 -0)
(3.28239121462648e+18 -0 -0)
(3.33773064290799e+18 -0 -0)
(3.39334919374944e+18 -0 -0)
(3.44924776099425e+18 -0 -0)
(3.50542694386337e+18 -0 -0)
(3.56188713298199e+18 -0 -0)
(3.61862856415076e+18 -0 -0)
(3.67565132051568e+18 -0 -0)
(3.7329553233589e+18 -0 -0)
(3.79054031990703e+18 -0 -0)
(3.84840587130962e+18 -0 -0)
(3.90655134009299e+18 -0 -0)
(3.96497587807914e+18 -0 -0)
(4.02367841497426e+18 -0 -0)
(4.08265764694411e+18 -0 -0)
(4.14191202572535e+18 -0 -0)
(4.2014397480966e+18 -0 -0)
(4.26123874600574e+18 -0 -0)
(4.32130667693116e+18 -0 -0)
(4.38164091488306e+18 -0 -0)
(4.44223854201264e+18 -0 -0)
(4.50309634057501e+18 -0 -0)
(4.56421078553714e+18 -0 -0)
(4.62557803802845e+18 -0 -0)
(4.68719393876568e+18 -0 -0)
(4.74905400296923e+18 -0 -0)
(4.81115341508395e+18 -0 -0)
(4.87348702450981e+18 -0 -0)
(4.93604934214328e+18 -0 -0)
(4.99883453733691e+18 -0 -0)
(5.06183643533974e+18 -0 -0)
(5.12504851602831e+18 -0 -0)
(5.18846391262364e+18 -0 -0)
(5.25207541155733e+18 -0 -0)
(5.31587545282302e+18 -0 -0)
(5.37985613091783e+18 -0 -0)
(5.44400919664811e+18 -0 -0)
(5.50832605949662e+18 -0 -0)
(5.57279779070803e+18 -0 -0)
(5.63741512672868e+18 -0 -0)
(5.70216847388487e+18 -0 -0)
(5.76704791295717e+18 -0 -0)
(5.83204320506584e+18 -0 -0)
(5.89714379741774e+18 -0 -0)
(5.9623388302313e+18 -0 -0)
(6.02761714410934e+18 -0 -0)
(6.09296728729295e+18 -0 -0)
(6.15837752438105e+18 -0 -0)
(6.22383584472408e+18 -0 -0)
(6.28932997166213e+18 -0 -0)
(6.3548473719488e+18 -0 -0)
(6.42037526557558e+18 -0 -0)
(6.48590063596038e+18 -0 -0)
(6.55141024036825e+18 -0 -0)
(6.61689062038502e+18 -0 -0)
(6.68232811291202e+18 -0 -0)
(6.74770886093901e+18 -0 -0)
(6.813018824484e+18 -0 -0)
(6.87824379142713e+18 -0 -0)
(6.94336938869449e+18 -0 -0)
(7.00838109277812e+18 -0 -0)
(7.07326424030091e+18 -0 -0)
(7.1380040386096e+18 -0 -0)
(7.20258557526225e+18 -0 -0)
(7.26699382825324e+18 -0 -0)
(7.33121367451206e+18 -0 -0)
(7.3952298989959e+18 -0 -0)
(7.45902720294235e+18 -0 -0)
(7.52259020936116e+18 -0 -0)
(7.58590347259275e+18 -0 -0)
(7.64895148243283e+18 -0 -0)
(7.71171866938921e+18 -0 -0)
(7.77418939773941e+18 -0 -0)
(7.83634799983785e+18 -0 -0)
(7.89817877993492e+18 -0 -0)
(7.95966584431081e+18 -0 -0)
(8.0207933878613e+18 -0 -0)
(8.08154596862942e+18 -0 -0)
(8.1419070428603e+18 -0 -0)
(8.20185927070782e+18 -0 -0)
(8.26139126324713e+18 -0 -0)
(8.32048683532568e+18 -0 -0)
(8.37910681628772e+18 -0 -0)
(8.43727277221044e+18 -0 -0)
(8.49501164468834e+18 -0 -0)
(8.55231230440178e+18 -0 -0)
(8.60916001583126e+18 -0 -0)
(8.66553374814672e+18 -0 -0)
(8.72142764863172e+18 -0 -0)
(8.77680180364886e+18 -0 -0)
(8.83167989949931e+18 -0 -0)
(8.88598168894875e+18 -0 -0)
(8.93977497561617e+18 -0 -0)
(8.99294853681751e+18 -0 -0)
(9.04555002677898e+18 -0 -0)
(9.09763248308574e+18 -0 -0)
(9.14872655242748e+18 -0 -0)
(9.20019006769988e+18 -0 -0)
(9.24857196564391e+18 -0 -0)
(9.30050951719043e+18 -0 -0)
(9.34889293131732e+18 -0 -0)
(9.39703276726835e+18 -0 -0)
(9.4450791459723e+18 -0 -0)
(9.4915277750599e+18 -0 -0)
(9.53846501546613e+18 -0 -0)
(9.58464447443736e+18 -0 -0)
(9.62871909458524e+18 -0 -0)
(9.67653806920459e+18 -0 -0)
(9.7164401943211e+18 -0 -0)
(9.75776482352427e+18 -0 -0)
(9.80376819947193e+18 -0 -0)
(9.84289611417476e+18 -0 -0)
(9.88018986536387e+18 -0 -0)
(9.92235962694881e+18 -0 -0)
(9.95997134837456e+18 -0 -0)
(9.99165001657795e+18 -0 -0)
(1.00291587630538e+19 -0 -0)
(1.00621180972561e+19 -0 -0)
(1.00859513448948e+19 -0 -0)
(1.01239397291351e+19 -0 -0)
(1.01456096144097e+19 -0 -0)
(1.01730549042851e+19 -0 -0)
(1.01926917414531e+19 -0 -0)
(1.02239857278394e+19 -0 -0)
(1.02356205687128e+19 -0 -0)
(1.02668402661314e+19 -0 -0)
(1.02812266236351e+19 -0 -0)
(1.03204610043853e+19 -0 -0)
(1.03326889096315e+19 -0 -0)
(1.03866106405585e+19 -0 -0)
(1.04099099217993e+19 -0 -0)
(1.0491037193691e+19 -0 -0)
(1.05464872912631e+19 -0 -0)
(1.06921265955696e+19 -0 -0)
(1.08369598893298e+19 -0 -0)
(1.10809366299803e+19 -0 -0)
(1.13343998253892e+19 -0 -0)
(1.16142650655743e+19 -0 -0)
(1.18501988195105e+19 -0 -0)
(1.20430034114862e+19 -0 -0)
(1.22171508988191e+19 -0 -0)
(1.23330122377436e+19 -0 -0)
(1.24219059462038e+19 -0 -0)
(1.24924858567354e+19 -0 -0)
(1.25526115610869e+19 -0 -0)
(1.2605180780169e+19 -0 -0)
(1.26542643618994e+19 -0 -0)
(1.27001176760283e+19 -0 -0)
(1.27434141050693e+19 -0 -0)
(1.27890141172221e+19 -0 -0)
(1.2831222380863e+19 -0 -0)
(1.28769123661491e+19 -0 -0)
(1.29194103119085e+19 -0 -0)
(1.2965806276628e+19 -0 -0)
(1.30088083255904e+19 -0 -0)
(1.30559199878864e+19 -0 -0)
(1.30993252976428e+19 -0 -0)
(1.31469043420054e+19 -0 -0)
(1.31903092038078e+19 -0 -0)
(1.32380439730084e+19 -0 -0)
(1.32802227741273e+19 -0 -0)
(1.33284450925759e+19 -0 -0)
(1.33696732344707e+19 -0 -0)
(1.34173628181727e+19 -0 -0)
(1.34575026050889e+19 -0 -0)
(1.35044315637457e+19 -0 -0)
(1.35432945156588e+19 -0 -0)
(1.3589249026613e+19 -0 -0)
(1.36266361198228e+19 -0 -0)
(1.36713924117279e+19 -0 -0)
(1.37070830131866e+19 -0 -0)
(1.37504229985113e+19 -0 -0)
(1.37842675801431e+19 -0 -0)
(1.38260909317697e+19 -0 -0)
(1.38580809432738e+19 -0 -0)
(1.38983614387199e+19 -0 -0)
(1.39285650004064e+19 -0 -0)
(1.3967092789423e+19 -0 -0)
(1.39958516433096e+19 -0 -0)
(1.40328176107445e+19 -0 -0)
(1.4059659782677e+19 -0 -0)
(1.40951952732108e+19 -0 -0)
(1.41201160537259e+19 -0 -0)
(1.41542195550657e+19 -0 -0)
(1.41773320340248e+19 -0 -0)
(1.42099806862022e+19 -0 -0)
(1.42313058644308e+19 -0 -0)
(1.42626037654963e+19 -0 -0)
(1.42821537347e+19 -0 -0)
(1.43121311397576e+19 -0 -0)
(1.43300633009445e+19 -0 -0)
(1.43587843589522e+19 -0 -0)
(1.43751435718876e+19 -0 -0)
(1.44028069040256e+19 -0 -0)
(1.44176857774057e+19 -0 -0)
(1.44443065451409e+19 -0 -0)
(1.44577453956969e+19 -0 -0)
(1.44834391512233e+19 -0 -0)
(1.44954437806293e+19 -0 -0)
(1.45202064084193e+19 -0 -0)
(1.45308560333868e+19 -0 -0)
(1.45548935911306e+19 -0 -0)
(1.45644039836783e+19 -0 -0)
(1.45876524316653e+19 -0 -0)
(1.45959355368263e+19 -0 -0)
(1.46185982699474e+19 -0 -0)
(1.46257453931459e+19 -0 -0)
(1.46478513941788e+19 -0 -0)
(1.46539236752831e+19 -0 -0)
(1.46755895490725e+19 -0 -0)
(1.46807086197852e+19 -0 -0)
(1.47019673644853e+19 -0 -0)
(1.47061071644523e+19 -0 -0)
(1.47269460864192e+19 -0 -0)
(1.47301254400624e+19 -0 -0)
(1.47505967434433e+19 -0 -0)
(1.47528404785182e+19 -0 -0)
(1.47729345588849e+19 -0 -0)
(1.47742317735836e+19 -0 -0)
(1.47939084042771e+19 -0 -0)
(1.47942879828313e+19 -0 -0)
(1.48136033444891e+19 -0 -0)
(1.48131296226941e+19 -0 -0)
(1.48321087114266e+19 -0 -0)
(1.48307680515442e+19 -0 -0)
(1.48493586757656e+19 -0 -0)
(1.48470144463034e+19 -0 -0)
(1.48651433681097e+19 -0 -0)
(1.48617912745236e+19 -0 -0)
(1.48794310791686e+19 -0 -0)
(1.48749830337119e+19 -0 -0)
(1.48921509544206e+19 -0 -0)
(1.48864825564561e+19 -0 -0)
(1.49029656496046e+19 -0 -0)
(1.48792092586439e+19 -0 -0)
)
;

boundaryField
{
    electrode
    {
        type            calculated;
        value           uniform (-11488399424.581 -0 -0);
    }
    ground
    {
        type            calculated;
        value           uniform (1.49034012978875e+19 -0 -0);
    }
    otherfaces
    {
        type            empty;
    }
}


// ************************************************************************* //
