/*--------------------------------*- C++ -*----------------------------------*\
| =========                 |                                                 |
| \\      /  F ield         | foam-extend: Open Source CFD                    |
|  \\    /   O peration     | Version:     4.0                                |
|   \\  /    A nd           | Web:         http://www.foam-extend.org         |
|    \\/     M anipulation  |                                                 |
\*---------------------------------------------------------------------------*/
FoamFile
{
    version     2.0;
    format      ascii;
    class       volVectorField;
    location    "5.9e-06";
    object      J_electron;
}
// * * * * * * * * * * * * * * * * * * * * * * * * * * * * * * * * * * * * * //

dimensions      [1 -1 -1 0 0 0 0];

internalField   nonuniform List<vector> 
300
(
(-1.30918488355737e+19 0 0)
(-1.34342009760002e+19 0 0)
(-1.58669850195777e+19 0 0)
(-1.5389306455419e+19 0 0)
(-1.53904550779817e+19 0 0)
(-1.53770750223777e+19 0 0)
(-1.53157698060312e+19 0 0)
(-1.52698965365672e+19 0 0)
(-1.52216531140753e+19 0 0)
(-1.51728045755871e+19 0 0)
(-1.51242841542124e+19 0 0)
(-1.50756325829288e+19 0 0)
(-1.50269387672688e+19 0 0)
(-1.49782045415653e+19 0 0)
(-1.49294170691041e+19 0 0)
(-1.48805756084955e+19 0 0)
(-1.48316762487428e+19 0 0)
(-1.47827151772744e+19 0 0)
(-1.47336887202272e+19 0 0)
(-1.46845931230681e+19 0 0)
(-1.4635424708174e+19 0 0)
(-1.45861795730778e+19 0 0)
(-1.45368539888509e+19 0 0)
(-1.44874440748032e+19 0 0)
(-1.44379459930208e+19 0 0)
(-1.43883558535041e+19 0 0)
(-1.43386697105665e+19 0 0)
(-1.42888836561269e+19 0 0)
(-1.4238993728691e+19 0 0)
(-1.41889959285049e+19 0 0)
(-1.41388862523431e+19 0 0)
(-1.40886607297923e+19 0 0)
(-1.40383152512121e+19 0 0)
(-1.39878458255466e+19 0 0)
(-1.39372483728401e+19 0 0)
(-1.38865187958133e+19 0 0)
(-1.38356530609211e+19 0 0)
(-1.37846470714491e+19 0 0)
(-1.37334967491237e+19 0 0)
(-1.36821980093729e+19 0 0)
(-1.36307468130324e+19 0 0)
(-1.35791390399442e+19 0 0)
(-1.35273707603426e+19 0 0)
(-1.34754378674783e+19 0 0)
(-1.34233363797566e+19 0 0)
(-1.33710623661973e+19 0 0)
(-1.33186118509787e+19 0 0)
(-1.32659809791671e+19 0 0)
(-1.32131659060855e+19 0 0)
(-1.31601627902035e+19 0 0)
(-1.31069678883709e+19 0 0)
(-1.3053577444706e+19 0 0)
(-1.29999877251523e+19 0 0)
(-1.29461954753056e+19 0 0)
(-1.28921981251362e+19 0 0)
(-1.2837992871319e+19 0 0)
(-1.27835725367206e+19 0 0)
(-1.27289226953168e+19 0 0)
(-1.26740370674884e+19 0 0)
(-1.26189633922052e+19 0 0)
(-1.25638166002907e+19 0 0)
(-1.25085637616156e+19 0 0)
(-1.24525448370444e+19 0 0)
(-1.2394588267873e+19 0 0)
(-1.23354472372686e+19 0 0)
(-1.2277373321599e+19 0 0)
(-1.22203456386506e+19 0 0)
(-1.21632996376185e+19 0 0)
(-1.21060303807945e+19 0 0)
(-1.20484801885451e+19 0 0)
(-1.19906317242592e+19 0 0)
(-1.19324803772158e+19 0 0)
(-1.187402500252e+19 0 0)
(-1.18152655040739e+19 0 0)
(-1.1756202019154e+19 0 0)
(-1.16968349149889e+19 0 0)
(-1.16371646304066e+19 0 0)
(-1.15771916412047e+19 0 0)
(-1.15169165706902e+19 0 0)
(-1.14563401195386e+19 0 0)
(-1.13954630915787e+19 0 0)
(-1.13342863523908e+19 0 0)
(-1.12728109000431e+19 0 0)
(-1.12110378158973e+19 0 0)
(-1.1148968258284e+19 0 0)
(-1.10866035086684e+19 0 0)
(-1.10239449315499e+19 0 0)
(-1.09609939377675e+19 0 0)
(-1.08977521101148e+19 0 0)
(-1.08342209837888e+19 0 0)
(-1.07704022846061e+19 0 0)
(-1.07062977494699e+19 0 0)
(-1.06419091386631e+19 0 0)
(-1.05772382900736e+19 0 0)
(-1.05122870971319e+19 0 0)
(-1.04470573839118e+19 0 0)
(-1.03815510738091e+19 0 0)
(-1.0315769995803e+19 0 0)
(-1.02497159711666e+19 0 0)
(-1.01833907818374e+19 0 0)
(-1.01167960923109e+19 0 0)
(-1.00499334703769e+19 0 0)
(-9.98280434773131e+18 0 0)
(-9.91541001878451e+18 0 0)
(-9.84775148560869e+18 0 0)
(-9.77982962848078e+18 0 0)
(-9.71164493441768e+18 0 0)
(-9.64319766116198e+18 0 0)
(-9.57448761767625e+18 0 0)
(-9.5055141847213e+18 0 0)
(-9.43627635067506e+18 0 0)
(-9.36677242741037e+18 0 0)
(-9.29700020906256e+18 0 0)
(-9.22695672660125e+18 0 0)
(-9.15663827869316e+18 0 0)
(-9.08604028608578e+18 0 0)
(-9.01515718964439e+18 0 0)
(-8.94398236812745e+18 0 0)
(-8.87250802441401e+18 0 0)
(-8.80072499796482e+18 0 0)
(-8.72862270808392e+18 0 0)
(-8.65618893252329e+18 0 0)
(-8.5834096723e+18 0 0)
(-8.51026887790769e+18 0 0)
(-8.43674838095731e+18 0 0)
(-8.36282753225903e+18 0 0)
(-8.28848296735015e+18 0 0)
(-8.21368840843271e+18 0 0)
(-8.1384141492013e+18 0 0)
(-8.06262693487654e+18 0 0)
(-7.98628932446323e+18 0 0)
(-7.90935938836621e+18 0 0)
(-7.83179025079389e+18 0 0)
(-7.75352925196596e+18 0 0)
(-7.67451752848215e+18 0 0)
(-7.59468948034263e+18 0 0)
(-7.5139719644216e+18 0 0)
(-7.43228136328056e+18 0 0)
(-7.34952508004552e+18 0 0)
(-7.26560904590341e+18 0 0)
(-7.18040699105654e+18 0 0)
(-7.09376850219657e+18 0 0)
(-7.00562160659517e+18 0 0)
(-6.91581435393658e+18 0 0)
(-6.82381419634124e+18 0 0)
(-6.72977561990673e+18 0 0)
(-6.63446737740471e+18 0 0)
(-6.53366313511341e+18 0 0)
(-6.42640301476178e+18 0 0)
(-6.31812236219462e+18 0 0)
(-6.20872802101835e+18 0 0)
(-6.09584208143083e+18 0 0)
(-5.97803851778202e+18 0 0)
(-5.85593906724445e+18 0 0)
(-5.72697990301902e+18 0 0)
(-5.59328864071739e+18 0 0)
(-5.4508663359857e+18 0 0)
(-5.30160316452543e+18 0 0)
(-5.14409954199627e+18 0 0)
(-4.97008394158106e+18 0 0)
(-4.79869398967072e+18 0 0)
(-4.55988921834353e+18 0 0)
(-4.34673240986826e+18 0 0)
(-3.7792815462398e+18 0 0)
(-2.81387379487932e+18 0 0)
(-2.47477262184717e+18 0 0)
(-2.52524314327358e+18 0 0)
(-2.33278572782944e+18 0 0)
(-1.89569438224325e+18 0 0)
(-1.21488894869583e+18 0 0)
(-6.61773815275061e+17 0 0)
(-1.63323091251888e+17 0 0)
(-8.56994042483835e+16 0 0)
(-1.03216973634601e+18 0 0)
(-1.10743636481357e+18 0 0)
(-3.1579093833089e+17 0 0)
(-1.44888916435429e+18 0 0)
(-2.72013698393231e+18 0 0)
(-2.51945829161291e+18 0 0)
(-3.62707934125018e+18 0 0)
(-4.69281674489338e+18 0 0)
(-4.18407645369179e+18 0 0)
(-4.44760842664568e+18 0 0)
(-4.06462475005644e+18 0 0)
(-2.14590362930381e+18 0 0)
(-5.27078998754198e+17 0 0)
(1.60055000021651e+18 0 0)
(4.60392499919559e+18 0 0)
(7.16853355873095e+18 0 0)
(9.26696480720657e+18 0 0)
(1.10435099664056e+19 0 0)
(1.1851012341453e+19 0 0)
(1.28057970826388e+19 0 0)
(1.1187238936393e+19 0 0)
(9.37497148219366e+18 0 0)
(8.50869440373404e+18 0 0)
(5.89095042465091e+18 0 0)
(6.90636013484022e+18 0 0)
(2.0065451591545e+18 0 0)
(-2.61890650542103e+18 0 0)
(1.46188664374147e+18 0 0)
(-1.75269630863039e+18 0 0)
(-2.26862502976641e+18 0 0)
(-2.17215753781769e+18 0 0)
(-2.15539560222715e+18 0 0)
(-2.32328663017876e+18 0 0)
(-2.58730458849971e+18 0 0)
(-2.80966347193595e+18 0 0)
(-2.93688486661391e+18 0 0)
(-2.99112175593958e+18 0 0)
(-3.00306558090691e+18 0 0)
(-2.98696524762016e+18 0 0)
(-2.96101133679514e+18 0 0)
(-2.92356369957757e+18 0 0)
(-2.88660559081472e+18 0 0)
(-2.84565784965336e+18 0 0)
(-2.8010753288826e+18 0 0)
(-2.75430784350967e+18 0 0)
(-2.7075235777841e+18 0 0)
(-2.65946764192368e+18 0 0)
(-2.61252952061196e+18 0 0)
(-2.56487860726393e+18 0 0)
(-2.51676257153134e+18 0 0)
(-2.46854104040101e+18 0 0)
(-2.42034661893411e+18 0 0)
(-2.37228139201173e+18 0 0)
(-2.32443305590737e+18 0 0)
(-2.27690716993178e+18 0 0)
(-2.22978716268111e+18 0 0)
(-2.18315050032527e+18 0 0)
(-2.13706711869905e+18 0 0)
(-2.0915996482696e+18 0 0)
(-2.04680409145334e+18 0 0)
(-2.0027293181129e+18 0 0)
(-1.95941789075942e+18 0 0)
(-1.9169058033865e+18 0 0)
(-1.87522272951233e+18 0 0)
(-1.83439421236809e+18 0 0)
(-1.79443022138692e+18 0 0)
(-1.75536983657305e+18 0 0)
(-1.71705182489765e+18 0 0)
(-1.67995231355863e+18 0 0)
(-1.64357549121844e+18 0 0)
(-1.60811451290921e+18 0 0)
(-1.57354081868911e+18 0 0)
(-1.53985800898943e+18 0 0)
(-1.50705469192825e+18 0 0)
(-1.47511890055296e+18 0 0)
(-1.44403626602544e+18 0 0)
(-1.41379067567387e+18 0 0)
(-1.3843648716725e+18 0 0)
(-1.3557401547313e+18 0 0)
(-1.32789842083381e+18 0 0)
(-1.30081738428447e+18 0 0)
(-1.27449791663355e+18 0 0)
(-1.24882697057022e+18 0 0)
(-1.2239213906995e+18 0 0)
(-1.1997253007251e+18 0 0)
(-1.17611641785326e+18 0 0)
(-1.15317489791622e+18 0 0)
(-1.13084708847925e+18 0 0)
(-1.10911866659295e+18 0 0)
(-1.08796831384647e+18 0 0)
(-1.06737728756402e+18 0 0)
(-1.04732723844377e+18 0 0)
(-1.02780143216516e+18 0 0)
(-1.00877997916233e+18 0 0)
(-9.90242160376553e+17 0 0)
(-9.72176104386467e+17 0 0)
(-9.54521096429167e+17 0 0)
(-9.37321013649021e+17 0 0)
(-9.20665415203614e+17 0 0)
(-9.04337195565839e+17 0 0)
(-8.88412680426695e+17 0 0)
(-8.72870473350333e+17 0 0)
(-8.57703756963733e+17 0 0)
(-8.4290045392549e+17 0 0)
(-8.28449443889041e+17 0 0)
(-8.14339830182896e+17 0 0)
(-8.00560116447961e+17 0 0)
(-7.87101162632924e+17 0 0)
(-7.73938478249216e+17 0 0)
(-7.61083191015932e+17 0 0)
(-7.48261347735233e+17 0 0)
(-7.36348021079068e+17 0 0)
(-7.24405775155142e+17 0 0)
(-7.12763051562147e+17 0 0)
(-7.01374106211944e+17 0 0)
(-6.90169798987258e+17 0 0)
(-6.79146708230002e+17 0 0)
(-6.69004388822579e+17 0 0)
(-6.58789804473216e+17 0 0)
(-6.48465019883727e+17 0 0)
(-6.39219466066399e+17 0 0)
(-6.29894937145287e+17 0 0)
(-6.21085488137394e+17 0 0)
(-6.12920575459708e+17 0 0)
(-6.05957567455713e+17 0 0)
(-5.99668431215754e+17 0 0)
(-5.89109241318114e+17 0 0)
)
;

boundaryField
{
    electrode
    {
        type            calculated;
        value           uniform (-1.56355200491417e+19 0 0);
    }
    ground
    {
        type            calculated;
        value           uniform (-5.86497890403385e+17 0 0);
    }
    otherfaces
    {
        type            empty;
    }
}


// ************************************************************************* //
