/*--------------------------------*- C++ -*----------------------------------*\
| =========                 |                                                 |
| \\      /  F ield         | foam-extend: Open Source CFD                    |
|  \\    /   O peration     | Version:     4.0                                |
|   \\  /    A nd           | Web:         http://www.foam-extend.org         |
|    \\/     M anipulation  |                                                 |
\*---------------------------------------------------------------------------*/
FoamFile
{
    version     2.0;
    format      ascii;
    class       volScalarField;
    location    "5.9e-06";
    object      N_electronMean;
}
// * * * * * * * * * * * * * * * * * * * * * * * * * * * * * * * * * * * * * //

dimensions      [0 0 0 1 0 0 0];

internalField   nonuniform List<scalar> 
300
(
6.03021708766636e+16
6.03006909693243e+16
6.02966009215443e+16
6.02894246033212e+16
6.02791976086829e+16
6.02658829406064e+16
6.02494594794853e+16
6.02299153701779e+16
6.02072395218755e+16
6.01814237682719e+16
6.01524622615973e+16
6.01203512351499e+16
6.0085088859942e+16
6.00466750756249e+16
6.00051114759346e+16
5.9960401194696e+16
5.99125488086952e+16
5.98615602542399e+16
5.98074427460138e+16
5.97502047002544e+16
5.96898556667981e+16
5.96264062647208e+16
5.95598681202131e+16
5.94902538029716e+16
5.94175767796419e+16
5.93418513772166e+16
5.92630927163204e+16
5.91813166448169e+16
5.90965396835682e+16
5.90087789534488e+16
5.89180521279057e+16
5.88243774197709e+16
5.87277735146857e+16
5.86282594643479e+16
5.85258546095712e+16
5.84205785185514e+16
5.83124509260512e+16
5.82014916775813e+16
5.80877206684258e+16
5.79711577816998e+16
5.78518228373532e+16
5.77297355402177e+16
5.76049154184099e+16
5.74773817669384e+16
5.73471535988592e+16
5.72142495976663e+16
5.70786880728505e+16
5.69404869202315e+16
5.67996635911722e+16
5.66562350704258e+16
5.65102178748559e+16
5.63616280531221e+16
5.62104811520447e+16
5.60567921549258e+16
5.59005753936795e+16
5.5741844458434e+16
5.55806121198512e+16
5.54168902679393e+16
5.52506898649351e+16
5.5082020899626e+16
5.49108923462406e+16
5.47373121259847e+16
5.45612870640106e+16
5.43828228782029e+16
5.42019242087591e+16
5.40185945846976e+16
5.3832836328984e+16
5.36446505017487e+16
5.34540368708944e+16
5.32609938804962e+16
5.30655186184844e+16
5.28676068012483e+16
5.26672527904337e+16
5.24644495756986e+16
5.22591887181113e+16
5.20514603513004e+16
5.18412532042492e+16
5.16285545729115e+16
5.14133502434978e+16
5.11956244450658e+16
5.09753598434682e+16
5.07525374625022e+16
5.05271366082298e+16
5.0299134843761e+16
5.00685079785147e+16
4.98352300818842e+16
4.95992734495456e+16
4.93606085308084e+16
4.91192038969911e+16
4.8875026239974e+16
4.86280403448988e+16
4.83782091086692e+16
4.81254935713206e+16
4.78698528272597e+16
4.76112439421996e+16
4.73496219343754e+16
4.70849397551839e+16
4.68171482707484e+16
4.65461962440648e+16
4.6272030330242e+16
4.59945950709563e+16
4.57138328643908e+16
4.54296839728874e+16
4.51420865544483e+16
4.48509766254993e+16
4.45562880391868e+16
4.42579524903162e+16
4.39558995060232e+16
4.3650056456933e+16
4.33403485375662e+16
4.30266987359223e+16
4.27090278311675e+16
4.23872544050142e+16
4.20612948739414e+16
4.17310635022215e+16
4.13964724155699e+16
4.10574316717586e+16
4.07138492977872e+16
4.03656312540234e+16
4.00126814096288e+16
3.9654901585539e+16
3.92921916201694e+16
3.89244494260513e+16
3.85515710588724e+16
3.81734507176108e+16
3.77899806965552e+16
3.74010514129111e+16
3.7006551466101e+16
3.66063676546295e+16
3.62003850058402e+16
3.57884868386494e+16
3.53705548261401e+16
3.49464690473108e+16
3.45161080369068e+16
3.40793489106018e+16
3.36360675121309e+16
3.31861384434235e+16
3.27294350440564e+16
3.22658294323944e+16
3.17951925904706e+16
3.13173944146773e+16
3.0832303760787e+16
3.03397885159708e+16
2.98397156884796e+16
2.93319515672093e+16
2.8816361866525e+16
2.82928117694389e+16
2.77611659518819e+16
2.72212886039856e+16
2.66730435593185e+16
2.61162945351675e+16
2.55509052547183e+16
2.49767395629804e+16
2.43936616233009e+16
2.38015360169853e+16
2.32002279649495e+16
2.25896036192345e+16
2.19695304526417e+16
2.13398773179214e+16
2.07005139509873e+16
2.00513079632821e+16
1.9392107141206e+16
1.87227137675733e+16
1.80428756680633e+16
1.73522912190901e+16
1.66506291895228e+16
1.59375579657921e+16
1.52127545603346e+16
1.44759004068227e+16
1.37266982967607e+16
1.29649415617169e+16
1.21906524444678e+16
1.14042580666227e+16
1.06067765280753e+16
9.8000520178402e+15
8.98696386073326e+15
8.17158990051523e+15
7.35944302848317e+15
6.55753462697045e+15
5.77416885065945e+15
5.01867980554314e+15
4.30094200619183e+15
3.63059626810898e+15
3.0162688531543e+15
2.46479107057001e+15
1.98048003889335e+15
1.56476877388772e+15
1.21617998501308e+15
930603669357377
701908249883857
522686412069319
385012851804018
281135025966060
203986908607810
147067249068533
105252062538186
74718957077937
52505593355157.2
36363418698386.9
24855121225707.4
16846328066821.3
11316179116716.1
7597620304993.56
5226213693065.79
3797581813296.19
2970508081059.87
2495523202874.77
2216653569427.65
2046150862084.82
1936747949609.7
1862900520222.96
1810299194937.36
1770627272052.92
1738854946536.86
1711804556504.61
1687413473387.08
1664312953982.45
1641588623647.05
1618682208898.75
1595226800052.49
1570976926030.49
1545770967267.74
1519545135278.17
1492310112738.48
1464120647941.3
1435061617608.31
1405237810244.59
1374764999728.81
1343764499364.44
1312358904808.19
1280668953805.05
1248811991588.58
1216899461983.26
1185036097260.76
1153319397191.99
1121838681713.9
1090674726460.05
1059900334694.28
1029579605363.06
999768482809.012
970515423911.114
941860497311.012
913836575068.182
886470862986.795
859785603423.11
833797971351.559
808519229707.427
783955866650.419
760110157527.179
736980897387.805
714565025834.698
692857279730.652
671849783158.28
651532242303.15
631892639868.313
612918389560.526
594594636037.791
576903064768.429
559826052805.649
543347587534.74
527450848796.477
512117846863.209
497330447211.062
483070277089.731
469319077865.997
456059010428.731
443271395308.113
430937232931.006
419038135986.816
407555874366.726
396471938000.307
385769729254.757
375435388932.043
365456654099.551
355822026287.902
346520728472.634
337542611487.747
328878055988.076
320518246352.846
312455197378.367
304681613337.367
297189996669.455
289972032267.731
283006624185.116
276268185359.762
269750697505.329
263461474556.15
257409502635.865
251604106843.81
246029181795.323
240661730017.623
235518505396.005
230639201972.131
226021493289.97
221694517066.459
217737464828.467
214272055155.708
211550157651.75
209974878918.87
210277721416.13
)
;

boundaryField
{
    electrode
    {
        type            calculated;
        value           uniform 6.0302170876864e+16;
    }
    ground
    {
        type            calculated;
        value           uniform 211890227533.192;
    }
    otherfaces
    {
        type            empty;
    }
}


// ************************************************************************* //
