/*--------------------------------*- C++ -*----------------------------------*\
| =========                 |                                                 |
| \\      /  F ield         | foam-extend: Open Source CFD                    |
|  \\    /   O peration     | Version:     4.0                                |
|   \\  /    A nd           | Web:         http://www.foam-extend.org         |
|    \\/     M anipulation  |                                                 |
\*---------------------------------------------------------------------------*/
FoamFile
{
    version     2.0;
    format      ascii;
    class       volScalarField;
    location    "5.9e-06";
    object      Phi;
}
// * * * * * * * * * * * * * * * * * * * * * * * * * * * * * * * * * * * * * //

dimensions      [0 0 0 1 0 0 0];

internalField   nonuniform List<scalar> 
300
(
699.999925574815
699.99971370785
699.999211093619
699.998451295836
699.997442828638
699.996180345869
699.994664759207
699.992895659013
699.990872518188
699.988594884594
699.986062213588
699.983273912298
699.980229336809
699.976927788788
699.97336851609
699.96955071192
699.965473514117
699.961136004447
699.956537207819
699.951676091461
699.946551564049
699.941162474795
699.935507612482
699.929585704459
699.923395415592
699.916935347159
699.910204035711
699.90319995188
699.895921499147
699.888367012555
699.880534757382
699.872422927772
699.864029645307
699.855352957545
699.846390836505
699.837141177103
699.827601795549
699.817770427683
699.807644727278
699.797222264282
699.786500523018
699.77547690033
699.764148703681
699.752513149199
699.740567359675
699.728308362495
699.715733087537
699.702838364996
699.68962092316
699.676077386129
699.662204271474
699.647997987827
699.633454832418
699.618570988532
699.603342522891
699.587765383003
699.571835394504
699.555548258464
699.538899548237
699.521884705282
699.50449903494
699.486737707037
699.468595766071
699.450068134888
699.431149557953
699.411834481188
699.392117069254
699.371991312325
699.351451041172
699.330489922298
699.309101453537
699.287278959059
699.265015584088
699.242304289439
699.21913784585
699.195508828136
699.17140960911
699.146832353306
699.12176901044
699.096211308627
699.070150747325
699.043578589981
699.016485856368
698.988863314588
698.960701472718
698.931990570076
698.902720568075
698.872881140645
698.842461664188
698.811451207039
698.779838518384
698.74761201662
698.714759777105
698.681269519245
698.647128592904
698.612323964049
698.576842199613
698.540669451492
698.503791439635
698.466193434151
698.427860236361
698.388776158731
698.348925003588
698.308290040544
698.26685398252
698.224598960277
698.181506495332
698.13755747114
698.092732102411
698.047009902417
698.00036964812
697.952789342971
697.904246177168
697.854716485193
697.804175700377
697.752598306269
697.699957784535
697.646226559078
697.591375936073
697.535376039547
697.478195742113
697.419802590419
697.360162724837
697.29924079285
697.236999855557
697.173401286621
697.108404662944
697.041967646249
696.974045854658
696.904592723245
696.833559352432
696.760894342942
696.686543615871
696.610450216255
696.532554098323
696.452791890314
696.371096636565
696.287397514207
696.201619521461
696.113683133651
696.023503923698
695.930992143622
695.836052256334
695.738582415603
695.638473904659
695.53561048997
695.429867637825
695.321111815587
695.209199738029
695.093976582182
694.97527477518
694.852913162132
694.726695587131
694.596409206171
694.461822430248
694.322682961387
694.17871471421
694.029615739777
693.875053533654
693.714662686232
693.54803863189
693.374732903
693.194249282345
693.006023478252
692.80944429283
692.603693192089
692.387730614722
692.160478418377
691.920752541528
691.667210628885
691.398256444733
691.111970998409
690.806130932143
690.478079721226
690.124947663778
689.743871499093
689.331208052917
688.882727877775
688.394417447535
687.861658770029
687.279073825316
686.641730559079
685.944282088063
685.18075838908
684.346166234506
683.435221986193
682.442510531963
681.363864803752
680.195476079197
678.933475918841
677.575303025691
676.119097801886
674.563465406514
672.90697609738
671.149671033217
669.291739747327
667.333721836662
665.275795329423
663.11828083562
660.861347848279
658.505770097276
656.050954662423
653.49614711174
650.840589130985
648.083761774557
645.225777355701
642.26715959337
639.208791112789
636.051641825949
632.796693094347
629.444876667817
625.997059140789
622.454018733828
618.816483425506
615.085551168284
611.262205232023
607.347365690408
603.341847691221
599.246415628815
595.061739188987
590.788448711123
586.427088508285
581.978173479025
577.442139702638
572.819402968267
568.110328656158
563.315563883796
558.435673530386
553.47122736282
548.422716930778
543.290645890101
538.075442513367
532.777553253679
527.397351402286
521.935233716298
516.39152554621
510.766580422038
505.060681707209
499.274144818931
493.407215562242
487.460174814378
481.433234233475
475.326666938378
469.14085959974
462.876233829152
456.533145780146
450.111989749072
443.613094048772
437.036828497404
430.383496213368
423.653444369675
416.846953318571
409.964349629008
403.005892348886
395.971889278589
388.862579791944
381.67825376404
374.41913216281
367.08548822351
359.677524871455
352.195499594254
344.639598492953
337.010064304385
329.30706686878
321.530835232446
313.681524060537
305.759369424476
297.76464311562
289.697679324349
281.558734572425
273.348129974813
265.066107092736
256.71297458884
248.288959969554
239.794360129076
231.229388905328
222.594331744885
213.889389540879
205.114837246499
196.270863670731
187.357733937982
178.375625257798
169.324793499295
160.205404991594
151.017707033548
141.761855859853
132.438090649563
123.046557846471
113.587488739833
104.06102039565
94.4673767788649
84.8066862785325
75.0791666114956
65.2849382555213
55.4242130960683
45.4971042253873
35.5038184790455
25.4444618779856
15.319237125442
5.12824404012501
)
;

boundaryField
{
    electrode
    {
        type            fixedValue;
        value           uniform 700;
    }
    ground
    {
        type            fixedValue;
        value           uniform 0;
    }
    otherfaces
    {
        type            empty;
    }
}


// ************************************************************************* //
