/*--------------------------------*- C++ -*----------------------------------*\
| =========                 |                                                 |
| \\      /  F ield         | foam-extend: Open Source CFD                    |
|  \\    /   O peration     | Version:     4.0                                |
|   \\  /    A nd           | Web:         http://www.foam-extend.org         |
|    \\/     M anipulation  |                                                 |
\*---------------------------------------------------------------------------*/
FoamFile
{
    version     2.0;
    format      ascii;
    class       volScalarField;
    location    "5.9e-06";
    object      PhiMean;
}
// * * * * * * * * * * * * * * * * * * * * * * * * * * * * * * * * * * * * * //

dimensions      [0 0 0 1 0 0 0];

internalField   nonuniform List<scalar> 
300
(
699.987516849782
699.986263564164
699.984741510995
699.982973489373
699.980968866117
699.97872086405
699.976228895665
699.973491832017
699.970508557382
699.967278237137
699.963800142672
699.960073680879
699.956098362523
699.951873792373
699.9473996591
699.942675724817
699.937701816595
699.932477820761
699.92700367575
699.921279365303
699.915304913675
699.90908038059
699.902605856561
699.895881458193
699.88890732278
699.881683613708
699.874210509636
699.86648820017
699.858516884579
699.850296763529
699.8418280329
699.833110894785
699.824145549524
699.814932180829
699.805470952181
699.795762002533
699.785805441289
699.775601345795
699.765149756227
699.754450669731
699.743504037484
699.73230976187
699.720867689392
699.709177606702
699.697239236476
699.68505223353
699.672616180559
699.659930585176
699.646994876578
699.633808405631
699.620370443631
699.606680191078
699.592736767755
699.578539212889
699.564086468153
699.549377370326
699.53441063891
699.519184870345
699.503698532698
699.487949959425
699.471937344416
699.455658736332
699.439112032092
699.422294970003
699.405205143335
699.387839993972
699.370196787949
699.352272610442
699.334064359873
699.315568741191
699.296782258776
699.277701208334
699.25832168122
699.238639560803
699.218650501057
699.198349927282
699.177733041316
699.156794807079
699.13552994015
699.113932880162
699.091997811018
699.069718622842
699.047088899232
699.02410190981
699.000750595181
698.977027571507
698.952925113261
698.928435128704
698.903549145611
698.878258306567
698.852553349833
698.82642459269
698.799861951572
698.772854888058
698.745392388374
698.717462947508
698.689054548546
698.660154644619
698.630750134327
698.60082734409
698.570372006946
698.539369233281
698.507803480411
698.475658552425
698.442917547912
698.409562832011
698.375576013135
698.340937895365
698.305628459257
698.269626812562
698.232911143107
698.195458678185
698.157245635632
698.118247183289
698.07843738847
698.037789152164
697.99627417128
697.953862882537
697.910524374134
697.866226306668
697.820934833934
697.774614540443
697.727228336778
697.678737390098
697.629101003007
697.578276478815
697.526218995974
697.472881491754
697.418214496112
697.362165976058
697.304681163296
697.245702370045
697.185168779464
697.123016213807
697.059176892966
696.993579205532
696.92614737851
696.856801136358
696.785455315494
696.71201947844
696.636397446995
696.558486794235
696.478178284504
696.395355239796
696.309892857558
696.221657451768
696.130505530715
696.036282792289
695.938822958716
695.837946471081
695.733459092872
695.625150194305
695.512790808517
695.396131440953
695.274899464768
695.14879608057
695.017492975104
694.880628044346
694.737800973781
694.588566802956
694.432430330435
694.268833202918
694.097125311305
693.916549709892
693.726226118599
693.525131598572
693.312095403224
693.085763101239
692.844545245989
692.586558733965
692.309573008362
692.010993029246
691.687848753268
691.33670854587
690.953668922332
690.534404693182
690.074018135135
689.567138680498
689.008165961715
688.39104318069
687.709511594155
686.957451529744
686.128767561395
685.217604139761
684.218872409691
683.127966856507
681.940994904258
680.655095852253
679.268182740517
677.77888565281
676.186592837367
674.491264902264
672.693382613611
670.793856143537
668.793655622965
666.693607655601
664.494354410298
662.196317708375
659.799854379737
657.305319225459
654.7129306025
652.022785061809
649.235078346418
646.350226272499
643.368993465386
640.292261822147
637.121000266041
633.856163508711
630.498676506868
627.049387491226
623.509091721906
619.878497349024
616.158348937245
612.34951414931
608.452879575844
604.469246988112
600.399373490623
596.243940574706
592.00359587886
587.678919346917
583.2704664449
578.778731607466
574.204193024391
569.547274039233
564.80839003805
559.988004319261
555.086717280955
550.105074516868
545.043620049408
539.902846131314
534.683248618874
529.385273750204
524.009376844397
518.55596767276
513.025469496667
507.41825964397
501.734732113372
495.975235365534
490.14013771896
484.229762254039
478.244455069367
472.184517666477
466.050281981238
459.842144020984
453.560569114448
447.205970239615
440.778789884067
434.279417583266
427.708274950163
421.065729792929
414.352184562935
407.567986764759
400.713521182977
393.789116200994
386.795140230671
379.731903572857
372.599759353082
365.399000733244
358.129966470366
350.792933464682
343.388226881526
335.916108155582
328.37688960537
320.770817755849
313.098192773491
305.359250368106
297.554289116908
289.68356366427
281.747430844516
273.74619965157
265.680250630803
257.549879158678
249.355454721547
241.097258518004
232.775649660728
224.390895681804
215.943345956998
207.433254869192
198.860962638248
190.226710996689
181.53083154857
172.773553790877
163.955201247786
155.075991577305
146.136240861838
137.136155401591
128.0760443795
118.956103064734
109.776634206337
100.537822345593
91.2399641966369
81.8832340964913
72.4679234376512
62.9941966954434
53.4623402773883
43.8725094606854
34.2249865484683
24.5199181311745
14.7575835561607
4.93812172058977
)
;

boundaryField
{
    electrode
    {
        type            calculated;
        value           uniform 699.999999999896;
    }
    ground
    {
        type            calculated;
        value           uniform 0;
    }
    otherfaces
    {
        type            empty;
    }
}


// ************************************************************************* //
