/*--------------------------------*- C++ -*----------------------------------*\
| =========                 |                                                 |
| \\      /  F ield         | foam-extend: Open Source CFD                    |
|  \\    /   O peration     | Version:     4.0                                |
|   \\  /    A nd           | Web:         http://www.foam-extend.org         |
|    \\/     M anipulation  |                                                 |
\*---------------------------------------------------------------------------*/
FoamFile
{
    version     2.0;
    format      ascii;
    class       volScalarField;
    location    "5.9e-06";
    object      Sy_electron;
}
// * * * * * * * * * * * * * * * * * * * * * * * * * * * * * * * * * * * * * //

dimensions      [1 -3 -1 0 0 0 0];

internalField   nonuniform List<scalar> 
300
(
3.37937331173696e-09
3.38015790917389e-09
3.38046651900173e-09
3.38040973475063e-09
3.38038084108879e-09
3.38030389887897e-09
3.380188488531e-09
3.38003963062558e-09
3.37985489667419e-09
3.37963445364705e-09
3.37937802068217e-09
3.37908522357063e-09
3.37875573347884e-09
3.37838919149985e-09
3.37798522483505e-09
3.37754344698181e-09
3.37706345596329e-09
3.37654483453662e-09
3.37598714981412e-09
3.37538995290714e-09
3.37475277860131e-09
3.3740751449894e-09
3.37335655310886e-09
3.37259648656462e-09
3.37179441110459e-09
3.3709497742908e-09
3.37006200501933e-09
3.36913051311668e-09
3.36815468892651e-09
3.36713390283604e-09
3.36606750480239e-09
3.36495482397059e-09
3.36379516817674e-09
3.36258782344315e-09
3.3613320535146e-09
3.36002709937554e-09
3.35867217875114e-09
3.35726648562795e-09
3.35580918974705e-09
3.35429943609202e-09
3.35273634439198e-09
3.35111900861694e-09
3.34944649646087e-09
3.34771784883047e-09
3.34593207934642e-09
3.34408817382846e-09
3.34218508978074e-09
3.34022175589621e-09
3.33819707153221e-09
3.33610990624211e-09
3.33395909925304e-09
3.33174345903661e-09
3.32946176277003e-09
3.32711275585953e-09
3.32469515122941e-09
3.32220762884053e-09
3.31964883605253e-09
3.31701738918702e-09
3.31431187278051e-09
3.31153082813181e-09
3.30867273219036e-09
3.30573601324135e-09
3.3027191880596e-09
3.29962105488737e-09
3.29646772764975e-09
3.29458421647003e-09
3.29263706513315e-09
3.29062416155489e-09
3.28854360837277e-09
3.28639352345773e-09
3.2841720025138e-09
3.28187710791412e-09
3.27950686475501e-09
3.27705925921818e-09
3.27453223752689e-09
3.2719237051591e-09
3.26923152604788e-09
3.26645352179323e-09
3.26358747093179e-09
3.26063110804671e-09
3.25758212316192e-09
3.25443816079351e-09
3.2511968191755e-09
3.24785564946032e-09
3.24441215483366e-09
3.24086378969455e-09
3.23720795874408e-09
3.23344201602164e-09
3.22956326393889e-09
3.22556895232282e-09
3.2214562773079e-09
3.21722238019308e-09
3.21286434648899e-09
3.2083792044636e-09
3.20376392391266e-09
3.1990154148071e-09
3.19413052582579e-09
3.18910604280842e-09
3.18393868709364e-09
3.17862511378886e-09
3.17316190988985e-09
3.16754559226365e-09
3.16177260546466e-09
3.15583931956653e-09
3.14974202757239e-09
3.14347694283608e-09
3.13704019627477e-09
3.13042783325772e-09
3.12363581045007e-09
3.11665999228134e-09
3.10949614719811e-09
3.10213994366016e-09
3.09458694582584e-09
3.08683260892873e-09
3.07887227429299e-09
3.07070116397195e-09
3.06231437502785e-09
3.05370687341098e-09
3.04487348723428e-09
3.03580889967384e-09
3.02650764128113e-09
3.01696408180932e-09
3.00717242124621e-09
2.9971266803773e-09
2.9868206904672e-09
2.97624808219827e-09
2.96540227375291e-09
2.95427645809024e-09
2.94286358906079e-09
2.93115636657016e-09
2.9191472205157e-09
2.90682829353666e-09
2.89419142231072e-09
2.8812281174028e-09
2.86792954157752e-09
2.85428648629329e-09
2.84028934606985e-09
2.82592809148389e-09
2.81119223981686e-09
2.79607081966958e-09
2.78055233938336e-09
2.764624759294e-09
2.74827542343088e-09
2.73149100413876e-09
2.71425759667678e-09
2.69656055109042e-09
2.6783839457698e-09
2.65971202626193e-09
2.64097692155202e-09
2.62311243090226e-09
2.60471966791342e-09
2.58577675576755e-09
2.56626163933881e-09
2.54615081820634e-09
2.52541964247122e-09
2.50404154921436e-09
2.48198843084756e-09
2.45923057960273e-09
2.43573529515403e-09
2.41147112751482e-09
2.38639852421535e-09
2.36049749121272e-09
2.33373421952635e-09
2.30620709519094e-09
2.27822396934239e-09
2.24959320788032e-09
2.2196656862998e-09
2.18820899232478e-09
2.15534080007942e-09
2.12119550866351e-09
2.08569848503476e-09
2.04607493658236e-09
2.00278082435439e-09
1.95620926861088e-09
1.90602057401641e-09
1.85320186188921e-09
1.79702770257027e-09
1.73595509972076e-09
1.67095816000467e-09
1.60247804610802e-09
1.52986889926208e-09
1.44667514596911e-09
1.36262196568851e-09
1.27947030214266e-09
1.20109641824522e-09
1.13154463611515e-09
1.05752464044294e-09
9.99804259859173e-10
9.60159672511586e-10
9.31891965140166e-10
9.27271928718714e-10
9.51070769916325e-10
1.00905096918785e-09
1.11556799549811e-09
1.2900993690961e-09
1.57576515869573e-09
2.04551784908917e-09
2.85757882902627e-09
4.10054995532879e-09
5.34642981268035e-09
6.55584073479539e-09
7.47063007790996e-09
7.28798621519197e-09
6.29003789308078e-09
4.98634273797821e-09
3.80391543219622e-09
2.88761573367711e-09
2.27614929705423e-09
1.88600306780691e-09
1.64497891781397e-09
1.49605857587305e-09
1.40567752134352e-09
1.35279643262824e-09
1.3267339654401e-09
1.31243968411353e-09
1.30718119651718e-09
1.30817962305684e-09
1.31233718501563e-09
1.3177733909572e-09
1.32325779403738e-09
1.3277877384293e-09
1.32976690248931e-09
1.32920437725796e-09
1.32661434559419e-09
1.32187620120952e-09
1.31495865969811e-09
1.30589650418797e-09
1.29477150640152e-09
1.2816979725105e-09
1.26681287711268e-09
1.25026814447967e-09
1.23222464497495e-09
1.21284744709464e-09
1.19230206929237e-09
1.17075153152598e-09
1.14835405817118e-09
1.12526132370719e-09
1.10161709815027e-09
1.077556375441e-09
1.05320394812083e-09
1.0286752532375e-09
1.00406117583523e-09
9.79446720243184e-10
9.54924932536231e-10
9.30578902261231e-10
9.06482710932033e-10
8.82700881524383e-10
8.59288969792982e-10
8.36294106659433e-10
8.13755623361177e-10
7.91705680527965e-10
7.70169903369646e-10
7.49167993885805e-10
7.28714433526233e-10
7.08819014242237e-10
6.89489346451016e-10
6.70725472071665e-10
6.52522123894302e-10
6.3487536196714e-10
6.17781168712807e-10
6.01230939983853e-10
5.85214543825036e-10
5.69720367452879e-10
5.54735759723837e-10
5.40247277986973e-10
5.26240959304021e-10
5.12702722380487e-10
4.99618633212205e-10
4.86974505165487e-10
4.74755649432277e-10
4.62942299400265e-10
4.51506541251398e-10
4.40426811791035e-10
4.29691215449765e-10
4.19288825865962e-10
4.0920975186145e-10
3.99444672410952e-10
3.89984904273864e-10
3.80822442278107e-10
3.71950044254058e-10
3.63361245964194e-10
3.55050472918446e-10
3.46938298584785e-10
3.38532748050337e-10
3.3034416814677e-10
3.22340581654158e-10
3.14533344346649e-10
3.06936642938317e-10
2.99566287472583e-10
2.91991583790117e-10
2.83793104581077e-10
2.75767985552047e-10
2.67971291099278e-10
2.59275977982047e-10
2.49831823159564e-10
2.40401777934774e-10
2.2837930520179e-10
2.148943571529e-10
1.9784397698286e-10
1.73525566310663e-10
)
;

boundaryField
{
    electrode
    {
        type            zeroGradient;
    }
    ground
    {
        type            zeroGradient;
    }
    otherfaces
    {
        type            empty;
    }
}


// ************************************************************************* //
