/*--------------------------------*- C++ -*----------------------------------*\
| =========                 |                                                 |
| \\      /  F ield         | foam-extend: Open Source CFD                    |
|  \\    /   O peration     | Version:     4.0                                |
|   \\  /    A nd           | Web:         http://www.foam-extend.org         |
|    \\/     M anipulation  |                                                 |
\*---------------------------------------------------------------------------*/
FoamFile
{
    version     2.0;
    format      ascii;
    class       volScalarField;
    location    "5.9e-06";
    object      Te;
}
// * * * * * * * * * * * * * * * * * * * * * * * * * * * * * * * * * * * * * //

dimensions      [0 0 0 1 0 0 0];

internalField   nonuniform List<scalar> 
300
(
40246.2829062114
40246.5818200962
40246.7642266782
40246.8753589646
40247.0495169638
40247.2610163873
40247.5132809717
40247.8080862417
40248.1446946521
40248.5232607265
40248.943795201
40249.4062879544
40249.9107547632
40250.4572117864
40251.045681212
40251.6761914188
40252.348776503
40253.0634764731
40253.8203372649
40254.6194107694
40255.4607548701
40256.3444334885
40257.2705166296
40258.2390804289
40259.2502072072
40260.3039855264
40261.4005102527
40262.5398826213
40263.7222103035
40264.9476074829
40266.2161949328
40267.5281000953
40268.8834571718
40270.2824072138
40271.7250982157
40273.2116852206
40274.7423304224
40276.3172032766
40277.9364806184
40279.6003467836
40281.3089937347
40283.0626211964
40284.8614367897
40286.7056561778
40288.5955032224
40290.5312101348
40292.5130176428
40294.5411751617
40296.6159409705
40298.7375824015
40300.9063760338
40303.122607897
40305.3865736875
40307.6985789657
40310.0589393227
40312.4679805978
40314.9260394103
40317.4334641254
40319.9906150914
40322.5978611931
40325.2555727773
40327.9641267111
40330.7239538355
40333.5356095735
40336.3996894182
40339.3166192665
40342.2867115798
40345.3103583167
40348.3880439307
40351.5202842192
40354.707615308
40357.9505908857
40361.2497817208
40364.6057759224
40368.019179423
40371.490616537
40375.0207305556
40378.6101843796
40382.2596611761
40385.9698650622
40389.7415218242
40393.5753796679
40397.4722100031
40401.4328082642
40405.4579947707
40409.5486156262
40413.7055436616
40417.9296794253
40422.2219522178
40426.5833211817
40431.0147764445
40435.5173403135
40440.0920685428
40444.740051658
40449.4624163471
40454.260326934
40459.1349869235
40464.0876406305
40469.1195749026
40474.232120931
40479.4266561678
40484.7046063518
40490.0674476483
40495.5167089114
40501.0539740861
40506.6808847471
40512.3991427928
40518.2105133053
40524.1168275849
40530.1199863823
40536.2219633254
40542.424808576
40548.7306527262
40555.1417109496
40561.6602874358
40568.2887801269
40575.0296857862
40581.8856054225
40588.8592501031
40595.9534471936
40603.1711470579
40610.5154302604
40617.989515323
40625.5967670881
40633.3407057401
40641.2250165531
40649.2535604462
40657.4303854111
40665.7597389224
40674.2460814185
40682.8941009753
40691.7087293106
40700.6951592415
40709.8588638015
40719.2056171958
40728.7415177614
40738.4730132011
40748.4069286149
40758.5504973969
40768.9113941626
40779.497773653
40790.3183163122
40801.3822655003
40812.6994754021
40824.2805208755
40836.1367236473
40848.2800533468
40860.723758047
40873.4827241304
40886.5723292298
40900.0083800224
40913.8082497295
40927.9912431654
40942.5783623306
40957.5926680303
40973.0592938487
40989.0059151992
41005.4631221276
41022.4643404996
41040.0479883149
41058.2545112866
41077.1379987179
41096.7544615584
41117.2227216711
41138.7648852937
41161.4250609119
41185.0746213573
41209.7662289471
41235.7159518246
41263.1751789494
41292.3408198866
41323.3598825731
41356.321849809
41391.0284005242
41427.6452955107
41467.0581607242
41509.3195572531
41554.0059459364
41602.0642194606
41654.1963296619
41710.4328023843
41772.4615169758
41842.0996948575
41920.9552992872
42013.2341171474
42124.1738687363
42259.9063554889
42430.9898861036
42651.7229283152
42940.115359025
43322.4042764878
43835.2177075839
44533.5107065214
45488.2090960136
46787.4523026956
48594.0899876768
51134.340890017
54782.60589846
59879.6377999877
66320.3495214794
75389.8512652237
89162.1547823193
107759.58590288
133471.066154612
168709.887602406
214978.779094895
271489.583022363
334667.54984941
399690.067436576
462424.432485781
520187.85774716
571812.476852968
617174.55523072
656731.765603252
691141.617358023
721065.730748353
747241.490173628
770316.42767353
790806.39451492
809133.757856981
825629.053754113
840562.220149811
854185.546469942
866703.065829055
878279.970041397
889052.398200558
899133.142591946
908615.665348255
917577.318038748
926082.208912395
934183.341500905
941924.353381517
949340.9154547
956461.871501028
963310.172869868
969903.647250653
976255.645618437
982375.557586143
988269.394888976
993939.807878712
999389.001859399
1004611.02708292
1009598.04641552
1014346.62093989
1018848.36381189
1023093.42698929
1027070.23690481
1030765.8534651
1034166.08824759
1037255.64613853
1040018.24260821
1042436.71501574
1044493.09717247
1046168.75372392
1047443.98545559
1048298.94208116
1048704.24015021
1048660.14855462
1048133.77484667
1047104.88196413
1045550.98435224
1043450.08592466
1040779.77454044
1037517.37724575
1033639.88456785
1029123.89353635
1023945.65821609
1018081.2475289
1011506.28949952
1004197.34485627
996130.765922692
987277.736968438
977611.555304821
967107.739591739
955737.476363326
943470.831242225
930276.21561479
916120.39718223
900968.246550867
884782.509995636
867523.440752542
849149.026390914
829613.641956634
808879.594510683
786889.96150116
763581.612226632
738898.246007046
712760.175203676
685083.250471974
655782.688553869
624748.115541247
591847.667040095
556945.630798152
519853.291096406
480339.842069163
438119.713516804
392794.552312698
343803.936829889
290333.066282312
231314.251853279
)
;

boundaryField
{
    electrode
    {
        type            electronTemperature;
        seec            0.05;
        Tse             1000;
        Edepend         1;
        TFN             1000;
        field_emission  0;
        field_enhancement_factor 55;
        work_function   5;
        value           uniform 40246.2829062114;
    }
    ground
    {
        type            electronTemperature;
        seec            0.05;
        Tse             1000;
        Edepend         1;
        TFN             1000;
        field_emission  0;
        field_enhancement_factor 55;
        work_function   5;
        value           uniform 197837.962360989;
    }
    otherfaces
    {
        type            empty;
    }
}


// ************************************************************************* //
