/*--------------------------------*- C++ -*----------------------------------*\
| =========                 |                                                 |
| \\      /  F ield         | foam-extend: Open Source CFD                    |
|  \\    /   O peration     | Version:     4.0                                |
|   \\  /    A nd           | Web:         http://www.foam-extend.org         |
|    \\/     M anipulation  |                                                 |
\*---------------------------------------------------------------------------*/
FoamFile
{
    version     2.0;
    format      ascii;
    class       volScalarField;
    location    "5.9e-06";
    object      TeMean;
}
// * * * * * * * * * * * * * * * * * * * * * * * * * * * * * * * * * * * * * //

dimensions      [0 0 0 1 0 0 0];

internalField   nonuniform List<scalar> 
300
(
34837.5892851042
34837.8816736043
34838.004623494
34837.9912522668
34837.9924316499
34837.9879755643
34837.9807255382
34837.9735822254
34837.9666466656
34837.9606178622
34837.9561080867
34837.9536945688
34837.9539446407
34837.9573908786
34837.9645492052
34837.9759173146
34837.991973255
34838.0131805861
34838.0399878838
34838.0728285373
34838.1121237683
34838.1582803494
34838.2116931998
34838.2727446033
34838.3418037664
34838.419238755
34838.5054085796
34838.6006603323
34838.7053385084
34838.8197724117
34838.9442747632
34839.0791682949
34839.2247831056
34839.3814354061
34839.5494336069
34839.7290739728
34839.9206493424
34840.124458737
34840.3407979313
34840.5699545775
34840.8122103629
34841.0678533276
34841.3371690375
34841.6204375725
34841.9179373604
34842.229944915
34842.5567343633
34842.8985764768
34843.2557352088
34843.6284676246
34844.0170241708
34844.4216646368
34844.8426672057
34845.2803086036
34845.7348693755
34846.206640401
34846.6959057872
34847.2029450773
34847.7280473516
34848.2715044512
34848.8336094024
34849.4146664156
34850.0149645726
34850.6347883129
34851.2744549664
34851.9342994505
34852.6146558633
34853.3158599618
34854.038252596
34854.7821847385
34855.5480086781
34856.3360685996
34857.146728874
34857.9803701464
34858.8373662711
34859.7180871428
34860.6229290837
34861.5523231659
34862.5066937743
34863.486465326
34864.4920996896
34865.5240743092
34866.5828587048
34867.6689228278
34868.7827478483
34869.9248510067
34871.0957810631
34872.2960885475
34873.5263284627
34874.7870817404
34876.0789317145
34877.4024769607
34878.7583840187
34880.1473214862
34881.5699648386
34883.0270340953
34884.5192628098
34886.0474100397
34887.6122550612
34889.2146074048
34890.8553237949
34892.5352597073
34894.2552983531
34896.0163928442
34897.8195248996
34899.6657045822
34901.5559745934
34903.4914198556
34905.473181403
34907.5024419455
34909.5804313701
34911.7084263609
34913.8877461656
34916.1197871989
34918.4059921369
34920.7478491639
34923.1469055319
34925.604799661
34928.1232652279
34930.7040684709
34933.3490484029
34936.0601425885
34938.839372251
34941.6888729657
34944.6109076927
34947.6078288365
34950.6820766806
34953.8362351272
34957.0730359174
34960.3953252765
34963.8060943107
34967.3085152947
34970.905946877
34974.6018866358
34978.4000199441
34982.3043210581
34986.3190206961
34990.4485903408
34994.6977802245
34999.0716565517
35003.5756295812
35008.2154738289
35012.9973599853
35017.9278851324
35023.0141620577
35028.2639049894
35033.6854654189
35039.2879080678
35045.080997378
35051.0753319271
35057.2825842856
35063.7155363389
35070.3882228318
35077.3162175465
35084.5166879362
35092.0087518566
35099.8137581124
35107.9559889614
35116.4634354974
35125.3702126471
35134.7288328802
35144.6076795945
35155.068813708
35166.169088579
35177.9619436006
35190.5043426034
35203.891065582
35218.2560831524
35233.7430585997
35250.4696775898
35268.5001474177
35287.9022576983
35308.7924461472
35331.2289221052
35355.289884243
35381.1866915858
35409.0105432932
35439.0070670264
35471.9938607681
35509.0422172167
35551.9263461314
35604.0041979972
35670.2390308564
35758.1069678147
35879.3803899115
36051.199337379
36298.5282571869
36658.672041776
37186.9679464977
37967.0460528218
39128.0123717759
40873.5997031051
43533.4995736198
47741.974182225
54139.1566768138
63160.6223128005
76286.7667745882
94218.8116102007
118264.671707894
148887.39884666
186104.920294735
228771.382694336
275557.867689235
325069.430707034
375947.69960862
426860.133911886
476388.781559536
523146.668047767
566111.798285032
604786.198121252
639130.182811726
669404.983911003
696047.684683635
719554.412666342
740379.387199541
758943.333592033
775625.478496476
790739.351924804
804538.810411282
817232.712151874
828988.193315414
839942.340228271
850217.108166727
859913.43708129
869113.438074639
877884.412665148
886281.757035886
894350.781519249
902128.295756094
909643.95972809
916921.32893681
923978.716729316
930829.899175367
937484.618328529
943949.117392117
950226.619611955
956317.615408323
962220.179208119
967930.234679324
973441.776509153
978747.204975844
983837.207890822
988700.738554248
993325.821441324
997699.710616027
1001808.77244051
1005638.29411562
1009172.82485741
1012396.41140176
1015292.28017085
1017843.6593919
1020033.58354728
1021844.42695167
1023258.25398491
1024256.6370217
1024820.78051012
1024927.76106199
1024565.91472299
1023717.88742939
1022361.06786384
1020476.05135003
1018043.17074032
1015042.79139742
1011455.07787601
1007259.96743648
1002437.53452401
996967.132780378
990827.531805688
983997.880093832
976456.789364453
968181.560813439
959149.088399587
949336.194226366
938718.194284161
927269.036741005
914961.359463072
901766.366137527
887653.63337869
872590.940927684
856543.988166542
839476.312242452
821348.986382432
802125.003418366
781759.598841227
760199.080209487
737390.746964409
713272.460480523
687769.769217945
660809.356378523
632304.822897557
602148.552363123
570220.362345447
536383.937167851
500457.89976601
462223.357513229
421403.507637725
377607.83623118
330301.244119682
278701.701194588
221776.536740131
)
;

boundaryField
{
    electrode
    {
        type            calculated;
        value           uniform 34837.5892851062;
    }
    ground
    {
        type            calculated;
        value           uniform 189495.870045447;
    }
    otherfaces
    {
        type            empty;
    }
}


// ************************************************************************* //
