/*--------------------------------*- C++ -*----------------------------------*\
| =========                 |                                                 |
| \\      /  F ield         | foam-extend: Open Source CFD                    |
|  \\    /   O peration     | Version:     4.0                                |
|   \\  /    A nd           | Web:         http://www.foam-extend.org         |
|    \\/     M anipulation  |                                                 |
\*---------------------------------------------------------------------------*/
FoamFile
{
    version     2.0;
    format      ascii;
    class       regIOobject;
    location    "9.8e-06/uniform";
    object      profilingInfo;
}
// * * * * * * * * * * * * * * * * * * * * * * * * * * * * * * * * * * * * * //

profilingInfo
(

    {
        id              20;
        parentId        16;
        description     "Foam::Time::writeObject - outputTime";
        calls           98;
        totalTime       0.584668;
        childTime       0;
        onStack         1;
    }

    {
        id              16;
        parentId        1;
        description     "Foam::Time::writeObject";
        calls           98000;
        totalTime       0.726605999999334;
        childTime       0.584668;
        onStack         1;
    }

    {
        id              1;
        description     "application::main";
        calls           1;
        totalTime       2010.715247;
        childTime       30.8245550000068;
        onStack         1;
    }

    {
        id              18;
        parentId        17;
        description     "FO::dumpObjects::execute";
        calls           97999;
        totalTime       0.418177999999898;
        childTime       0;
        onStack         0;
    }

    {
        id              4;
        parentId        3;
        description     "FO::dumpObjects::start";
        calls           1;
        totalTime       2.5e-05;
        childTime       0;
        onStack         0;
    }

    {
        id              19;
        parentId        17;
        description     "FO::fieldAverage1::execute";
        calls           97999;
        totalTime       5.27262000000443;
        childTime       0;
        onStack         0;
    }

    {
        id              5;
        parentId        3;
        description     "FO::fieldAverage1::start";
        calls           1;
        totalTime       0.00045;
        childTime       0;
        onStack         0;
    }

    {
        id              3;
        parentId        2;
        description     "functionObjectList::read";
        calls           1;
        totalTime       0.007644;
        childTime       0.000475;
        onStack         0;
    }

    {
        id              17;
        parentId        1;
        description     "functionObjects_.execute()";
        calls           97999;
        totalTime       5.88196199999688;
        childTime       5.69079800000889;
        onStack         0;
    }

    {
        id              2;
        parentId        1;
        description     "functionObjects_.start()";
        calls           1;
        totalTime       0.007656;
        childTime       0.007644;
        onStack         0;
    }

    {
        id              12;
        parentId        1;
        description     "fvMatrix::solve_N_Arm";
        calls           98133;
        totalTime       4.45680000000405;
        childTime       2.28563800000414;
        onStack         0;
    }

    {
        id              10;
        parentId        1;
        description     "fvMatrix::solve_N_Arp1";
        calls           98828;
        totalTime       4.70974399999979;
        childTime       2.34218600000224;
        onStack         0;
    }

    {
        id              8;
        parentId        1;
        description     "fvMatrix::solve_N_electron";
        calls           98721;
        totalTime       4.8937939999999;
        childTime       2.43662499999813;
        onStack         0;
    }

    {
        id              6;
        parentId        1;
        description     "fvMatrix::solve_Phi";
        calls           98000;
        totalTime       5.06781800000355;
        childTime       2.52399600000119;
        onStack         0;
    }

    {
        id              14;
        parentId        1;
        description     "fvMatrix::solve_Te";
        calls           99002;
        totalTime       5.08017500000129;
        childTime       2.44556299999832;
        onStack         0;
    }

    {
        id              13;
        parentId        12;
        description     "lduMatrix::solver_N_Arm";
        calls           98133;
        totalTime       2.28563800000414;
        childTime       0;
        onStack         0;
    }

    {
        id              11;
        parentId        10;
        description     "lduMatrix::solver_N_Arp1";
        calls           98828;
        totalTime       2.34218600000224;
        childTime       0;
        onStack         0;
    }

    {
        id              9;
        parentId        8;
        description     "lduMatrix::solver_N_electron";
        calls           98721;
        totalTime       2.43662499999813;
        childTime       0;
        onStack         0;
    }

    {
        id              7;
        parentId        6;
        description     "lduMatrix::solver_Phi";
        calls           98000;
        totalTime       2.52399600000119;
        childTime       0;
        onStack         0;
    }

    {
        id              15;
        parentId        14;
        description     "lduMatrix::solver_Te";
        calls           99002;
        totalTime       2.44556299999832;
        childTime       0;
        onStack         0;
    }
);


// ************************************************************************* //
