/*--------------------------------*- C++ -*----------------------------------*\
| =========                 |                                                 |
| \\      /  F ield         | foam-extend: Open Source CFD                    |
|  \\    /   O peration     | Version:     4.0                                |
|   \\  /    A nd           | Web:         http://www.foam-extend.org         |
|    \\/     M anipulation  |                                                 |
\*---------------------------------------------------------------------------*/
FoamFile
{
    version     2.0;
    format      ascii;
    class       volVectorField;
    location    "7e-10";
    object      E;
}
// * * * * * * * * * * * * * * * * * * * * * * * * * * * * * * * * * * * * * //

dimensions      [0 0 0 1 0 0 0];

internalField   nonuniform List<vector> 
249
(
(-0 15856.3885634875 -0)
(-0 10575.4751567281 -0)
(-0 10575.4757971663 -0)
(-0 10575.4773974402 -0)
(-0 10575.4774183606 -0)
(-0 10575.4761512246 -0)
(-0 10575.4753587542 -0)
(-0 10575.4753475986 -0)
(-0 10575.476143859 -0)
(-0 10575.4772864903 -0)
(-0 10575.4784786974 -0)
(-0 10575.478559923 -0)
(-0 10575.47779651 -0)
(-0 10575.4774635648 -0)
(-0 10575.4787017417 -0)
(-0 10575.4786648822 -0)
(-0 10575.4774675353 -0)
(-0 10575.4766849744 -0)
(-0 10575.4767000554 -0)
(-0 10575.4771153199 -0)
(-0 10575.4770946571 -0)
(-0 10575.4774495211 -0)
(-0 10575.4765905514 -0)
(-0 10575.4762049993 -0)
(-0 10575.4754776383 -0)
(-0 10575.4744212206 -0)
(-0 10575.4737153232 -0)
(-0 10575.4732639276 -0)
(-0 10575.4736271474 -0)
(-0 10575.4731779366 -0)
(-0 10575.4714242464 -0)
(-0 10575.4705411698 -0)
(-0 10575.4705978067 -0)
(-0 10575.4698351447 -0)
(-0 10575.4694776553 -0)
(-0 10575.4678653613 -0)
(-0 10575.4674982137 -0)
(-0 10575.468791749 -0)
(-0 10575.4691797695 -0)
(-0 10575.4695659601 -0)
(-0 10575.4700584056 -0)
(-0 10575.4700820994 -0)
(-0 10575.4695991403 -0)
(-0 10575.469980212 -0)
(-0 10575.4691684073 -0)
(-0 10575.4683771595 -0)
(-0 10575.4692101833 -0)
(-0 10575.4696273631 -0)
(-0 10575.4688152644 -0)
(-0 10575.4680197893 -0)
(-0 10575.4687722569 -0)
(-0 10575.4694908028 -0)
(-0 10575.4706495916 -0)
(-0 10575.4714407751 -0)
(-0 10575.4705966171 -0)
(-0 10575.4688871443 -0)
(-0 10575.4684321274 -0)
(-0 10575.470044972 -0)
(-0 10575.4708586123 -0)
(-0 10575.4716919051 -0)
(-0 10575.4729299943 -0)
(-0 10575.4733994385 -0)
(-0 10575.4726875758 -0)
(-0 10575.4727705941 -0)
(-0 10575.4735820158 -0)
(-0 10575.4730854863 -0)
(-0 10575.4730458821 -0)
(-0 10575.4742307566 -0)
(-0 10575.4758548534 -0)
(-0 10575.4775116177 -0)
(-0 10575.4782734777 -0)
(-0 10575.4777715734 -0)
(-0 10575.4773121657 -0)
(-0 10575.4777133167 -0)
(-0 10575.4776590156 -0)
(-0 10575.4764027422 -0)
(-0 10575.4763954801 -0)
(-0 10575.4762718922 -0)
(-0 10575.4757750281 -0)
(-0 10575.4770768134 -0)
(-0 10575.4779951831 -0)
(-0 10575.4787904718 -0)
(-0 10575.4791221501 -0)
(-0 10575.4782810744 -0)
(-0 10575.4774365936 -0)
(-0 10575.4781444251 -0)
(-0 10575.4797454675 -0)
(-0 10575.4790267216 -0)
(-0 10575.4778796404 -0)
(-0 10575.4782844642 -0)
(-0 10575.4782640889 -0)
(-0 10575.4787792318 -0)
(-0 10575.4796482255 -0)
(-0 10575.4796008368 -0)
(-0 10575.4796220013 -0)
(-0 10575.4792467043 -0)
(-0 10575.4787876134 -0)
(-0 10575.4792090718 -0)
(-0 10575.4792161848 -0)
(-0 10575.4780240132 -0)
(-0 10575.4781563827 -0)
(-0 10575.4785813535 -0)
(-0 10575.4781182341 -0)
(-0 10575.477694257 -0)
(-0 10575.4769012245 -0)
(-0 10575.476099127 -0)
(-0 10575.4753211043 -0)
(-0 10575.4753362778 -0)
(-0 10575.4753727163 -0)
(-0 10575.4746182301 -0)
(-0 10575.4738081226 -0)
(-0 10575.4733643045 -0)
(-0 10575.4732948992 -0)
(-0 10575.4740844531 -0)
(-0 10575.4752684528 -0)
(-0 10575.4760159448 -0)
(-0 10575.4768405204 -0)
(-0 10575.4768314503 -0)
(-0 10575.476252633 -0)
(-0 10575.4757127126 -0)
(-0 10575.4749343173 -0)
(-0 10575.4745870215 -0)
(-0 10575.4745827068 -0)
(-0 10575.4751515582 -0)
(-0 10575.4755442829 -0)
(-0 10575.4749192767 -0)
(-0 10575.4747192389 -0)
(-0 10575.4751077342 -0)
(-0 10575.4748875173 -0)
(-0 10575.4738787057 -0)
(-0 10575.47329057 -0)
(-0 10575.4730857909 -0)
(-0 10575.4724633762 -0)
(-0 10575.4721081926 -0)
(-0 10575.4727690935 -0)
(-0 10575.4736177999 -0)
(-0 10575.4744574651 -0)
(-0 10575.4749378148 -0)
(-0 10575.4745485552 -0)
(-0 10575.4734787676 -0)
(-0 10575.4722781015 -0)
(-0 10575.4723174522 -0)
(-0 10575.4727542564 -0)
(-0 10575.4729249499 -0)
(-0 10575.4728877849 -0)
(-0 10575.4726884186 -0)
(-0 10575.4723156787 -0)
(-0 10575.4723326822 -0)
(-0 10575.4727169786 -0)
(-0 10575.4723235865 -0)
(-0 10575.4719330499 -0)
(-0 10575.472140711 -0)
(-0 10575.472318013 -0)
(-0 10575.4727115978 -0)
(-0 10575.473497325 -0)
(-0 10575.4736267445 -0)
(-0 10575.4738415914 -0)
(-0 10575.4740956097 -0)
(-0 10575.4738650903 -0)
(-0 10575.4732387394 -0)
(-0 10575.4724378301 -0)
(-0 10575.4717981861 -0)
(-0 10575.4722229669 -0)
(-0 10575.4730678696 -0)
(-0 10575.4731302494 -0)
(-0 10575.4730263749 -0)
(-0 10575.4732769006 -0)
(-0 10575.473319663 -0)
(-0 10575.4727501018 -0)
(-0 10575.4726146323 -0)
(-0 10575.4724027702 -0)
(-0 10575.4721303778 -0)
(-0 10575.4719504685 -0)
(-0 10575.4719748636 -0)
(-0 10575.4717610543 -0)
(-0 10575.4716654683 -0)
(-0 10575.4724055213 -0)
(-0 10575.4726668483 -0)
(-0 10575.4726597855 -0)
(-0 10575.4729884048 -0)
(-0 10575.4733566778 -0)
(-0 10575.4735752797 -0)
(-0 10575.4733669883 -0)
(-0 10575.4731616774 -0)
(-0 10575.4727726448 -0)
(-0 10575.4719879338 -0)
(-0 10575.4711841022 -0)
(-0 10575.4705874245 -0)
(-0 10575.4705972126 -0)
(-0 10575.4701973294 -0)
(-0 10575.4697048312 -0)
(-0 10575.4695712895 -0)
(-0 10575.4694704282 -0)
(-0 10575.4692801748 -0)
(-0 10575.4686642898 -0)
(-0 10575.4685229099 -0)
(-0 10575.4690106281 -0)
(-0 10575.468948043 -0)
(-0 10575.4686815747 -0)
(-0 10575.4690125943 -0)
(-0 10575.4691121827 -0)
(-0 10575.4689091443 -0)
(-0 10575.4687610795 -0)
(-0 10575.468579488 -0)
(-0 10575.4686805938 -0)
(-0 10575.4687282289 -0)
(-0 10575.4684201176 -0)
(-0 10575.4686027472 -0)
(-0 10575.4689919967 -0)
(-0 10575.4687401188 -0)
(-0 10575.4684359016 -0)
(-0 10575.4683499027 -0)
(-0 10575.4680248614 -0)
(-0 10575.4676729858 -0)
(-0 10575.4673460058 -0)
(-0 10575.4670611865 -0)
(-0 10575.4669796375 -0)
(-0 10575.4669793282 -0)
(-0 10575.4670681061 -0)
(-0 10575.4671491745 -0)
(-0 10575.4672572477 -0)
(-0 10575.4674725715 -0)
(-0 10575.4673829704 -0)
(-0 10575.4670808292 -0)
(-0 10575.4670686818 -0)
(-0 10575.4670663006 -0)
(-0 10575.4670751997 -0)
(-0 10575.467169895 -0)
(-0 10575.4670956348 -0)
(-0 10575.4670576941 -0)
(-0 10575.4671381501 -0)
(-0 10575.46715504 -0)
(-0 10575.4669076634 -0)
(-0 10575.4666712209 -0)
(-0 10575.4667444904 -0)
(-0 10575.466910465 -0)
(-0 10575.4668469674 -0)
(-0 10575.4667957496 -0)
(-0 10575.4669039271 -0)
(-0 10575.4668415752 -0)
(-0 10575.4667978506 -0)
(-0 10575.4669640131 -0)
(-0 10575.4671529406 -0)
(-0 10575.4671932941 -0)
(-0 10575.4672048024 -0)
(-0 10575.4673790192 -0)
(-0 10575.4674908756 -0)
(-0 10575.4677032098 -0)
(-0 15863.9172743741 -0)
)
;

boundaryField
{
    dielectric_2
    {
        type            calculated;
        value           nonuniform 0();
    }
    dielectric_1
    {
        type            calculated;
        value           nonuniform 0();
    }
    otherfaces
    {
        type            empty;
    }
    procBoundary0to1
    {
        type            processor;
        value           uniform (-0 15849.311747518 -0);
    }
    procBoundary0to2
    {
        type            processor;
        value           uniform (-0 15864.5825446641 -0);
    }
}


// ************************************************************************* //
