/*--------------------------------*- C++ -*----------------------------------*\
| =========                 |                                                 |
| \\      /  F ield         | foam-extend: Open Source CFD                    |
|  \\    /   O peration     | Version:     4.0                                |
|   \\  /    A nd           | Web:         http://www.foam-extend.org         |
|    \\/     M anipulation  |                                                 |
\*---------------------------------------------------------------------------*/
FoamFile
{
    version     2.0;
    format      ascii;
    class       volScalarField;
    location    "5.6e-06";
    object      Arm;
}
// * * * * * * * * * * * * * * * * * * * * * * * * * * * * * * * * * * * * * //

dimensions      [0 0 0 1 0 0 0];

internalField   nonuniform List<scalar> 
300
(
3.57413088797402e+15
3.57600710482024e+15
3.57795548426365e+15
3.5792615416198e+15
3.580077789614e+15
3.58045633657208e+15
3.58044138707457e+15
3.58006438235977e+15
3.57935098167926e+15
3.57832316809459e+15
3.57699671734369e+15
3.5753857153974e+15
3.57350221566272e+15
3.5713568208508e+15
3.5689589880806e+15
3.56631726126897e+15
3.56343646597419e+15
3.56032518768221e+15
3.55699176736597e+15
3.5534426849767e+15
3.54968414197197e+15
3.5457220600293e+15
3.54156212916803e+15
3.53720979186091e+15
3.53265438628877e+15
3.52791363703437e+15
3.52299125122418e+15
3.51788924823396e+15
3.51262121452469e+15
3.5071920282835e+15
3.5015879438388e+15
3.49582033003955e+15
3.48990728767189e+15
3.4838542035914e+15
3.47766616405544e+15
3.47134796928574e+15
3.46489979646146e+15
3.45832816005358e+15
3.45164012783922e+15
3.44483923628937e+15
3.43792898959547e+15
3.4309146630237e+15
3.42380013783926e+15
3.41658910561241e+15
3.40928506651816e+15
3.40189128363742e+15
3.39440870244489e+15
3.38683876832178e+15
3.37917372245716e+15
3.37141214962425e+15
3.36354145719419e+15
3.35557413779916e+15
3.34750481001946e+15
3.33935118343471e+15
3.33112139658149e+15
3.32283181420784e+15
3.31448574092424e+15
3.30608609288512e+15
3.2976354416197e+15
3.28913420683678e+15
3.28058670221331e+15
3.27199503795042e+15
3.26335586647632e+15
3.25465123499249e+15
3.24588512167769e+15
3.23708309992372e+15
3.22824726952624e+15
3.2193794702254e+15
3.21048128785831e+15
3.20155408142589e+15
3.1925970042806e+15
3.18360290839279e+15
3.17457025776014e+15
3.16550649044128e+15
3.15639807311519e+15
3.1472460621315e+15
3.13805679696046e+15
3.128826156294e+15
3.11957410108828e+15
3.1102700999456e+15
3.10094871535753e+15
3.09161208035941e+15
3.08225711345955e+15
3.07288606965389e+15
3.06348413915314e+15
3.05405905924938e+15
3.04462253176441e+15
3.03517487681546e+15
3.02570419163414e+15
3.01621822238894e+15
3.00671094812217e+15
2.99713734762724e+15
2.98755265658798e+15
2.97795852593797e+15
2.96835498500886e+15
2.95874205987505e+15
2.94911953223795e+15
2.93948696702717e+15
2.92983343320981e+15
2.9201588686362e+15
2.9104695337862e+15
2.90076670184873e+15
2.89101862969649e+15
2.88125452112144e+15
2.8714651657249e+15
2.86164122408484e+15
2.85179770573377e+15
2.84191501243528e+15
2.83200356046234e+15
2.82206880095574e+15
2.81210886541248e+15
2.80212146616581e+15
2.79209886520928e+15
2.78203884902795e+15
2.77193919344773e+15
2.76178224955061e+15
2.75154914104391e+15
2.74126465226822e+15
2.73092966001688e+15
2.72053608240985e+15
2.71005754414752e+15
2.69950698892975e+15
2.68885544681371e+15
2.67811330327051e+15
2.66729198590685e+15
2.65638929114557e+15
2.64537712391859e+15
2.63427290236393e+15
2.62306580726759e+15
2.6117537924319e+15
2.60032122043155e+15
2.58876421833105e+15
2.57707778363361e+15
2.56523583180346e+15
2.55320191405983e+15
2.54099486934792e+15
2.52861861775643e+15
2.51604812425796e+15
2.50326453559529e+15
2.49027696057409e+15
2.47706941795978e+15
2.4636252491889e+15
2.44991231275958e+15
2.43589851173377e+15
2.42155924187405e+15
2.40691428487164e+15
2.39194878113077e+15
2.37664636380978e+15
2.36097649462878e+15
2.34489030212354e+15
2.32840019292337e+15
2.31148141875382e+15
2.29407173486646e+15
2.27616993522324e+15
2.25775776005962e+15
2.23878548897877e+15
2.21920987994016e+15
2.19903036701231e+15
2.17822780293766e+15
2.15675723576283e+15
2.13458306179147e+15
2.11169017963005e+15
2.08804035402035e+15
2.06364611062885e+15
2.03849445099787e+15
2.01253083313967e+15
1.9857760662184e+15
1.95827470993728e+15
1.93005573876422e+15
1.90116112513824e+15
1.87165945657456e+15
1.84158408205957e+15
1.81102738921351e+15
1.78016087627283e+15
1.74917848032395e+15
1.71825005726303e+15
1.68755479518331e+15
1.65729169855267e+15
1.62769954082285e+15
1.59893391093379e+15
1.57114908502962e+15
1.54449209553881e+15
1.51904432293124e+15
1.49492052624646e+15
1.472120577649e+15
1.45055429264814e+15
1.43026144204998e+15
1.41119145305961e+15
1.39325826532166e+15
1.37638084081945e+15
1.36046381569193e+15
1.34555410186411e+15
1.33212661171822e+15
1.32520085416874e+15
1.35089003497553e+15
1.416063383134e+15
1.49364987951115e+15
1.55280904312152e+15
1.59431404397525e+15
1.62271185699177e+15
1.63832948326748e+15
1.63360311394195e+15
1.61013494676867e+15
1.57595111630725e+15
1.53997398606373e+15
1.50857174068553e+15
1.4838943342701e+15
1.46598384351118e+15
1.45356747116031e+15
1.44507212281003e+15
1.43904422721956e+15
1.4342291205649e+15
1.43067392186377e+15
1.42749486569481e+15
1.42424512019411e+15
1.42115030113487e+15
1.41797385948846e+15
1.41459730936583e+15
1.41091571469158e+15
1.40687111507347e+15
1.40243996845169e+15
1.39748106127286e+15
1.39190442180525e+15
1.38577513524487e+15
1.37918419190264e+15
1.37229420188286e+15
1.36514939427816e+15
1.35777340707793e+15
1.35020536159085e+15
1.34248990926871e+15
1.33464847354249e+15
1.32671740365571e+15
1.31873677303333e+15
1.31072858797589e+15
1.30271687179324e+15
1.29474070601423e+15
1.28680458985915e+15
1.27894579541308e+15
1.27116929171986e+15
1.2634997679844e+15
1.25594992659622e+15
1.24852242614202e+15
1.2412405359689e+15
1.23409714533179e+15
1.22710421878114e+15
1.22028175426752e+15
1.21361929496869e+15
1.20712676196128e+15
1.20080796355115e+15
1.19465547695744e+15
1.18867638279301e+15
1.18286627676402e+15
1.17722165051507e+15
1.17174671894276e+15
1.1664336940168e+15
1.16128064674464e+15
1.15628598035807e+15
1.15143419042611e+15
1.14673368483924e+15
1.14217654062101e+15
1.13776812081132e+15
1.13349539843123e+15
1.12936072552971e+15
1.12535536903437e+15
1.12147657362597e+15
1.11772009253596e+15
1.11407780010849e+15
1.11054606116236e+15
1.10711377884245e+15
1.10378633550104e+15
1.10055538850347e+15
1.09742587459565e+15
1.09438462061667e+15
1.0914372546233e+15
1.08857158198901e+15
1.08578601408835e+15
1.08307867034353e+15
1.08044938554151e+15
1.07789995015054e+15
1.07542379769555e+15
1.07301954852843e+15
1.07064666613981e+15
1.06816643196552e+15
1.06568477164685e+15
1.06326304918492e+15
1.06089140018393e+15
1.05857810725355e+15
1.05632493747526e+15
1.05412167000714e+15
1.0516311245463e+15
1.04908967751228e+15
1.04661070056436e+15
1.04419808001587e+15
1.04135222566318e+15
1.03848331421203e+15
1.03547885005728e+15
1.0320430964007e+15
1.02821977305175e+15
1.0238261545539e+15
1.01849343806916e+15
)
;

boundaryField
{
    electrode
    {
        type            zeroGradient;
    }
    ground
    {
        type            zeroGradient;
    }
    otherfaces
    {
        type            empty;
    }
}


// ************************************************************************* //
