/*--------------------------------*- C++ -*----------------------------------*\
| =========                 |                                                 |
| \\      /  F ield         | foam-extend: Open Source CFD                    |
|  \\    /   O peration     | Version:     4.0                                |
|   \\  /    A nd           | Web:         http://www.foam-extend.org         |
|    \\/     M anipulation  |                                                 |
\*---------------------------------------------------------------------------*/
FoamFile
{
    version     2.0;
    format      ascii;
    class       volScalarField;
    location    "5.6e-06";
    object      Arp1;
}
// * * * * * * * * * * * * * * * * * * * * * * * * * * * * * * * * * * * * * //

dimensions      [0 0 0 1 0 0 0];

internalField   nonuniform List<scalar> 
300
(
6.225979450483e+16
6.23020926975062e+16
6.22763954480914e+16
6.22715460678121e+16
6.22622775277019e+16
6.22491306812536e+16
6.22336528602841e+16
6.2215189369239e+16
6.21938377667939e+16
6.21696113604496e+16
6.21424938309672e+16
6.21124865588208e+16
6.20795868772501e+16
6.20437919329038e+16
6.20050990609633e+16
6.19635053281569e+16
6.19190076585287e+16
6.187160281935e+16
6.1821287409754e+16
6.17680578593517e+16
6.17119104222717e+16
6.16528411724837e+16
6.15908459985331e+16
6.15259205978297e+16
6.14580604714375e+16
6.13872609185792e+16
6.13135170303707e+16
6.12368236845484e+16
6.11571755395894e+16
6.107456702855e+16
6.09889923532914e+16
6.09004454789723e+16
6.08089201277161e+16
6.07144097729453e+16
6.06169076340464e+16
6.0516406670222e+16
6.04128995752289e+16
6.03063787723528e+16
6.01968364085435e+16
6.00842643499335e+16
5.99686541771524e+16
5.98499971801718e+16
5.9728284354458e+16
5.96035063969108e+16
5.9475653702444e+16
5.9344716360817e+16
5.92106841540565e+16
5.90735465518126e+16
5.89332926997853e+16
5.87899114200651e+16
5.86433912383945e+16
5.84937204415949e+16
5.83408871196169e+16
5.81848788305924e+16
5.8025681971232e+16
5.78632816368967e+16
5.76976641110963e+16
5.75288226488912e+16
5.73567554998689e+16
5.71814289443324e+16
5.70028246704925e+16
5.68209267398478e+16
5.66357178443334e+16
5.64471802754274e+16
5.62552960554499e+16
5.6060046981605e+16
5.58614146432162e+16
5.56593804296995e+16
5.5453925536239e+16
5.52450309704061e+16
5.50326775594615e+16
5.48168459579576e+16
5.45975166570926e+16
5.43746699948832e+16
5.41482861666474e+16
5.39183452373317e+16
5.36848271543091e+16
5.34477117607911e+16
5.32069788104695e+16
5.29626079831271e+16
5.27145789004363e+16
5.24628711428828e+16
5.22074642677243e+16
5.19483378269152e+16
5.16854713861586e+16
5.14188445447703e+16
5.11484369554817e+16
5.08742283452832e+16
5.0596198536834e+16
5.03143274697736e+16
5.00285952229908e+16
4.97389820372072e+16
4.94454683375896e+16
4.91480347566819e+16
4.88466621581128e+16
4.85413316596604e+16
4.82320246569828e+16
4.7918722847514e+16
4.76014082538521e+16
4.72800632475748e+16
4.69546705730735e+16
4.66252133708219e+16
4.62916752006277e+16
4.59540400651197e+16
4.56122924323031e+16
4.52664172580085e+16
4.4916400008383e+16
4.45622266814298e+16
4.42038838281704e+16
4.38413585738822e+16
4.34746386380942e+16
4.31037123543031e+16
4.2728568689511e+16
4.23491972625862e+16
4.19655883622204e+16
4.15777329647018e+16
4.11856227505523e+16
4.07892501208024e+16
4.03886082131253e+16
3.99836909168753e+16
3.95744928882695e+16
3.91610095652003e+16
3.87432371816726e+16
3.83211727824415e+16
3.78948142380519e+16
3.74641602600736e+16
3.70292104165032e+16
3.65899651508681e+16
3.61464257973631e+16
3.56985946065511e+16
3.52464747630613e+16
3.47900704184501e+16
3.43293867134825e+16
3.38644298287655e+16
3.33952070176175e+16
3.29217266172576e+16
3.24439982555951e+16
3.19620327303102e+16
3.14758420649761e+16
3.09854399390268e+16
3.04908422570312e+16
2.9992064546753e+16
2.94891239497967e+16
2.89820506603829e+16
2.84708608014197e+16
2.79555484048822e+16
2.74362107051247e+16
2.69128960895117e+16
2.63855809478511e+16
2.585430672098e+16
2.53191236790414e+16
2.47800758026881e+16
2.42372293919532e+16
2.36906485611488e+16
2.31403952389833e+16
2.25866355997813e+16
2.20292851086504e+16
2.14688821922479e+16
2.0904846379677e+16
2.03384884111516e+16
1.97684915929164e+16
1.91968899233037e+16
1.86220458652548e+16
1.80448344808196e+16
1.7477147422166e+16
1.69118668563621e+16
1.63395076971126e+16
1.57671837484569e+16
1.5195242990583e+16
1.46317502678035e+16
1.40745027220722e+16
1.35273402618613e+16
1.29919774608142e+16
1.24546441773836e+16
1.19064283215282e+16
1.14100903035369e+16
1.09282788472721e+16
1.04038457505355e+16
9.94704702774389e+15
9.52968141910103e+15
9.05299098799589e+15
8.65993544392193e+15
8.29844672165568e+15
7.89778193477383e+15
7.56806324775116e+15
7.27935251906162e+15
6.94951950526962e+15
6.68324983787801e+15
6.45884384800134e+15
6.21397163607302e+15
5.99530858501544e+15
5.81349100460396e+15
5.67144857802318e+15
5.49179133310071e+15
5.35114713673459e+15
5.22517159547056e+15
5.14226224141812e+15
5.07047254134509e+15
5.00734800759739e+15
4.96419043540459e+15
4.96780761629586e+15
4.98241762389312e+15
5.01904936647756e+15
5.02606748330832e+15
5.01233628509177e+15
4.97857461946897e+15
4.93131479083203e+15
4.88159921533899e+15
4.83277386017908e+15
4.7866250545048e+15
4.74437003812611e+15
4.70641540808239e+15
4.66890032222368e+15
4.61558542069959e+15
4.5679114070649e+15
4.52324079593004e+15
4.48371695095656e+15
4.44658609289644e+15
4.41414704218136e+15
4.38355195357714e+15
4.35727758513499e+15
4.33233525656003e+15
4.31134812856101e+15
4.291232994195e+15
4.27310138503689e+15
4.24155543209765e+15
4.21408025445754e+15
4.18631379507767e+15
4.16239445170045e+15
4.13782996113931e+15
4.11695090947437e+15
4.09513313976051e+15
4.07689415477722e+15
4.05746204699649e+15
4.04155184130046e+15
4.02421540943787e+15
4.01035738788746e+15
3.99485436191174e+15
3.98280787076687e+15
3.9689340898497e+15
3.95851644099935e+15
3.94533986347542e+15
3.92623039115518e+15
3.90526392293888e+15
3.88764573307244e+15
3.86801011015157e+15
3.85175916449451e+15
3.8333332315141e+15
3.81834413483495e+15
3.80101380203447e+15
3.78717430922996e+15
3.77083417555564e+15
3.7580473801503e+15
3.74261250746359e+15
3.7307934633908e+15
3.71619289109903e+15
3.70527646033304e+15
3.69147114236894e+15
3.68141430060232e+15
3.66836042458857e+15
3.6591132821778e+15
3.64675590848727e+15
3.63827246707111e+15
3.6265659216212e+15
3.61880822942422e+15
3.60772510317367e+15
3.59408135073816e+15
3.57727298798425e+15
3.56440981781504e+15
3.54827964698942e+15
3.53615838032663e+15
3.52066999441214e+15
3.50925021721896e+15
3.49435273398589e+15
3.48358642040072e+15
3.4692309615057e+15
3.45908052672761e+15
3.44523327328972e+15
3.43566350578354e+15
3.42229938603343e+15
3.41327997091327e+15
3.40038165132491e+15
3.3918949215441e+15
3.37945075070194e+15
3.37147672185431e+15
3.35946535557165e+15
3.35199639487464e+15
3.34039618313261e+15
3.33341984182839e+15
3.32220545400339e+15
3.315695852e+15
3.3048231852945e+15
3.29875337224943e+15
3.28820948171987e+15
3.28255313253065e+15
3.27229773540466e+15
3.26703209426178e+15
3.25700758844931e+15
3.2520562997635e+15
3.23974757971772e+15
)
;

boundaryField
{
    electrode
    {
        type            driftDiffusionPositiveIonDensity;
        seec            0;
        fieldName       Arp1;
        value           uniform 6.20802584533112e+16;
    }
    ground
    {
        type            driftDiffusionPositiveIonDensity;
        seec            0;
        fieldName       Arp1;
        value           uniform 3.23974757971772e+15;
    }
    otherfaces
    {
        type            empty;
    }
}


// ************************************************************************* //
