/*--------------------------------*- C++ -*----------------------------------*\
| =========                 |                                                 |
| \\      /  F ield         | foam-extend: Open Source CFD                    |
|  \\    /   O peration     | Version:     4.0                                |
|   \\  /    A nd           | Web:         http://www.foam-extend.org         |
|    \\/     M anipulation  |                                                 |
\*---------------------------------------------------------------------------*/
FoamFile
{
    version     2.0;
    format      ascii;
    class       volVectorField;
    location    "5.6e-06";
    object      J_electron;
}
// * * * * * * * * * * * * * * * * * * * * * * * * * * * * * * * * * * * * * //

dimensions      [1 -1 -1 0 0 0 0];

internalField   nonuniform List<vector> 
300
(
(-1.30288061638819e+19 0 0)
(-1.33688955063753e+19 0 0)
(-1.57883463929662e+19 0 0)
(-1.53142318725266e+19 0 0)
(-1.53156270020703e+19 0 0)
(-1.53025297674121e+19 0 0)
(-1.52418437694469e+19 0 0)
(-1.51964755670057e+19 0 0)
(-1.5148757286289e+19 0 0)
(-1.51004413793696e+19 0 0)
(-1.50524540191146e+19 0 0)
(-1.50043399662011e+19 0 0)
(-1.49561876146072e+19 0 0)
(-1.49079989740522e+19 0 0)
(-1.48597615664266e+19 0 0)
(-1.48114748407978e+19 0 0)
(-1.47631350626424e+19 0 0)
(-1.47147386099584e+19 0 0)
(-1.46662819714021e+19 0 0)
(-1.46177615932972e+19 0 0)
(-1.45691737982715e+19 0 0)
(-1.45205149354853e+19 0 0)
(-1.44717812320296e+19 0 0)
(-1.44229689285167e+19 0 0)
(-1.43740741482937e+19 0 0)
(-1.43250930557273e+19 0 0)
(-1.4276021656224e+19 0 0)
(-1.42268560100985e+19 0 0)
(-1.41775920267196e+19 0 0)
(-1.41282256229697e+19 0 0)
(-1.40787526575874e+19 0 0)
(-1.40291689563425e+19 0 0)
(-1.39794702391999e+19 0 0)
(-1.39296522497688e+19 0 0)
(-1.3879710683999e+19 0 0)
(-1.38296411123287e+19 0 0)
(-1.37794391887439e+19 0 0)
(-1.37291004212439e+19 0 0)
(-1.36786203729114e+19 0 0)
(-1.36279944916734e+19 0 0)
(-1.35772183041797e+19 0 0)
(-1.35262872288483e+19 0 0)
(-1.3475196688994e+19 0 0)
(-1.34239420892039e+19 0 0)
(-1.3372518750345e+19 0 0)
(-1.33209220981066e+19 0 0)
(-1.32691478269547e+19 0 0)
(-1.32171921393501e+19 0 0)
(-1.31650505664488e+19 0 0)
(-1.3112715154546e+19 0 0)
(-1.30601738342674e+19 0 0)
(-1.30074199732663e+19 0 0)
(-1.29544820927263e+19 0 0)
(-1.29014344753611e+19 0 0)
(-1.28482928239032e+19 0 0)
(-1.27947466394053e+19 0 0)
(-1.27400108327533e+19 0 0)
(-1.26836280066116e+19 0 0)
(-1.26272964606752e+19 0 0)
(-1.25721396898368e+19 0 0)
(-1.25172773258126e+19 0 0)
(-1.24622712476569e+19 0 0)
(-1.24070140982977e+19 0 0)
(-1.23514700285773e+19 0 0)
(-1.22956272573292e+19 0 0)
(-1.22394812517877e+19 0 0)
(-1.21830298416707e+19 0 0)
(-1.21262714993815e+19 0 0)
(-1.20692049284757e+19 0 0)
(-1.20118289245867e+19 0 0)
(-1.19541423922767e+19 0 0)
(-1.18961442292315e+19 0 0)
(-1.18378334167693e+19 0 0)
(-1.17792090822392e+19 0 0)
(-1.17202703639868e+19 0 0)
(-1.16610165301256e+19 0 0)
(-1.16014470366314e+19 0 0)
(-1.15415613456969e+19 0 0)
(-1.14813591608759e+19 0 0)
(-1.1420840270308e+19 0 0)
(-1.1360004633461e+19 0 0)
(-1.12988523360205e+19 0 0)
(-1.12373836564967e+19 0 0)
(-1.11755990131828e+19 0 0)
(-1.11134989847091e+19 0 0)
(-1.10510843510076e+19 0 0)
(-1.09883559664917e+19 0 0)
(-1.09253149337159e+19 0 0)
(-1.08619624639664e+19 0 0)
(-1.0798299940198e+19 0 0)
(-1.0734328874579e+19 0 0)
(-1.06700509457469e+19 0 0)
(-1.06054678992315e+19 0 0)
(-1.05405817109013e+19 0 0)
(-1.04753943339215e+19 0 0)
(-1.04099078972039e+19 0 0)
(-1.0344124575598e+19 0 0)
(-1.02780466351309e+19 0 0)
(-1.02116763066921e+19 0 0)
(-1.01450159077909e+19 0 0)
(-1.00780677223536e+19 0 0)
(-1.00108339695625e+19 0 0)
(-9.9433168654492e+18 0 0)
(-9.87551846168684e+18 0 0)
(-9.8074406775921e+18 0 0)
(-9.73908529247001e+18 0 0)
(-9.67045383203953e+18 0 0)
(-9.60154756535078e+18 0 0)
(-9.53236743226393e+18 0 0)
(-9.46291402546191e+18 0 0)
(-9.39318744605891e+18 0 0)
(-9.32318732989025e+18 0 0)
(-9.25291273028842e+18 0 0)
(-9.18236201779043e+18 0 0)
(-9.11153284112554e+18 0 0)
(-9.04042200798803e+18 0 0)
(-8.969025350347e+18 0 0)
(-8.89733768989691e+18 0 0)
(-8.82535262443222e+18 0 0)
(-8.75306244035523e+18 0 0)
(-8.68045799063604e+18 0 0)
(-8.60752842386047e+18 0 0)
(-8.53426114205686e+18 0 0)
(-8.46064148526242e+18 0 0)
(-8.38665257226915e+18 0 0)
(-8.31227504761346e+18 0 0)
(-8.23748675941538e+18 0 0)
(-8.16226256900273e+18 0 0)
(-8.08657386164873e+18 0 0)
(-8.01038833778688e+18 0 0)
(-7.93366947979067e+18 0 0)
(-7.85637613945383e+18 0 0)
(-7.77846189009299e+18 0 0)
(-7.69987450400617e+18 0 0)
(-7.62055674893487e+18 0 0)
(-7.54044042905754e+18 0 0)
(-7.45945231163077e+18 0 0)
(-7.37751706573996e+18 0 0)
(-7.29453441592538e+18 0 0)
(-7.21037674051482e+18 0 0)
(-7.12499124147008e+18 0 0)
(-7.03828158598926e+18 0 0)
(-6.94973656904971e+18 0 0)
(-6.85954476672654e+18 0 0)
(-6.76850007324754e+18 0 0)
(-6.67292312990541e+18 0 0)
(-6.57114216704613e+18 0 0)
(-6.46842920380085e+18 0 0)
(-6.36568579064988e+18 0 0)
(-6.26002990611615e+18 0 0)
(-6.15081905537889e+18 0 0)
(-6.03744230037992e+18 0 0)
(-5.91937908867754e+18 0 0)
(-5.79675410347852e+18 0 0)
(-5.66684616934975e+18 0 0)
(-5.53396970903621e+18 0 0)
(-5.38769107768259e+18 0 0)
(-5.24285288746739e+18 0 0)
(-5.0768284457464e+18 0 0)
(-4.91118548153165e+18 0 0)
(-4.71993167565763e+18 0 0)
(-4.49656608547091e+18 0 0)
(-4.2113979235445e+18 0 0)
(-3.48445749741827e+18 0 0)
(-2.69170781921477e+18 0 0)
(-2.51744669165578e+18 0 0)
(-2.49756325277965e+18 0 0)
(-2.24872820852759e+18 0 0)
(-1.73064943426758e+18 0 0)
(-1.10137944255339e+18 0 0)
(-5.69508586186605e+17 0 0)
(-1.69816685692322e+17 0 0)
(-3.55681636310843e+17 0 0)
(-1.17756807249343e+18 0 0)
(-8.01272288108347e+17 0 0)
(-2.49765432839373e+17 0 0)
(-2.20805251651338e+18 0 0)
(-2.93519823639622e+18 0 0)
(-2.40894038278616e+18 0 0)
(-4.15635307267464e+18 0 0)
(-4.84487688129243e+18 0 0)
(-4.02431101068378e+18 0 0)
(-4.49906574868716e+18 0 0)
(-3.75180398697644e+18 0 0)
(-1.64295778572645e+18 0 0)
(-1.20451856138764e+17 0 0)
(2.19624170839605e+18 0 0)
(5.21327943011795e+18 0 0)
(7.54848041080612e+18 0 0)
(9.50489839600717e+18 0 0)
(1.11370773863612e+19 0 0)
(1.16092295317425e+19 0 0)
(1.28302699076489e+19 0 0)
(1.01284782109267e+19 0 0)
(9.24624110898918e+18 0 0)
(7.41522485709164e+18 0 0)
(5.78414608549157e+18 0 0)
(7.71932594655153e+18 0 0)
(-2.12098637945625e+18 0 0)
(-2.79636105721643e+17 0 0)
(6.64401956604953e+17 0 0)
(-2.10065203010974e+18 0 0)
(-2.26718804098254e+18 0 0)
(-2.17876697789469e+18 0 0)
(-2.19244785890648e+18 0 0)
(-2.39417172199159e+18 0 0)
(-2.65230317333884e+18 0 0)
(-2.85091274138241e+18 0 0)
(-2.95754940450453e+18 0 0)
(-2.99970707366447e+18 0 0)
(-3.00212789782931e+18 0 0)
(-2.98401492829309e+18 0 0)
(-2.9548317187186e+18 0 0)
(-2.91627712018421e+18 0 0)
(-2.87891251802999e+18 0 0)
(-2.83674252420189e+18 0 0)
(-2.79155819332602e+18 0 0)
(-2.74446089074955e+18 0 0)
(-2.69743417019104e+18 0 0)
(-2.64923898695602e+18 0 0)
(-2.60220139153263e+18 0 0)
(-2.55419520559494e+18 0 0)
(-2.50592019383384e+18 0 0)
(-2.45755310540584e+18 0 0)
(-2.40925094915731e+18 0 0)
(-2.36110376183117e+18 0 0)
(-2.31320051908689e+18 0 0)
(-2.26564410413509e+18 0 0)
(-2.21851661501292e+18 0 0)
(-2.17189396309822e+18 0 0)
(-2.12584452035203e+18 0 0)
(-2.08042935349009e+18 0 0)
(-2.03570289000778e+18 0 0)
(-1.99171241609693e+18 0 0)
(-1.94849899673929e+18 0 0)
(-1.90609707442245e+18 0 0)
(-1.86453512066475e+18 0 0)
(-1.82383663027636e+18 0 0)
(-1.7840141480463e+18 0 0)
(-1.74509409566676e+18 0 0)
(-1.70698721259897e+18 0 0)
(-1.66991824590292e+18 0 0)
(-1.63377002582349e+18 0 0)
(-1.59846138772694e+18 0 0)
(-1.56405351107339e+18 0 0)
(-1.53053258421079e+18 0 0)
(-1.49789180050264e+18 0 0)
(-1.46611767617144e+18 0 0)
(-1.43519568052789e+18 0 0)
(-1.4051091520495e+18 0 0)
(-1.37584053345898e+18 0 0)
(-1.34737075222085e+18 0 0)
(-1.31968144628518e+18 0 0)
(-1.29275015988987e+18 0 0)
(-1.2665772703797e+18 0 0)
(-1.24105034165176e+18 0 0)
(-1.21628534766042e+18 0 0)
(-1.19222625766029e+18 0 0)
(-1.16875152021974e+18 0 0)
(-1.1459406401135e+18 0 0)
(-1.12374015597626e+18 0 0)
(-1.10213572044237e+18 0 0)
(-1.08110602320932e+18 0 0)
(-1.06063240131324e+18 0 0)
(-1.04069619625906e+18 0 0)
(-1.0212813734752e+18 0 0)
(-1.00236835370533e+18 0 0)
(-9.83933519443748e+17 0 0)
(-9.65972830538171e+17 0 0)
(-9.48380645007221e+17 0 0)
(-9.3135128442895e+17 0 0)
(-9.14748766577113e+17 0 0)
(-8.98515209075622e+17 0 0)
(-8.82677629051273e+17 0 0)
(-8.67222680763322e+17 0 0)
(-8.52140706637634e+17 0 0)
(-8.3742011210637e+17 0 0)
(-8.23049677569041e+17 0 0)
(-8.09018482720166e+17 0 0)
(-7.95315360311184e+17 0 0)
(-7.81929496399281e+17 0 0)
(-7.68841522446716e+17 0 0)
(-7.56030126553083e+17 0 0)
(-7.43340658139258e+17 0 0)
(-7.31461775403895e+17 0 0)
(-7.19588389226019e+17 0 0)
(-7.0800829685402e+17 0 0)
(-6.96684840448786e+17 0 0)
(-6.85519993381219e+17 0 0)
(-6.74613556548652e+17 0 0)
(-6.64499148666827e+17 0 0)
(-6.54344658231774e+17 0 0)
(-6.44058887532361e+17 0 0)
(-6.34912299734137e+17 0 0)
(-6.25601709768678e+17 0 0)
(-6.16885419244838e+17 0 0)
(-6.08735776415409e+17 0 0)
(-6.01835821788525e+17 0 0)
(-5.95572882318564e+17 0 0)
(-5.85102877808767e+17 0 0)
)
;

boundaryField
{
    electrode
    {
        type            calculated;
        value           uniform (-1.55581779260631e+19 0 0);
    }
    ground
    {
        type            calculated;
        value           uniform (-5.82502548021408e+17 0 0);
    }
    otherfaces
    {
        type            empty;
    }
}


// ************************************************************************* //
