/*--------------------------------*- C++ -*----------------------------------*\
| =========                 |                                                 |
| \\      /  F ield         | foam-extend: Open Source CFD                    |
|  \\    /   O peration     | Version:     4.0                                |
|   \\  /    A nd           | Web:         http://www.foam-extend.org         |
|    \\/     M anipulation  |                                                 |
\*---------------------------------------------------------------------------*/
FoamFile
{
    version     2.0;
    format      ascii;
    class       volScalarField;
    location    "5.6e-06";
    object      N_electronMean;
}
// * * * * * * * * * * * * * * * * * * * * * * * * * * * * * * * * * * * * * //

dimensions      [0 0 0 1 0 0 0];

internalField   nonuniform List<scalar> 
300
(
6.01818326863931e+16
6.01803562197633e+16
6.01762661100335e+16
6.01690812262768e+16
6.01588359231105e+16
6.01454924558501e+16
6.01290288397134e+16
6.0109432602339e+16
6.0086692202037e+16
6.00607991527532e+16
6.00317474193094e+16
5.99995331697311e+16
5.996415462121e+16
5.99256118631577e+16
5.98839067365861e+16
5.98390427141297e+16
5.97910247979254e+16
5.97398594318903e+16
5.96855544164323e+16
5.96281188277229e+16
5.95675629463232e+16
5.95038981896021e+16
5.94371370465148e+16
5.93672930108293e+16
5.92943805323152e+16
5.92184149784304e+16
5.91394125642822e+16
5.90573902829316e+16
5.89723658485004e+16
5.8884357619531e+16
5.87933845492578e+16
5.86994661719682e+16
5.86026225331085e+16
5.85028740770589e+16
5.84002415663117e+16
5.82947460166677e+16
5.81864086333896e+16
5.8075250752616e+16
5.7961293777329e+16
5.78445591122946e+16
5.77250681105275e+16
5.76028420187271e+16
5.74779019125481e+16
5.73502686373308e+16
5.7219962756777e+16
5.70870045029008e+16
5.69514137293063e+16
5.68132098694711e+16
5.66724119043694e+16
5.65290383391613e+16
5.63831072018546e+16
5.62346360429633e+16
5.60836419000712e+16
5.59301412328396e+16
5.57741498302971e+16
5.56156827151423e+16
5.54547540612207e+16
5.52913771292215e+16
5.51255642201146e+16
5.49573266333536e+16
5.47866746296901e+16
5.46136173939077e+16
5.44381629912655e+16
5.42603183570548e+16
5.40800893264005e+16
5.38974805917317e+16
5.37124955924925e+16
5.35251364484988e+16
5.33354039265574e+16
5.31432974063468e+16
5.29488148459097e+16
5.27519527650451e+16
5.25527062626109e+16
5.23510689979243e+16
5.21470331306555e+16
5.19405893215249e+16
5.1731726755762e+16
5.15204331126034e+16
5.13066944838329e+16
5.10904953231626e+16
5.08718184391444e+16
5.06506449113565e+16
5.04269540098965e+16
5.02007231680098e+16
4.99719279699474e+16
4.9740542164509e+16
4.95065376286684e+16
4.92698842901356e+16
4.90305500931237e+16
4.87885009958949e+16
4.85437009410548e+16
4.82961118740931e+16
4.80456937754754e+16
4.77924045661675e+16
4.75362000191558e+16
4.72770337387027e+16
4.70148571389906e+16
4.67496194237591e+16
4.64812675665627e+16
4.62097463048416e+16
4.59349981331895e+16
4.56569632708039e+16
4.53755796687163e+16
4.50907830421659e+16
4.4802506830595e+16
4.45106821740521e+16
4.42152379177047e+16
4.39161006013719e+16
4.36131944706972e+16
4.33064414559768e+16
4.29957611396516e+16
4.26810707534753e+16
4.23622851901846e+16
4.2039317037204e+16
4.17120765902132e+16
4.13804718674623e+16
4.10444086842028e+16
4.070379069198e+16
4.03585193410978e+16
4.0008493855093e+16
3.9653611276498e+16
3.92937665366868e+16
3.89288525163005e+16
3.85587601188924e+16
3.81833782721327e+16
3.7802593878487e+16
3.74162918457118e+16
3.70243551509257e+16
3.66266648601787e+16
3.62231001618138e+16
3.58135384348007e+16
3.5397855317165e+16
3.49759247632498e+16
3.45476190992343e+16
3.41128091583347e+16
3.36713644394475e+16
3.32231531428585e+16
3.27680421529352e+16
3.23058970861925e+16
3.18365823858117e+16
3.13599613806427e+16
3.08758963388895e+16
3.03842485501946e+16
2.98848784269003e+16
2.93776456820276e+16
2.88624094895254e+16
2.83390285334663e+16
2.78073610658673e+16
2.72672649957764e+16
2.6718598053626e+16
2.61612180140805e+16
2.55949828003212e+16
2.50197506084074e+16
2.4435380129423e+16
2.3841730662534e+16
2.32386623719396e+16
2.26260365933829e+16
2.20037162727157e+16
2.13715660276553e+16
2.07294516341234e+16
2.00772369032794e+16
1.94147650199734e+16
1.87418319032511e+16
1.8058177190731e+16
1.73634939526591e+16
1.66574561669687e+16
1.59397437939542e+16
1.52100409569409e+16
1.44680303564397e+16
1.37134158671952e+16
1.29459990916721e+16
1.21658240520741e+16
1.13733578167927e+16
1.05696772336404e+16
9.7566988623714e+15
8.93739939232625e+15
8.11600543616348e+15
7.29821742689993e+15
6.49125350273248e+15
5.70365748933319e+15
4.94501549555665e+15
4.22542586622803e+15
3.554712469966e+15
2.94160987935481e+15
2.39294670485572e+15
1.91292702299383e+15
1.50276006669084e+15
1.16064582053819e+15
882096769629886
660592642379066
488362636425062
357181721840003
259084250720447
186899808630453
134078957806722
95523338857242.3
67509328955693.6
47201432193498.2
32529775606205
22171370213790.1
15012032178468.2
10102960609214
6844803805811.87
4794690967413.62
3570695040328.02
2862672145066.22
2452833742867.14
2208828693167.15
2057045691818.22
1957767480195.03
1889351675622.43
1839515263584.75
1801031068495.92
1769476148716.37
1742032872062.69
1716857525226.62
1692726426708.62
1668824393352.92
1644652421933.34
1619883607122.52
1594306187565.26
1567778043383.32
1540251914654.64
1511750233189.26
1482336249134.44
1452100901298.95
1421153100806.01
1389611198530.58
1357597904152.91
1325236252269.85
1292646645451.41
1259945510669.83
1227242871687.35
1194641665526.84
1162237327078.07
1130116894779.36
1098358705639.06
1067033058164.5
1036201480607.12
1005917366591.98
976226651287.304
947167404853.993
918770540038.105
891060765194.915
864057860518.266
837776681707.742
812226277076.625
787411067707.308
763331413691.169
739984357807.85
717365308696.233
695467646121.773
674282261002.792
653797729088.753
634001017207.621
614878589231.451
596414833172.819
578590801530.894
561388131796.09
544790190943.146
528779693354.473
513338188661.662
498447137159.682
484087792004.648
470241559279.026
456890308302.495
444015026484.59
431596353902.128
419615587535.838
408054208901.303
396893707772.287
386117855555.682
375712952055.341
365666633585.175
355967288915.684
346604023015.087
337566573348.344
328845204076.181
320430992196.104
312315851777.403
304492383986.537
296952936693.928
289689015169.726
282678774132.08
275897031406.048
269338780365.816
263011182333.429
256922967503.629
251083132260.68
245474601594.309
240074791474.506
234901415943.969
229993357550.081
225347623889.067
220993639813.732
217009808060.928
213517070079.944
210765884090.959
209155467960.936
209412122242.84
)
;

boundaryField
{
    electrode
    {
        type            calculated;
        value           uniform 6.01818326866042e+16;
    }
    ground
    {
        type            calculated;
        value           uniform 210992279774.539;
    }
    otherfaces
    {
        type            empty;
    }
}


// ************************************************************************* //
