/*--------------------------------*- C++ -*----------------------------------*\
| =========                 |                                                 |
| \\      /  F ield         | foam-extend: Open Source CFD                    |
|  \\    /   O peration     | Version:     4.0                                |
|   \\  /    A nd           | Web:         http://www.foam-extend.org         |
|    \\/     M anipulation  |                                                 |
\*---------------------------------------------------------------------------*/
FoamFile
{
    version     2.0;
    format      ascii;
    class       volScalarField;
    location    "5.6e-06";
    object      PhiMean;
}
// * * * * * * * * * * * * * * * * * * * * * * * * * * * * * * * * * * * * * //

dimensions      [0 0 0 1 0 0 0];

internalField   nonuniform List<scalar> 
300
(
699.986852117873
699.985543036044
699.983966362756
699.982144318199
699.980086313833
699.977785495805
699.975241195836
699.972452246014
699.969417498554
699.966136097758
699.962607304512
699.95883052498
699.954805277411
699.950531181976
699.946007950048
699.941235373259
699.936213314567
699.930941702336
699.925420522793
699.91964981298
699.913629655664
699.90736017417
699.900841527433
699.894073905138
699.887057522088
699.879792623945
699.872279475911
699.864518358226
699.856509564893
699.848253395054
699.839750146516
699.831000127453
699.822003648063
699.812761005026
699.803272477741
699.793538323912
699.783558774365
699.77333403047
699.762864258864
699.752149585371
699.741190092028
699.729985814197
699.718536733187
699.706842772229
699.694903792194
699.682719587665
699.670289882529
699.657614326982
699.644692494163
699.631523880379
699.618107903882
699.604443914305
699.590531182311
699.576368899926
699.561956162798
699.547291962572
699.532375173871
699.517204548343
699.501778709393
699.486096146728
699.470155212024
699.453954113426
699.437490909028
699.420763500133
699.403769645929
699.386506956256
699.368972864624
699.351164622569
699.333079293682
699.314713746728
699.296064648494
699.277128455482
699.257901418747
699.238379580417
699.218558751361
699.198434512323
699.178002219729
699.157256990761
699.136193692751
699.114806914476
699.093090987797
699.071039947967
699.048647520655
699.025907114458
699.002811805567
698.979354343001
698.955527130945
698.931322203418
698.906731209786
698.88174541033
698.856355656744
698.830552375137
698.804325587926
698.777664857653
698.750559266056
698.722997398155
698.694967321252
698.666456566777
698.637452105318
698.607940328938
698.577907029895
698.54733737086
698.516215854002
698.484526322039
698.452251904429
698.419374989337
698.385877200496
698.351739348632
698.316941412922
698.281462490729
698.245280749933
698.208373388102
698.170716583035
698.13228545244
698.093054003037
698.052995063897
698.01208024945
697.970279903398
697.927563008857
697.883897108517
697.839248224948
697.793580798736
697.746857582632
697.699039572948
697.650085887013
697.599953626642
697.548597751777
697.495970964312
697.442023539997
697.386703171995
697.329954797517
697.271720412642
697.211938861329
697.15054560169
697.087472463289
697.022647418647
696.955994249222
696.887432201521
696.816875597901
696.744233448602
696.669408980513
696.592299124802
696.512793952174
696.430776032863
696.346119749927
696.258690535673
696.168343934384
696.074924587964
695.978265081137
695.87818463125
695.774487660683
695.666962053946
695.555377190208
695.439481728817
695.319000973288
695.19363377958
695.063049202286
694.92688209123
694.78472872789
694.636140092155
694.480616454022
694.31759379144
694.146414275859
693.966310755588
693.776389827084
693.575619398356
693.362821844148
693.136628406716
692.895428909652
692.637312655092
692.360017337124
692.060913227556
691.736993239429
691.384784976859
691.00032995562
690.579227167804
690.116518086073
689.606774100343
689.044304686684
688.422981073371
687.736502689537
686.978676892581
686.143375001466
685.22474755861
684.217691500653
683.117638212642
681.92077584929
680.624300984056
679.226220520322
677.725293537264
676.12100389518
674.413406518135
672.603082108436
670.691063321596
668.678363602082
666.565842008208
664.354148138491
662.043713704701
659.634906789068
657.128081649686
654.523433764816
651.821101066082
649.021327793093
646.124596516167
643.131734694395
640.043663595659
636.86137344286
633.585821788064
630.217930645589
626.758541170768
623.208441418454
619.568331517736
615.83895462693
612.021185200965
608.115899201229
604.123889351828
600.045904614001
595.882619875363
591.634676981092
587.302651522734
582.887095329446
578.388500550533
573.807343714626
569.144047799695
564.399028423593
559.572754103862
554.66582306456
549.678780175919
544.61216840192
539.466480322353
534.242211673903
528.939809910022
523.559731075216
518.102387104643
512.56820287743
506.957558684399
501.270850857622
495.508431518844
489.670671965423
483.757899587161
477.770464079736
471.708671913544
465.572858449861
459.36342036447
453.08082534511
446.725489548049
440.297858030752
433.798323699868
427.227310916582
420.58519102081
413.872369369778
407.089197131323
400.236062140445
393.313296549791
386.321271955516
379.260302514364
372.130744660632
364.932895482556
357.667097160667
350.333630585197
342.932824448261
335.464944232239
327.930305881427
320.329160013431
312.661810516074
304.928497419356
297.129523098227
289.265141263821
281.335709939226
273.341540913121
265.283017892459
257.160439094548
248.974177235474
240.724516332543
232.411818794351
224.036354940934
215.598477506656
207.098443624064
198.536596931031
189.913181867015
181.228533511412
172.48288401978
163.676560448936
154.809783063618
145.882871543238
136.896034737019
127.849585486138
118.743721547999
109.578749395387
100.354855994018
91.0723418506947
81.7313836676372
72.3322766993396
62.8751877167215
53.3604070643449
43.7880922491183
34.1585295857565
24.471867824488
14.7283903973772
4.92823828036167
)
;

boundaryField
{
    electrode
    {
        type            calculated;
        value           uniform 699.999999999972;
    }
    ground
    {
        type            calculated;
        value           uniform 0;
    }
    otherfaces
    {
        type            empty;
    }
}


// ************************************************************************* //
