/*--------------------------------*- C++ -*----------------------------------*\
| =========                 |                                                 |
| \\      /  F ield         | foam-extend: Open Source CFD                    |
|  \\    /   O peration     | Version:     4.0                                |
|   \\  /    A nd           | Web:         http://www.foam-extend.org         |
|    \\/     M anipulation  |                                                 |
\*---------------------------------------------------------------------------*/
FoamFile
{
    version     2.0;
    format      ascii;
    class       volScalarField;
    location    "5.6e-06";
    object      Sy_electron;
}
// * * * * * * * * * * * * * * * * * * * * * * * * * * * * * * * * * * * * * //

dimensions      [1 -3 -1 0 0 0 0];

internalField   nonuniform List<scalar> 
300
(
3.39874128411446e-09
3.39953484578887e-09
3.39984921365593e-09
3.39979584412827e-09
3.39977181944413e-09
3.39970058789013e-09
3.39959182869467e-09
3.3994506160347e-09
3.3992745152479e-09
3.3990637087492e-09
3.39881792932564e-09
3.39853681733886e-09
3.3982200604306e-09
3.39786731751885e-09
3.39747823503635e-09
3.3970524470569e-09
3.39658957347661e-09
3.39608922015662e-09
3.39555097847e-09
3.39497442488523e-09
3.39435912056251e-09
3.39370461091548e-09
3.39301042516354e-09
3.3922760758618e-09
3.39150105839422e-09
3.39068485055664e-09
3.38982691197601e-09
3.38892668360366e-09
3.38798358720724e-09
3.38699702477992e-09
3.38596637797409e-09
3.38489100759382e-09
3.38377025298827e-09
3.38260343142988e-09
3.38138983752314e-09
3.3801287426142e-09
3.37881939415868e-09
3.37746101511517e-09
3.37605280331091e-09
3.37459393080108e-09
3.37308354323266e-09
3.37152075920675e-09
3.36990466962999e-09
3.36823433707976e-09
3.36650879516266e-09
3.36472704784906e-09
3.36288806876597e-09
3.36099080042282e-09
3.35903415358611e-09
3.35701700740256e-09
3.35493821004199e-09
3.35279657773876e-09
3.35059088685189e-09
3.34831985946736e-09
3.34598216635979e-09
3.34357649571221e-09
3.34110169091814e-09
3.33855676211301e-09
3.33651090234111e-09
3.33508168603531e-09
3.33360004746686e-09
3.33206426203719e-09
3.33047267490974e-09
3.32882362145094e-09
3.32711540784859e-09
3.3253463040891e-09
3.32351454111302e-09
3.3216183094096e-09
3.31965575801288e-09
3.31762499363038e-09
3.31552407983072e-09
3.31335103626878e-09
3.31110383795102e-09
3.30878041449676e-09
3.30637864937528e-09
3.30389637923706e-09
3.30133139319234e-09
3.29868143209926e-09
3.29594418792168e-09
3.29311730291374e-09
3.29019836910307e-09
3.28718492746031e-09
3.28407446723167e-09
3.28086442524661e-09
3.27755218515791e-09
3.2741350767605e-09
3.27061037521934e-09
3.26697530025178e-09
3.26322701531683e-09
3.25936262682665e-09
3.2553791832094e-09
3.25127367395253e-09
3.24704302882535e-09
3.24268411663137e-09
3.23819374418959e-09
3.23356865517837e-09
3.22880552889734e-09
3.22390097894066e-09
3.21885155177379e-09
3.21365372524791e-09
3.20830390695378e-09
3.20279843245919e-09
3.19713356338324e-09
3.19130548548474e-09
3.18531030634354e-09
3.17914405304211e-09
3.17280266963916e-09
3.16628201433954e-09
3.15957785661045e-09
3.15268587390348e-09
3.14560164818382e-09
3.13832066219128e-09
3.13083829537101e-09
3.12314981951009e-09
3.11525039400533e-09
3.1071350607251e-09
3.09879873851055e-09
3.09023621727736e-09
3.0814421514798e-09
3.0724110531846e-09
3.06313728455126e-09
3.05361504979375e-09
3.04383838631765e-09
3.03380115538746e-09
3.02349703184928e-09
3.01291949308684e-09
3.00206180710736e-09
2.99091701974879e-09
2.97947794069927e-09
2.96773712851953e-09
2.95568687437251e-09
2.94331918448691e-09
2.93062576120525e-09
2.91759798247698e-09
2.90422687921808e-09
2.89050311210284e-09
2.87641694572163e-09
2.86195821724476e-09
2.84711630847946e-09
2.83188012297943e-09
2.81623802673722e-09
2.80017778947778e-09
2.78368668660203e-09
2.76675134752901e-09
2.74935723864303e-09
2.73148993480156e-09
2.71332798563617e-09
2.69630350542482e-09
2.67877841850738e-09
2.66073277634332e-09
2.64214655706549e-09
2.62299870875825e-09
2.60326697725795e-09
2.58292745689865e-09
2.56195533284193e-09
2.5403229604994e-09
2.51800290749087e-09
2.49496329432614e-09
2.47117271593209e-09
2.44659734193492e-09
2.42120179540291e-09
2.39496258979973e-09
2.36786992081178e-09
2.3401128688227e-09
2.31188431637477e-09
2.28280664940401e-09
2.25233148470723e-09
2.22034515231154e-09
2.18698157313045e-09
2.15232134668246e-09
2.1135360463235e-09
2.07163620008896e-09
2.02725629175283e-09
1.97941002928828e-09
1.92823343993554e-09
1.87455114179284e-09
1.81670714684548e-09
1.75362184041239e-09
1.68728273580429e-09
1.61729533271985e-09
1.53698088451166e-09
1.45237311366189e-09
1.36790839030699e-09
1.28494901553568e-09
1.20809756648861e-09
1.13332854954965e-09
1.06187012806013e-09
1.00995483646366e-09
9.67652384479234e-10
9.49349429984005e-10
9.46572836007779e-10
9.75393737269051e-10
1.04405541279395e-09
1.1703221160955e-09
1.35731481248466e-09
1.67599389353842e-09
2.2075925256467e-09
3.1403787450289e-09
4.38307325280207e-09
5.55943315057678e-09
6.81607820976417e-09
7.51263154827357e-09
7.10196705721168e-09
6.02687081859044e-09
4.70323866425952e-09
3.56888887497182e-09
2.7354220786188e-09
2.18271430661013e-09
1.82914669769462e-09
1.61063981495306e-09
1.47908206550755e-09
1.39653249832586e-09
1.35013841559799e-09
1.32800491761562e-09
1.31533438423053e-09
1.31148473571306e-09
1.31316828478777e-09
1.31753052864152e-09
1.32288067045537e-09
1.32805241788225e-09
1.33216180965077e-09
1.3336716269411e-09
1.33253968315758e-09
1.32934276272958e-09
1.32398219683657e-09
1.31644248553048e-09
1.3067702822828e-09
1.29505617207639e-09
1.28142099468946e-09
1.26600645007411e-09
1.24896774538696e-09
1.23046786810843e-09
1.2106730551661e-09
1.18974922014626e-09
1.16785914657498e-09
1.14516031130595e-09
1.12180323050479e-09
1.09793021256031e-09
1.07367453052389e-09
1.0491593951576e-09
1.02449826647744e-09
9.99786079096303e-10
9.75104542176902e-10
9.50537940653214e-10
9.26167434603268e-10
9.02064733789862e-10
8.78292457207658e-10
8.54904315260918e-10
8.31945710279875e-10
8.09454346751482e-10
7.87460867541342e-10
7.65989490732849e-10
7.4505862433693e-10
7.24681566203716e-10
7.04867038607576e-10
6.85621673359246e-10
6.66944645674484e-10
6.48829930231494e-10
6.31272913809003e-10
6.14268973805561e-10
5.97808989006675e-10
5.81882381243741e-10
5.66477158328239e-10
5.51580347754266e-10
5.37178237762994e-10
5.23256609461644e-10
5.09801130569304e-10
4.96797708186235e-10
4.84231875765138e-10
4.72088904456847e-10
4.60345429819029e-10
4.48974177879857e-10
4.379576907662e-10
4.27284087686811e-10
4.16942592380915e-10
4.06923232788524e-10
3.97216628296239e-10
3.87814035016618e-10
3.787073999579e-10
3.6988943439376e-10
3.61353643539776e-10
3.53094275075285e-10
3.44970986835362e-10
3.36616551269279e-10
3.28475226739517e-10
3.20519205140223e-10
3.12759762226253e-10
3.05210854525802e-10
2.97887880363718e-10
2.90292200460366e-10
2.82145905785955e-10
2.74174285530892e-10
2.66431800613434e-10
2.57720689917085e-10
2.48345563877101e-10
2.38898448833143e-10
2.26973039672159e-10
2.1350654259072e-10
1.96500277629059e-10
1.72294871576598e-10
)
;

boundaryField
{
    electrode
    {
        type            zeroGradient;
    }
    ground
    {
        type            zeroGradient;
    }
    otherfaces
    {
        type            empty;
    }
}


// ************************************************************************* //
