/*--------------------------------*- C++ -*----------------------------------*\
| =========                 |                                                 |
| \\      /  F ield         | foam-extend: Open Source CFD                    |
|  \\    /   O peration     | Version:     4.0                                |
|   \\  /    A nd           | Web:         http://www.foam-extend.org         |
|    \\/     M anipulation  |                                                 |
\*---------------------------------------------------------------------------*/
FoamFile
{
    version     2.0;
    format      ascii;
    class       volScalarField;
    location    "5.6e-06";
    object      TeMean;
}
// * * * * * * * * * * * * * * * * * * * * * * * * * * * * * * * * * * * * * //

dimensions      [0 0 0 1 0 0 0];

internalField   nonuniform List<scalar> 
300
(
34547.3994270349
34547.6914282491
34547.8111615693
34547.7910926729
34547.782966899
34547.7668942718
34547.7456847749
34547.7222992367
34547.6968836544
34547.6701661929
34547.6427913498
34547.6153678206
34547.5884924849
34547.5627255823
34547.5386094839
34547.5166670224
34547.4974000265
34547.4812947405
34547.4688213055
34547.460433541
34547.4565721267
34547.4576621927
34547.464116056
34547.4763323892
34547.4946957568
34547.5195891851
34547.5513858206
34547.5904459104
34547.6371266203
34547.6917687594
34547.7546953118
34547.8262394502
34547.9067417445
34547.9965277634
34548.0959144857
34548.205205712
34548.3247012499
34548.4547070277
34548.5955251592
34548.7474487928
34548.9107643826
34549.0857646598
34549.2727393203
34549.4719718479
34549.6837435441
34549.9083332425
34550.1460168044
34550.3970660861
34550.6617452826
34550.9403108462
34551.2330117531
34551.5401063045
34551.8618716548
34552.1985829171
34552.5505187651
34552.9179682588
34553.3012125094
34553.7005264068
34554.1161933515
34554.5484990431
34554.9977304731
34555.4641860393
34555.9481474963
34556.4498916344
34556.9697307008
34557.5079954913
34558.0650141375
34558.6411144894
34559.2366284996
34559.8518978443
34560.4872647004
34561.1430618191
34561.81964231
34562.5173754959
34563.236622579
34563.9777395955
34564.7411093961
34565.5271503808
34566.3362728063
34567.1688858274
34568.025436884
34568.9063886092
34569.8121940314
34570.7433053306
34571.7001851598
34572.6833327745
34573.6932791923
34574.7305557938
34575.7956971108
34576.8892633786
34578.0118156832
34579.1639294255
34580.3462497973
34581.5594222753
34582.8040976218
34584.0809714896
34585.3907516674
34586.734170602
34588.1119797361
34589.5249599845
34590.9739394762
34592.4597424069
34593.9832194607
34595.545292109
34597.1469089779
34598.7890454307
34600.4727079469
34602.1989440627
34603.9688568417
34605.7835894903
34607.6443309668
34609.5523153828
34611.5088173316
34613.5151881203
34615.5728229667
34617.6831599504
34619.84769402
34622.0680105227
34624.3457891929
34626.6827377612
34629.0806339565
34631.5413522736
34634.0668478603
34636.6591883996
34639.3205673535
34642.0532634543
34644.8596384878
34647.7421953924
34650.7035820341
34653.7465553292
34656.8740124714
34660.089028295
34663.3948598046
34666.7948951511
34670.2927039748
34673.8921426606
34677.5973187907
34681.4125730991
34685.3425178389
34689.3920740849
34693.5664991977
34697.871406205
34702.3127945965
34706.8970779016
34711.6311774676
34716.5226104814
34721.579504689
34726.8106680823
34732.2256112453
34737.834698167
34743.6493557089
34749.6820891421
34755.9466319996
34762.4582498613
34769.2337713781
34776.2919759498
34783.6538385602
34791.3432872837
34799.3879756492
34807.8217709154
34816.6977316281
34826.0849966324
34836.0456403651
34846.6321468056
34857.8899906318
34869.8786152934
34882.7035061524
34896.5015937631
34911.4123396104
34927.5466326278
34944.9619650306
34963.722245612
34983.9470100872
35005.7064655242
35029.0689477758
35054.2081987682
35081.2307619859
35110.4177434896
35142.5605429409
35178.7591211637
35220.8854242222
35272.3687363326
35338.3449110333
35426.6050644714
35549.3028486136
35724.2108118554
35977.2926685683
36347.2522400036
36891.6039285801
37697.4626337932
38899.3803549421
40709.9786611678
43473.5016071245
47854.3428546465
54522.0097160033
63926.2379138154
77614.221208096
96302.1716787491
121356.954239471
153267.814039452
191965.446501739
236154.978312105
284418.582286344
335158.160440099
386817.84810115
437923.579153279
487039.979441041
532907.769008399
574707.851653343
612127.541289232
645258.672301555
674432.392120348
700112.458445983
722794.508914658
742922.204200383
760903.335686683
777098.185909729
791803.271645028
805259.098275344
817663.627467158
829175.643008098
839925.361823855
850028.022708006
859579.331105828
868657.139219756
877325.220868865
885636.026203566
893632.392381612
901349.044946002
908813.871660003
916048.911898448
923071.174255811
929893.305991857
936524.0635867
942968.827625917
949230.067040152
955307.6077365
961198.939244452
966899.464434011
972402.73038198
977700.645979373
982783.674189061
987640.614989861
992259.105950552
996626.144812422
1000727.90523781
1004549.50993258
1008075.37847456
1011289.46679322
1014174.92518326
1016714.95811549
1018892.61232711
1020690.28142697
1022090.06775808
1023073.61174615
1023622.17397895
1023713.17588816
1023334.31258141
1022469.06078588
1021094.67976439
1019191.9273732
1016741.25842527
1013723.18399978
1010118.0173669
1005905.84991978
1001066.93871557
995580.800556623
989426.344425186
982582.906231165
975029.171814295
966742.541183805
957700.211478051
947879.133143359
937254.648321748
925800.846714832
913490.503010204
900294.966662748
886183.961112002
871125.417878112
855085.190525144
838026.986246301
819912.041317239
800703.775048179
780357.079807918
758818.435969988
736035.661593956
711946.338787685
686476.287881926
659552.737039378
631089.214522914
600978.253885364
569100.273250049
535318.925541385
499453.21890712
461284.87669957
420537.548549822
376821.147809704
329601.88621931
278099.449510584
221282.992457412
)
;

boundaryField
{
    electrode
    {
        type            calculated;
        value           uniform 34547.3994270371;
    }
    ground
    {
        type            calculated;
        value           uniform 189064.462300496;
    }
    otherfaces
    {
        type            empty;
    }
}


// ************************************************************************* //
