/*--------------------------------*- C++ -*----------------------------------*\
| =========                 |                                                 |
| \\      /  F ield         | foam-extend: Open Source CFD                    |
|  \\    /   O peration     | Version:     4.0                                |
|   \\  /    A nd           | Web:         http://www.foam-extend.org         |
|    \\/     M anipulation  |                                                 |
\*---------------------------------------------------------------------------*/
FoamFile
{
    version     2.0;
    format      ascii;
    class       volScalarField;
    location    "1.7e-06";
    object      Ar;
}
// * * * * * * * * * * * * * * * * * * * * * * * * * * * * * * * * * * * * * //

dimensions      [0 0 0 1 0 0 0];

internalField   nonuniform List<scalar> 
300
(
3.21880328523124e+22
3.21880328269118e+22
3.21880328466087e+22
3.21880328642478e+22
3.21880328870576e+22
3.21880329173887e+22
3.21880329548166e+22
3.21880329991874e+22
3.21880330505059e+22
3.21880331087372e+22
3.21880331738463e+22
3.21880332458014e+22
3.21880333245707e+22
3.21880334101218e+22
3.21880335024214e+22
3.21880336014355e+22
3.21880337071317e+22
3.21880338194719e+22
3.21880339384165e+22
3.21880340639258e+22
3.21880341959584e+22
3.21880343344717e+22
3.2188034479421e+22
3.21880346307603e+22
3.2188034788458e+22
3.21880349524522e+22
3.21880351226932e+22
3.21880352991316e+22
3.21880354817044e+22
3.21880356703559e+22
3.21880358650476e+22
3.21880360657141e+22
3.21880362722819e+22
3.21880364846889e+22
3.2188036702872e+22
3.2188036926767e+22
3.21880371563134e+22
3.21880373914428e+22
3.21880376320859e+22
3.21880378781755e+22
3.21880381296438e+22
3.21880383864207e+22
3.21880386484366e+22
3.21880389156217e+22
3.21880391879063e+22
3.21880394652203e+22
3.21880397474959e+22
3.2188040034665e+22
3.21880403266686e+22
3.21880406234418e+22
3.21880409249312e+22
3.2188041231059e+22
3.21880415417658e+22
3.21880418569701e+22
3.21880421766009e+22
3.21880425005802e+22
3.21880428288444e+22
3.21880431613318e+22
3.21880434979825e+22
3.21880438387408e+22
3.21880441835489e+22
3.21880445323537e+22
3.21880448851093e+22
3.21880452417875e+22
3.21880456023405e+22
3.21880459667018e+22
3.21880463348314e+22
3.21880467066929e+22
3.21880470822533e+22
3.21880474614835e+22
3.21880478443605e+22
3.21880482308712e+22
3.21880486210014e+22
3.21880490147317e+22
3.21880494120686e+22
3.21880498130085e+22
3.21880502175473e+22
3.21880506256964e+22
3.21880510374484e+22
3.21880514528517e+22
3.21880518718952e+22
3.21880522946058e+22
3.2188052721022e+22
3.21880531511824e+22
3.21880535851497e+22
3.21880540229699e+22
3.21880544646919e+22
3.21880549103827e+22
3.21880553601286e+22
3.21880558140032e+22
3.21880562721012e+22
3.2188056734564e+22
3.21880572014398e+22
3.21880576728384e+22
3.21880581488791e+22
3.2188058629689e+22
3.21880591154037e+22
3.21880596061672e+22
3.21880601021423e+22
3.21880606034892e+22
3.21880611103706e+22
3.21880616229623e+22
3.21880621414824e+22
3.21880626660959e+22
3.21880631970157e+22
3.21880637344634e+22
3.21880642786446e+22
3.21880648298089e+22
3.21880653881844e+22
3.21880659540128e+22
3.21880665275521e+22
3.2188067109069e+22
3.21880676988448e+22
3.21880682971632e+22
3.21880689043168e+22
3.21880695206215e+22
3.21880701464031e+22
3.21880707819512e+22
3.21880714275875e+22
3.21880720836503e+22
3.21880727505036e+22
3.21880734284793e+22
3.21880741179585e+22
3.21880748192895e+22
3.2188075532826e+22
3.21880762589418e+22
3.21880769980425e+22
3.21880777504938e+22
3.21880785166948e+22
3.21880792970408e+22
3.21880800919455e+22
3.21880809018148e+22
3.21880817270594e+22
3.21880825681144e+22
3.21880834254285e+22
3.21880842993968e+22
3.21880851904313e+22
3.21880860989743e+22
3.21880870254624e+22
3.21880879703039e+22
3.21880889339316e+22
3.21880899167771e+22
3.21880909192849e+22
3.2188091941896e+22
3.21880929850392e+22
3.2188094049093e+22
3.21880951344633e+22
3.21880962415486e+22
3.2188097370751e+22
3.21880985224786e+22
3.21880996970626e+22
3.21881008948537e+22
3.21881021162193e+22
3.21881033614401e+22
3.21881046307844e+22
3.21881059245164e+22
3.21881072428511e+22
3.21881085859096e+22
3.21881099537689e+22
3.21881113464588e+22
3.21881127638977e+22
3.21881142058935e+22
3.21881156721024e+22
3.21881171619729e+22
3.21881186747998e+22
3.21881202100075e+22
3.21881217656323e+22
3.21881233396029e+22
3.21881249185101e+22
3.21881265035901e+22
3.21881281068468e+22
3.2188129710551e+22
3.218813130928e+22
3.21881328963599e+22
3.21881344867576e+22
3.21881360393146e+22
3.21881375700125e+22
3.21881390909627e+22
3.21881405193584e+22
3.21881419054199e+22
3.21881431932852e+22
3.21881443779617e+22
3.2188145469019e+22
3.21881464149391e+22
3.21881472884302e+22
3.21881480162035e+22
3.21881486100349e+22
3.21881491472433e+22
3.21881495689253e+22
3.2188149902323e+22
3.21881501644507e+22
3.21881504159699e+22
3.21881506076893e+22
3.21881507675833e+22
3.21881508565511e+22
3.2188150875034e+22
3.21881508821932e+22
3.21881508955863e+22
3.21881509222e+22
3.21881509595301e+22
3.21881510005247e+22
3.21881510428429e+22
3.21881510945435e+22
3.21881511564791e+22
3.21881512090221e+22
3.21881512574365e+22
3.21881512980052e+22
3.21881513352485e+22
3.21881513657112e+22
3.21881513933721e+22
3.21881514154475e+22
3.21881514410235e+22
3.21881514768236e+22
3.21881515109006e+22
3.21881515409903e+22
3.21881515696862e+22
3.21881515948287e+22
3.218815161835e+22
3.21881516383185e+22
3.21881516568621e+22
3.21881516727623e+22
3.21881516878004e+22
3.21881517009269e+22
3.21881517136753e+22
3.21881517314364e+22
3.21881517567788e+22
3.21881517798614e+22
3.21881518028488e+22
3.21881518234099e+22
3.21881518440601e+22
3.21881518622352e+22
3.21881518809138e+22
3.21881518976624e+22
3.21881519154425e+22
3.21881519320803e+22
3.21881519494298e+22
3.21881519657298e+22
3.21881519817155e+22
3.21881519967764e+22
3.21881520113714e+22
3.21881520250043e+22
3.21881520386279e+22
3.21881520594237e+22
3.21881520819369e+22
3.21881521015863e+22
3.21881521224449e+22
3.21881521401703e+22
3.21881521592139e+22
3.21881521756056e+22
3.21881521933594e+22
3.21881522091152e+22
3.21881522263104e+22
3.21881522417734e+22
3.21881522591734e+22
3.21881522744351e+22
3.21881522916382e+22
3.21881523060621e+22
3.21881523221306e+22
3.2188152335333e+22
3.21881523497633e+22
3.21881523613625e+22
3.21881523739622e+22
3.21881523836706e+22
3.21881523946113e+22
3.21881524033255e+22
3.21881524136768e+22
3.21881524238709e+22
3.21881524404826e+22
3.21881524551301e+22
3.21881524714678e+22
3.21881524857876e+22
3.21881525015967e+22
3.21881525152272e+22
3.21881525300467e+22
3.21881525425182e+22
3.21881525559658e+22
3.21881525670215e+22
3.21881525789805e+22
3.21881525886465e+22
3.21881525992467e+22
3.21881526077049e+22
3.21881526172015e+22
3.21881526248203e+22
3.21881526337624e+22
3.21881526410341e+22
3.21881526498776e+22
3.21881526569902e+22
3.21881526658505e+22
3.21881526726268e+22
3.21881526813051e+22
3.21881526875848e+22
3.21881526955128e+22
3.21881527008582e+22
3.21881527076242e+22
3.21881527117786e+22
3.21881527172723e+22
3.21881527204076e+22
3.21881527252243e+22
3.21881527281389e+22
3.21881527343759e+22
)
;

boundaryField
{
    electrode
    {
        type            zeroGradient;
    }
    ground
    {
        type            zeroGradient;
    }
    otherfaces
    {
        type            empty;
    }
}


// ************************************************************************* //
