/*--------------------------------*- C++ -*----------------------------------*\
| =========                 |                                                 |
| \\      /  F ield         | foam-extend: Open Source CFD                    |
|  \\    /   O peration     | Version:     4.0                                |
|   \\  /    A nd           | Web:         http://www.foam-extend.org         |
|    \\/     M anipulation  |                                                 |
\*---------------------------------------------------------------------------*/
FoamFile
{
    version     2.0;
    format      ascii;
    class       volScalarField;
    location    "1.7e-06";
    object      Arm;
}
// * * * * * * * * * * * * * * * * * * * * * * * * * * * * * * * * * * * * * //

dimensions      [0 0 0 1 0 0 0];

internalField   nonuniform List<scalar> 
300
(
3.57415937812425e+15
3.57603908387114e+15
3.57798885247964e+15
3.57929462479705e+15
3.58011077744982e+15
3.58048923927241e+15
3.58047422483639e+15
3.58009716222024e+15
3.5793837068156e+15
3.57835584681785e+15
3.57702934941471e+15
3.57541830131813e+15
3.5735347549866e+15
3.5713893126439e+15
3.56899143099103e+15
3.56634965950231e+15
3.56346880936496e+15
3.5603574738307e+15
3.55702399709603e+15
3.55347485613992e+15
3.54971625243218e+15
3.54575410769161e+15
3.54159411193948e+15
3.53724173831923e+15
3.53268623919431e+15
3.52794542105001e+15
3.52302296722437e+15
3.51792087163123e+15
3.51265275989875e+15
3.50722352936693e+15
3.5016193500364e+15
3.4958516262484e+15
3.48993849642812e+15
3.48388532355276e+15
3.47769719389324e+15
3.47137891612839e+15
3.46493064629406e+15
3.45835891009339e+15
3.45167078325349e+15
3.44486979550911e+15
3.43795944764117e+15
3.43094502107934e+15
3.42383039477767e+15
3.41661926038292e+15
3.4093151181777e+15
3.40192123529721e+15
3.39443855179908e+15
3.38686853178156e+15
3.37920338640456e+15
3.37144173425334e+15
3.36357091267819e+15
3.35560349726375e+15
3.34753402757434e+15
3.33938027632518e+15
3.33115034776257e+15
3.32286064785238e+15
3.314514456764e+15
3.30611469065602e+15
3.29766392456292e+15
3.28916256653671e+15
3.28061494206217e+15
3.27202316759613e+15
3.26338391321314e+15
3.25467915560499e+15
3.24591287361881e+15
3.23711072769056e+15
3.22827477286738e+15
3.21940684892356e+15
3.21050854166439e+15
3.2015812139206e+15
3.19262402695065e+15
3.18362980969133e+15
3.17459701965462e+15
3.16553315268895e+15
3.15642460681824e+15
3.14727245634147e+15
3.13808307118759e+15
3.12885226328722e+15
3.11960013768028e+15
3.11029593980646e+15
3.10097442051195e+15
3.09163766028268e+15
3.08228255728546e+15
3.0729114097577e+15
3.06350933145603e+15
3.0540840955491e+15
3.04464743348258e+15
3.03519966701243e+15
3.02572883184328e+15
3.01624273855676e+15
3.00673541493647e+15
2.99716157091455e+15
2.98757673923302e+15
2.97798247047799e+15
2.96837879097055e+15
2.95876572722881e+15
2.94914306089797e+15
2.93951037672364e+15
2.9298567024287e+15
2.92018198461961e+15
2.91049250555263e+15
2.90078959252424e+15
2.89104132100954e+15
2.88127708660312e+15
2.87148760495334e+15
2.86166348939689e+15
2.8518198632764e+15
2.84193700359338e+15
2.8320253941725e+15
2.82209049066751e+15
2.81213041125362e+15
2.80214287797883e+15
2.79212013162382e+15
2.78205996930254e+15
2.77196019651813e+15
2.76180313693272e+15
2.75156982757088e+15
2.74128518321642e+15
2.73095005170137e+15
2.72055636922186e+15
2.71007764916756e+15
2.69952699202595e+15
2.6888752709387e+15
2.67813294533284e+15
2.66731147110703e+15
2.65640866835622e+15
2.64539630418112e+15
2.63429193905336e+15
2.62308468227256e+15
2.61177253078408e+15
2.60033979820155e+15
2.58878263640257e+15
2.57709608128163e+15
2.56525402760637e+15
2.55321989981608e+15
2.54101267230916e+15
2.52863629216429e+15
2.5160656565814e+15
2.50328187023051e+15
2.49029414424667e+15
2.47708645018465e+15
2.46364215798436e+15
2.44992909605865e+15
2.43591515304875e+15
2.42157565343186e+15
2.40693053138662e+15
2.39196486328975e+15
2.37666230667305e+15
2.3609923312855e+15
2.34490591189192e+15
2.32841564497772e+15
2.31149678282576e+15
2.29408689047488e+15
2.27618491251601e+15
2.25777261678052e+15
2.23880020967168e+15
2.21922437920473e+15
2.19904467755126e+15
2.17824197130526e+15
2.15677124063142e+15
2.13459686024209e+15
2.11170381290452e+15
2.08805372068822e+15
2.06365925637684e+15
2.03850745246804e+15
2.01254354154355e+15
1.98578843238233e+15
1.95828676063486e+15
1.93006744581405e+15
1.9011724341799e+15
1.87167043281462e+15
1.84159460905396e+15
1.81103731220149e+15
1.78017014994479e+15
1.74918714926991e+15
1.71825810198794e+15
1.68756217774002e+15
1.6572983417654e+15
1.6277056040336e+15
1.59893939254345e+15
1.57115398745113e+15
1.54449651814212e+15
1.51904816573486e+15
1.49492393209922e+15
1.47212354551636e+15
1.45055623612875e+15
1.43026175362412e+15
1.41118838276333e+15
1.39324707175925e+15
1.37634848723406e+15
1.36037067424805e+15
1.34526655975831e+15
1.33102065750278e+15
1.31783760900684e+15
1.31263379028682e+15
1.32257357842466e+15
1.33523033302902e+15
1.33746740536345e+15
1.33206975943576e+15
1.32243256663843e+15
1.30937657005709e+15
1.2955017508182e+15
1.28292611059715e+15
1.27202070864944e+15
1.26298864367503e+15
1.25511416312125e+15
1.2480124358086e+15
1.24166779149887e+15
1.2358832625218e+15
1.23041903198893e+15
1.22487865829233e+15
1.21952305935741e+15
1.21431315858519e+15
1.20918306980809e+15
1.20413879941888e+15
1.19914547347745e+15
1.1941703742943e+15
1.1892381126733e+15
1.18432786070088e+15
1.17943559165805e+15
1.17457273676184e+15
1.16972806457673e+15
1.16490551997375e+15
1.16006429402761e+15
1.15524445994742e+15
1.15047907093114e+15
1.14578517583882e+15
1.14115715750905e+15
1.13660397497572e+15
1.13213992879929e+15
1.12775633613479e+15
1.12346036204287e+15
1.11926408718911e+15
1.11516286958556e+15
1.11115570389437e+15
1.10725849013459e+15
1.10345411670161e+15
1.09976032604126e+15
1.09616415302363e+15
1.09267430681325e+15
1.08928918723453e+15
1.08599881914739e+15
1.08281582365562e+15
1.07972365780196e+15
1.07672600849078e+15
1.0738358117859e+15
1.07103653779928e+15
1.0683334105764e+15
1.06572674801055e+15
1.06320649334605e+15
1.06077754422085e+15
1.05843367585542e+15
1.05617027604864e+15
1.05399109745779e+15
1.05188834790721e+15
1.04986038505376e+15
1.04790684675052e+15
1.04601350749603e+15
1.04419058189161e+15
1.0424316345736e+15
1.04074386732805e+15
1.03911623468902e+15
1.03755328948947e+15
1.03604848840541e+15
1.03460136992287e+15
1.03320998926225e+15
1.031868891962e+15
1.03057740296849e+15
1.0293271492419e+15
1.02812623526914e+15
1.0269688199468e+15
1.02586202818342e+15
1.02479428499644e+15
1.02377284034713e+15
1.02278689629719e+15
1.02183625079704e+15
1.02092029514727e+15
1.02004004577152e+15
1.01919839625213e+15
1.01838973964794e+15
1.01761364347463e+15
1.01686345162469e+15
1.01611680954985e+15
1.01537777797705e+15
1.01466966461566e+15
1.01398225742076e+15
1.01332196100138e+15
1.01268865811034e+15
1.0120746658679e+15
1.01143652209018e+15
1.01078952330132e+15
1.01016435453685e+15
1.00955937749646e+15
1.00889950798255e+15
1.00823086375635e+15
1.00755224189147e+15
1.00678771197563e+15
1.00595978735016e+15
1.0050173295023e+15
1.00388042957503e+15
)
;

boundaryField
{
    electrode
    {
        type            zeroGradient;
    }
    ground
    {
        type            zeroGradient;
    }
    otherfaces
    {
        type            empty;
    }
}


// ************************************************************************* //
