/*--------------------------------*- C++ -*----------------------------------*\
| =========                 |                                                 |
| \\      /  F ield         | foam-extend: Open Source CFD                    |
|  \\    /   O peration     | Version:     4.0                                |
|   \\  /    A nd           | Web:         http://www.foam-extend.org         |
|    \\/     M anipulation  |                                                 |
\*---------------------------------------------------------------------------*/
FoamFile
{
    version     2.0;
    format      ascii;
    class       volScalarField;
    location    "1.7e-06";
    object      Arp1;
}
// * * * * * * * * * * * * * * * * * * * * * * * * * * * * * * * * * * * * * //

dimensions      [0 0 0 1 0 0 0];

internalField   nonuniform List<scalar> 
300
(
6.02732863036802e+16
6.02991588439915e+16
6.02828835409731e+16
6.02726596203631e+16
6.0261084905034e+16
6.02457443721446e+16
6.02270161997559e+16
6.02050177309689e+16
6.01797122541224e+16
6.01511055503454e+16
6.01192088917544e+16
6.00840309400553e+16
6.00455814550849e+16
6.00038713781942e+16
5.99589125707086e+16
5.99107178357608e+16
5.98593009341805e+16
5.98046765771748e+16
5.97468604224584e+16
5.96858690703678e+16
5.96217200572759e+16
5.95544318488584e+16
5.94840238312653e+16
5.94105163008857e+16
5.93339304521254e+16
5.92542883642711e+16
5.91716129846389e+16
5.90859281119431e+16
5.89972583760046e+16
5.89056292153883e+16
5.88110668531939e+16
5.8713598271176e+16
5.86132511795457e+16
5.85100539859084e+16
5.84040357618518e+16
5.82952262056804e+16
5.81836556038241e+16
5.8069354789741e+16
5.79523550994865e+16
5.78326883253832e+16
5.77103866674394e+16
5.7585482681967e+16
5.74580092279093e+16
5.73279994110211e+16
5.71954865254219e+16
5.70605039935995e+16
5.69230853039525e+16
5.67832639458418e+16
5.66410733430564e+16
5.64965467866238e+16
5.63497173628903e+16
5.62006178830417e+16
5.60492808086114e+16
5.58957381774573e+16
5.57400215261314e+16
5.55821618127779e+16
5.54221893375548e+16
5.52601336623094e+16
5.50960235292524e+16
5.49298867775124e+16
5.47617502607242e+16
5.45916397615927e+16
5.44195799064475e+16
5.42455940794015e+16
5.4069704335403e+16
5.38919313123043e+16
5.37122941424188e+16
5.35308103641881e+16
5.33474958325026e+16
5.31623646288919e+16
5.29754289715275e+16
5.27866991241393e+16
5.25961833055528e+16
5.24038875991193e+16
5.22098158604283e+16
5.2013969626227e+16
5.1816348024791e+16
5.16169476816727e+16
5.14157626320822e+16
5.12127842270865e+16
5.1008001045624e+16
5.0801398803646e+16
5.05929602645381e+16
5.03826651518718e+16
5.01704900608606e+16
4.99564083729895e+16
4.97403901702328e+16
4.95224021516784e+16
4.93024075526318e+16
4.90803660621004e+16
4.88562337485788e+16
4.86299629814779e+16
4.84015023596796e+16
4.81707966415411e+16
4.7937786677894e+16
4.77024093485237e+16
4.74645975030578e+16
4.72242799050812e+16
4.69813811800563e+16
4.67358217706036e+16
4.64875178927716e+16
4.62363815011198e+16
4.59823202563366e+16
4.57252375012001e+16
4.5465032242226e+16
4.52015991350001e+16
4.49348284803824e+16
4.4664606225029e+16
4.43908139694466e+16
4.41133289846318e+16
4.38320242349485e+16
4.35467684096306e+16
4.3257425963802e+16
4.2963857164657e+16
4.26659181486354e+16
4.23634609876382e+16
4.20563337611706e+16
4.17443806408799e+16
4.14274419815624e+16
4.1105354424305e+16
4.07779510046543e+16
4.04450612761347e+16
4.01065114392043e+16
3.97621244825377e+16
3.94117203336846e+16
3.90551160225046e+16
3.86921258539211e+16
3.83225615942437e+16
3.7946232669004e+16
3.75629463769232e+16
3.71725081151721e+16
3.67747216249483e+16
3.63693892513947e+16
3.59563122261523e+16
3.5535290970276e+16
3.51061254240412e+16
3.46686154042053e+16
3.42225609947456e+16
3.37677629748821e+16
3.33040232923915e+16
3.28311455846142e+16
3.23489357632265e+16
3.18572026659404e+16
3.13557587902167e+16
3.08444211289803e+16
3.03230121191093e+16
2.97913607279996e+16
2.92493037179302e+16
2.86966871022703e+16
2.81333678571647e+16
2.75592159379271e+16
2.6974116665189e+16
2.63779735756412e+16
2.57707118660272e+16
2.51522825155902e+16
2.45226673841897e+16
2.38818853944094e+16
2.32300002085e+16
2.25671300085219e+16
2.18934567208413e+16
2.12092524039265e+16
2.05148639121614e+16
1.98107939037729e+16
1.90976775772379e+16
1.83762982154126e+16
1.76473129676168e+16
1.69126578963379e+16
1.61743568990882e+16
1.54459028715145e+16
1.47263155945564e+16
1.40037800795604e+16
1.32958991943962e+16
1.26074232768495e+16
1.19435766377653e+16
1.12867220770538e+16
1.06737208297122e+16
1.00823444749422e+16
9.49184245189123e+15
8.97407208546021e+15
8.46627697049289e+15
8.01075086344111e+15
7.59897876895678e+15
7.20926943177599e+15
6.88361809762625e+15
6.54364143774223e+15
6.2614537956694e+15
6.02848937513359e+15
5.77515047532923e+15
5.57045646867356e+15
5.39843550873338e+15
5.25370720654959e+15
5.0863487198018e+15
4.9546479535895e+15
4.83736752054803e+15
4.77314341682042e+15
4.7581388255211e+15
4.74734301067371e+15
4.73742890578703e+15
4.71949203727971e+15
4.69359521151413e+15
4.66663813359448e+15
4.63874363983387e+15
4.59993446138775e+15
4.54908968718327e+15
4.50568844097868e+15
4.46521291594695e+15
4.43178276945571e+15
4.40090422978999e+15
4.37623617250863e+15
4.3540440876247e+15
4.33751119376064e+15
4.31729233745865e+15
4.2867044550975e+15
4.25776141691771e+15
4.23272192914083e+15
4.20902778284221e+15
4.1888712748744e+15
4.17029580730732e+15
4.1552535418272e+15
4.14162063456905e+15
4.1306040263797e+15
4.12043335290443e+15
4.11215407361751e+15
4.10427325368992e+15
4.09135989948952e+15
4.0708120504359e+15
4.05245343531631e+15
4.03412496982271e+15
4.01814848757486e+15
4.00199421431399e+15
3.98823487486138e+15
3.97388437289877e+15
3.96136400237804e+15
3.94771692621184e+15
3.93511783339473e+15
3.92169649939942e+15
3.90923136257526e+15
3.89696940252024e+15
3.8855338474069e+15
3.87445726557759e+15
3.86423722530051e+15
3.85393105900014e+15
3.8363445364581e+15
3.81694895793857e+15
3.80032177428189e+15
3.78237716411995e+15
3.76747406233127e+15
3.75115580766072e+15
3.73739225939044e+15
3.72217939597396e+15
3.70887257809968e+15
3.69404042617072e+15
3.68085935738296e+15
3.6656563891925e+15
3.65251459443923e+15
3.63735601354307e+15
3.62490149569216e+15
3.61074167460642e+15
3.59937693847127e+15
3.58671970839053e+15
3.5768218997757e+15
3.56586301040336e+15
3.55773022363415e+15
3.54830648588782e+15
3.54105111818013e+15
3.53210249815088e+15
3.52326027370817e+15
3.50795062663213e+15
3.49456347799819e+15
3.47943642937897e+15
3.46628347511867e+15
3.4515902504364e+15
3.43903629921464e+15
3.42524679510004e+15
3.41376947737864e+15
3.4012804223217e+15
3.3911484076005e+15
3.38007704698834e+15
3.37125996994953e+15
3.36147538392602e+15
3.35380000228154e+15
3.3450600629916e+15
3.33819419023955e+15
3.3299971464152e+15
3.32343943069444e+15
3.3152890652084e+15
3.30884227309415e+15
3.30062060880586e+15
3.29446338407137e+15
3.28642810818784e+15
3.28080025267793e+15
3.2735019044178e+15
3.26876583514648e+15
3.26266381364991e+15
3.25918183686914e+15
3.25437020976233e+15
3.25200241274139e+15
3.24801583911366e+15
3.24604457971991e+15
3.24094332252165e+15
)
;

boundaryField
{
    electrode
    {
        type            driftDiffusionPositiveIonDensity;
        seec            0;
        fieldName       Arp1;
        value           uniform 6.01833030746341e+16;
    }
    ground
    {
        type            driftDiffusionPositiveIonDensity;
        seec            0;
        fieldName       Arp1;
        value           uniform 3.24094332252165e+15;
    }
    otherfaces
    {
        type            empty;
    }
}


// ************************************************************************* //
