/*--------------------------------*- C++ -*----------------------------------*\
| =========                 |                                                 |
| \\      /  F ield         | foam-extend: Open Source CFD                    |
|  \\    /   O peration     | Version:     4.0                                |
|   \\  /    A nd           | Web:         http://www.foam-extend.org         |
|    \\/     M anipulation  |                                                 |
\*---------------------------------------------------------------------------*/
FoamFile
{
    version     2.0;
    format      ascii;
    class       volVectorField;
    location    "1.7e-06";
    object      E;
}
// * * * * * * * * * * * * * * * * * * * * * * * * * * * * * * * * * * * * * //

dimensions      [0 0 0 1 0 0 0];

internalField   nonuniform List<vector> 
300
(
(3.98489411884695 -0 -0)
(8.76157894569294 -0 -0)
(15.0068890938937 -0 -0)
(21.1500272961909 -0 -0)
(27.169327034004 -0 -0)
(33.1941824818775 -0 -0)
(39.2200969617788 -0 -0)
(45.2408375053994 -0 -0)
(51.2567573510153 -0 -0)
(57.2673339749313 -0 -0)
(63.2716884260686 -0 -0)
(69.269045312182 -0 -0)
(75.2586300570298 -0 -0)
(81.2396496283047 -0 -0)
(87.2113022257212 -0 -0)
(93.1727779346369 -0 -0)
(99.1232584637826 -0 -0)
(105.061918086181 -0 -0)
(110.987924688278 -0 -0)
(116.900440989829 -0 -0)
(122.798626063515 -0 -0)
(128.681637041884 -0 -0)
(134.548631161577 -0 -0)
(140.398767894957 -0 -0)
(146.231211556327 -0 -0)
(152.045133904041 -0 -0)
(157.839717133958 -0 -0)
(163.614157114302 -0 -0)
(169.367666712213 -0 -0)
(175.099479474141 -0 -0)
(180.808853414446 -0 -0)
(186.495075112054 -0 -0)
(192.157463853334 -0 -0)
(197.795376102892 -0 -0)
(203.408209946369 -0 -0)
(208.995409882473 -0 -0)
(214.556471647719 -0 -0)
(220.090947146378 -0 -0)
(225.59844958805 -0 -0)
(231.078658645435 -0 -0)
(236.53132572988 -0 -0)
(241.956279378755 -0 -0)
(247.35343072543 -0 -0)
(252.722778962217 -0 -0)
(258.064416919248 -0 -0)
(263.37853675093 -0 -0)
(268.665435544603 -0 -0)
(273.925521132616 -0 -0)
(279.159317803674 -0 -0)
(284.367472173862 -0 -0)
(289.550759002862 -0 -0)
(294.710087230005 -0 -0)
(299.846505774577 -0 -0)
(304.96120968507 -0 -0)
(310.055546221019 -0 -0)
(315.131020948927 -0 -0)
(320.189304016425 -0 -0)
(325.232236488037 -0 -0)
(330.261836649294 -0 -0)
(335.280306576512 -0 -0)
(340.290038772262 -0 -0)
(345.293622865047 -0 -0)
(350.29385245387 -0 -0)
(355.293732184937 -0 -0)
(360.296484859451 -0 -0)
(365.305558802689 -0 -0)
(370.324635386208 -0 -0)
(375.357636672659 -0 -0)
(380.408733367845 -0 -0)
(385.482352975622 -0 -0)
(390.583188075644 -0 -0)
(395.716204924834 -0 -0)
(400.886652290916 -0 -0)
(406.100070537903 -0 -0)
(411.362301018556 -0 -0)
(416.67949563649 -0 -0)
(422.058126793501 -0 -0)
(427.504997610501 -0 -0)
(433.027252518023 -0 -0)
(438.632388011138 -0 -0)
(444.32826392387 -0 -0)
(450.123114972879 -0 -0)
(456.025562682504 -0 -0)
(462.044627633263 -0 -0)
(468.189742275406 -0 -0)
(474.47076400299 -0 -0)
(480.897988801352 -0 -0)
(487.482165376133 -0 -0)
(494.23450975129 -0 -0)
(501.16672048605 -0 -0)
(508.290994531753 -0 -0)
(515.620043749121 -0 -0)
(523.167112169482 -0 -0)
(530.945994053951 -0 -0)
(538.971052929553 -0 -0)
(547.257241560792 -0 -0)
(555.820123056333 -0 -0)
(564.675893289951 -0 -0)
(573.841404560904 -0 -0)
(583.334190938701 -0 -0)
(593.172495305543 -0 -0)
(603.375298224917 -0 -0)
(613.96234909006 -0 -0)
(624.954199611323 -0 -0)
(636.372240012179 -0 -0)
(648.238738225398 -0 -0)
(660.576882398226 -0 -0)
(673.410827138683 -0 -0)
(686.765743965267 -0 -0)
(700.667876339514 -0 -0)
(715.144599838857 -0 -0)
(730.224488043694 -0 -0)
(745.937384852137 -0 -0)
(762.314483845968 -0 -0)
(779.388415435368 -0 -0)
(797.193342875877 -0 -0)
(815.765067809035 -0 -0)
(835.141146725356 -0 -0)
(855.361019197303 -0 -0)
(876.466149595057 -0 -0)
(898.500183405081 -0 -0)
(921.509119906719 -0 -0)
(945.541503311125 -0 -0)
(970.648634081421 -0 -0)
(996.884802943541 -0 -0)
(1024.30755029176 -0 -0)
(1052.97795390544 -0 -0)
(1082.96094838818 -0 -0)
(1114.32568023357 -0 -0)
(1147.14590290234 -0 -0)
(1181.50041716451 -0 -0)
(1217.47356225676 -0 -0)
(1255.15576497746 -0 -0)
(1294.64415413978 -0 -0)
(1336.04324975015 -0 -0)
(1379.46573739733 -0 -0)
(1425.03334008392 -0 -0)
(1472.87780223065 -0 -0)
(1523.1420025576 -0 -0)
(1575.98121626575 -0 -0)
(1631.56455012262 -0 -0)
(1690.07657872829 -0 -0)
(1751.71921572257 -0 -0)
(1816.71385998553 -0 -0)
(1885.30386535258 -0 -0)
(1957.75739168474 -0 -0)
(2034.3707072603 -0 -0)
(2115.47202761972 -0 -0)
(2201.42599391364 -0 -0)
(2292.63891588804 -0 -0)
(2389.5649338415 -0 -0)
(2492.71328755327 -0 -0)
(2602.65692411134 -0 -0)
(2720.04273163984 -0 -0)
(2845.60375103743 -0 -0)
(2980.17380668705 -0 -0)
(3124.705101665 -0 -0)
(3280.28946091428 -0 -0)
(3448.18404194904 -0 -0)
(3629.84256411554 -0 -0)
(3826.95380431098 -0 -0)
(4041.48717874822 -0 -0)
(4275.75171672067 -0 -0)
(4532.46990542626 -0 -0)
(4814.86045887295 -0 -0)
(5126.75362711089 -0 -0)
(5472.90510784671 -0 -0)
(5859.69455017752 -0 -0)
(6296.7680714863 -0 -0)
(6796.32034786278 -0 -0)
(7369.95982733635 -0 -0)
(8030.95548820949 -0 -0)
(8796.7765012405 -0 -0)
(9686.89983074187 -0 -0)
(10719.0082774166 -0 -0)
(11912.6368707162 -0 -0)
(13286.476683387 -0 -0)
(14849.3613312984 -0 -0)
(16613.6612319106 -0 -0)
(18587.8069935657 -0 -0)
(20770.3467280532 -0 -0)
(23157.5367427099 -0 -0)
(25732.5589587429 -0 -0)
(28475.5623842338 -0 -0)
(31352.7435055231 -0 -0)
(34325.8825069727 -0 -0)
(37375.1235231735 -0 -0)
(40462.529839416 -0 -0)
(43551.9724355286 -0 -0)
(46631.9082682395 -0 -0)
(49691.8003099818 -0 -0)
(52711.2205915413 -0 -0)
(55673.251901961 -0 -0)
(58585.4648468374 -0 -0)
(61462.4425597907 -0 -0)
(64321.787658947 -0 -0)
(67178.4063570478 -0 -0)
(70032.5155953323 -0 -0)
(72880.0809766515 -0 -0)
(75716.2622910493 -0 -0)
(78537.3313004264 -0 -0)
(81342.2611282047 -0 -0)
(84127.2702707143 -0 -0)
(86885.3519691569 -0 -0)
(89615.0776457778 -0 -0)
(92319.5490016773 -0 -0)
(95001.7587069717 -0 -0)
(97664.5881924309 -0 -0)
(100310.673457484 -0 -0)
(102942.632405352 -0 -0)
(105562.915050277 -0 -0)
(108172.115082268 -0 -0)
(110765.993843046 -0 -0)
(113341.921432718 -0 -0)
(115901.572120296 -0 -0)
(118446.530124373 -0 -0)
(120978.269348114 -0 -0)
(123498.334732461 -0 -0)
(126008.270059682 -0 -0)
(128509.567361122 -0 -0)
(131003.442395756 -0 -0)
(133490.941097863 -0 -0)
(135972.890186055 -0 -0)
(138449.981288687 -0 -0)
(140920.818083829 -0 -0)
(143381.581161478 -0 -0)
(145830.628660744 -0 -0)
(148268.630240789 -0 -0)
(150696.304642987 -0 -0)
(153114.307829573 -0 -0)
(155523.308665726 -0 -0)
(157923.85144515 -0 -0)
(160316.310089699 -0 -0)
(162700.896995381 -0 -0)
(165077.58838257 -0 -0)
(167446.451993 -0 -0)
(169807.527644592 -0 -0)
(172161.16432951 -0 -0)
(174507.672152456 -0 -0)
(176847.408112613 -0 -0)
(179180.738454284 -0 -0)
(181507.894949741 -0 -0)
(183826.655607778 -0 -0)
(186134.278661043 -0 -0)
(188431.052538833 -0 -0)
(190717.41434365 -0 -0)
(192993.883494401 -0 -0)
(195260.950166441 -0 -0)
(197518.957659989 -0 -0)
(199768.239097104 -0 -0)
(202008.932029146 -0 -0)
(204241.150919587 -0 -0)
(206464.933506341 -0 -0)
(208680.167563674 -0 -0)
(210886.864374733 -0 -0)
(213085.036654464 -0 -0)
(215274.891144703 -0 -0)
(217456.728263881 -0 -0)
(219630.876153066 -0 -0)
(221797.787718447 -0 -0)
(223957.904736644 -0 -0)
(226111.739027501 -0 -0)
(228259.822625673 -0 -0)
(230402.618526169 -0 -0)
(232540.391440384 -0 -0)
(234673.284669268 -0 -0)
(236800.819595149 -0 -0)
(238921.077604096 -0 -0)
(241032.687711935 -0 -0)
(243135.704695154 -0 -0)
(245230.198837477 -0 -0)
(247316.300635781 -0 -0)
(249394.190387395 -0 -0)
(251464.140256698 -0 -0)
(253526.474604501 -0 -0)
(255581.585338392 -0 -0)
(257629.877959433 -0 -0)
(259671.779858129 -0 -0)
(261707.687482875 -0 -0)
(263737.988804869 -0 -0)
(265763.028094373 -0 -0)
(267783.120352301 -0 -0)
(269798.50973776 -0 -0)
(271809.360091248 -0 -0)
(273815.764395442 -0 -0)
(275817.736654552 -0 -0)
(277815.310315051 -0 -0)
(279808.463674798 -0 -0)
(281797.283771535 -0 -0)
(283781.826633209 -0 -0)
(285762.251596899 -0 -0)
(287738.780541948 -0 -0)
(289711.682106694 -0 -0)
(291681.316824222 -0 -0)
(293648.062539276 -0 -0)
(295612.308216056 -0 -0)
(297574.389212252 -0 -0)
(299534.553989827 -0 -0)
(301492.923945903 -0 -0)
(303449.166138 -0 -0)
)
;

boundaryField
{
    electrode
    {
        type            calculated;
        value           uniform (2.31917423207051 -0 -0);
    }
    ground
    {
        type            calculated;
        value           uniform (304426.519760512 -0 -0);
    }
    otherfaces
    {
        type            empty;
    }
}


// ************************************************************************* //
