/*--------------------------------*- C++ -*----------------------------------*\
| =========                 |                                                 |
| \\      /  F ield         | foam-extend: Open Source CFD                    |
|  \\    /   O peration     | Version:     4.0                                |
|   \\  /    A nd           | Web:         http://www.foam-extend.org         |
|    \\/     M anipulation  |                                                 |
\*---------------------------------------------------------------------------*/
FoamFile
{
    version     2.0;
    format      ascii;
    class       volScalarField;
    location    "1.7e-06";
    object      electron;
}
// * * * * * * * * * * * * * * * * * * * * * * * * * * * * * * * * * * * * * //

dimensions      [0 0 0 1 0 0 0];

internalField   nonuniform List<scalar> 
300
(
6.02795800316177e+16
6.02772284103174e+16
6.02718570709032e+16
6.02631362163869e+16
6.0251085065487e+16
6.02357161474898e+16
6.02170316629524e+16
6.01950365719366e+16
6.01697372249135e+16
6.01411407043193e+16
6.01092550429737e+16
6.00740892450956e+16
6.003565326907e+16
5.99939580282408e+16
5.99490153914085e+16
5.99008381813325e+16
5.98494401726148e+16
5.9794836088798e+16
5.9737041598435e+16
5.96760733100502e+16
5.96119487658678e+16
5.95446864341868e+16
5.94743057002756e+16
5.94008268556852e+16
5.93242710858517e+16
5.92446604558827e+16
5.91620178944448e+16
5.90763671756215e+16
5.89877328986762e+16
5.88961404656421e+16
5.88016160566555e+16
5.87041866029677e+16
5.860387975759e+16
5.85007238635236e+16
5.83947479195524e+16
5.82859815435724e+16
5.81744549334277e+16
5.80601988252786e+16
5.79432444494939e+16
5.78236234840856e+16
5.77013680057239e+16
5.7576510438358e+16
5.74490834994797e+16
5.73191201440932e+16
5.71866535064551e+16
5.70517168396235e+16
5.69143434529023e+16
5.67745666472472e+16
5.6632419648707e+16
5.64879355399879e+16
5.63411471902177e+16
5.61920871829777e+16
5.60407877427094e+16
5.58872806595758e+16
5.57315972128268e+16
5.5573768092785e+16
5.5413823321523e+16
5.5251792172291e+16
5.50877030877984e+16
5.49215835974154e+16
5.47534602333388e+16
5.45833584458115e+16
5.44113025174694e+16
5.42373154768584e+16
5.4061419011189e+16
5.38836333783943e+16
5.37039773185341e+16
5.3522467964621e+16
5.33391207529159e+16
5.31539493327335e+16
5.29669654758333e+16
5.2778178985461e+16
5.25875976050851e+16
5.23952269268969e+16
5.22010703001389e+16
5.20051287393437e+16
5.18074008325686e+16
5.16078826496952e+16
5.14065676508839e+16
5.12034465952998e+16
5.09985074502181e+16
5.0791735300608e+16
5.05831122593366e+16
5.03726173781434e+16
5.01602265595161e+16
4.99459124696331e+16
4.97296444525561e+16
4.95113884458391e+16
4.92911068977606e+16
4.90687586863907e+16
4.88442990406983e+16
4.86176794639252e+16
4.83888476594725e+16
4.81577474595462e+16
4.792431875681e+16
4.76884974393059e+16
4.74502153289175e+16
4.72094001236306e+16
4.69659753438764e+16
4.67198602832316e+16
4.64709699637266e+16
4.62192150960549e+16
4.59645020449383e+16
4.57067327998968e+16
4.54458049516733e+16
4.51816116745445e+16
4.49140417147415e+16
4.46429793851899e+16
4.43683045667426e+16
4.40898927160719e+16
4.38076148803733e+16
4.35213377190056e+16
4.32309235321566e+16
4.29362302966009e+16
4.2637111708613e+16
4.23334172340458e+16
4.20249921655757e+16
4.17116776870859e+16
4.13933109451398e+16
4.10697251274723e+16
4.07407495483972e+16
4.04062097410599e+16
4.00659275563964e+16
3.97197212686707e+16
3.93674056874894e+16
3.90087922761659e+16
3.86436892763147e+16
3.82719018385887e+16
3.78932321594854e+16
3.75074796241814e+16
3.71144409553718e+16
3.67139103681511e+16
3.63056797310042e+16
3.58895387330314e+16
3.54652750575992e+16
3.50326745626359e+16
3.459152146788e+16
3.4141598549437e+16
3.36826873420684e+16
3.3214568349711e+16
3.27370212647682e+16
3.22498251968151e+16
3.17527589114234e+16
3.12456010799328e+16
3.07281305411133e+16
3.02001265758475e+16
2.96613691962731e+16
2.91116394511988e+16
2.85507197501874e+16
2.79783942096499e+16
2.73944490255963e+16
2.67986728796181e+16
2.6190857387584e+16
2.55707976045937e+16
2.49382926058611e+16
2.42931461718597e+16
2.36351676182503e+16
2.29641728289247e+16
2.22799855749015e+16
2.15824392456302e+16
2.08713791201708e+16
2.01466654803706e+16
1.94081777564917e+16
1.86558197574071e+16
1.78895263126226e+16
1.71092706829094e+16
1.63150595815058e+16
1.55068958292302e+16
1.46846666945784e+16
1.38480742148457e+16
1.29968607843101e+16
1.21311197824321e+16
1.12514312955664e+16
1.0359073407352e+16
9.45652301510568e+15
8.5479076610823e+15
7.63929531872112e+15
6.73912599508713e+15
5.85811040876128e+15
5.0086290165269e+15
4.20409561113939e+15
3.45786997754292e+15
2.78199182314873e+15
2.18586794203228e+15
1.67517268535366e+15
1.25117063906394e+15
910610844870398
645824279304989
446784895795378
302311946625680
200893581998691
131838993879121
86067404255205.6
56637507463760.9
37097865119172.2
23679854467820.3
14659694506388.8
8943611042380.35
5664420619641.53
3868292051477.16
2886715698033.7
2337800643081.62
2022033434885.39
1836601438708.83
1726881374837.63
1662514215729.6
1625687428881.46
1605524791447.85
1595407006808.17
1590818890278.52
1588755274264.61
1587208705692.01
1584904287370.24
1581014781936.09
1575022682406.91
1566628498659.07
1555690274039.4
1542180416233.87
1526154598077.23
1507726532404.52
1487053884900.29
1464288279629.87
1439596080957.61
1413194466935.12
1385315540143.22
1356195803163.29
1326067709916.46
1295153526586.52
1263661926325.23
1231786427764.91
1199704515780.28
1167577293526.62
1135549552928.52
1103750122023.12
1072292436454.06
1041275188738.31
1010783053985.68
980887468711.537
951647501628.037
923110846011.157
895314839007.571
868287515027.834
842049075249.355
816613261091.414
791987314922.49
768172138130.011
745159554256.055
722931338125.552
701471539551
680768321112.64
660807213428.844
641571821839.119
623043884357.664
605203719866.743
588030668522.791
571503337783.512
555601809901.142
540302597566.853
525578367551.404
511407623036.854
497770651376.647
484645644536.173
472011342111.506
459846926766.119
448132280869.749
436848063049.672
425975721890.178
415497447311.555
405394069597.444
395640487373.767
386215285966.041
377105104070.443
368297743436.255
359782199034.976
351548234835.307
343586385245.531
335887943427.769
328444984431.519
321250402050.982
314297922632.254
307582170562.937
301097990135.966
294840349496.661
288788779311.723
282913648825.604
277208176267.963
271683491978.676
266353362329.562
261232249612.474
256307382135.773
251552695674.607
246985590685.043
242660550736.392
238572777197.06
234749469391.241
231289259129.633
228333653054.461
226168111603.531
225258518530.41
226444316063.362
)
;

boundaryField
{
    electrode
    {
        type            driftDiffusionElectronDensity;
        seec            0.05;
        Edepend         1;
        field_emission  0;
        field_enhancement_factor 55;
        work_function   5;
        value           uniform 6.02795800316177e+16;
    }
    ground
    {
        type            driftDiffusionElectronDensity;
        seec            0.05;
        Edepend         1;
        field_emission  0;
        field_enhancement_factor 55;
        work_function   5;
        value           uniform 228680897741.793;
    }
    otherfaces
    {
        type            empty;
    }
}


// ************************************************************************* //
