/*--------------------------------*- C++ -*----------------------------------*\
| =========                 |                                                 |
| \\      /  F ield         | foam-extend: Open Source CFD                    |
|  \\    /   O peration     | Version:     4.0                                |
|   \\  /    A nd           | Web:         http://www.foam-extend.org         |
|    \\/     M anipulation  |                                                 |
\*---------------------------------------------------------------------------*/
FoamFile
{
    version     2.0;
    format      ascii;
    class       volVectorField;
    location    "1.7e-06";
    object      J_Arp1;
}
// * * * * * * * * * * * * * * * * * * * * * * * * * * * * * * * * * * * * * //

dimensions      [1 -1 -1 0 0 0 0];

internalField   nonuniform List<vector> 
300
(
(1.61957358562749e+16 -0 -0)
(5.28185572659684e+16 -0 -0)
(9.17490001920136e+16 -0 -0)
(1.28261510933426e+17 -0 -0)
(1.64669155629634e+17 -0 -0)
(2.01152994183452e+17 -0 -0)
(2.37582485506367e+17 -0 -0)
(2.7393067400433e+17 -0 -0)
(3.101979890917e+17 -0 -0)
(3.46373586445662e+17 -0 -0)
(3.82446303747276e+17 -0 -0)
(4.18405809674627e+17 -0 -0)
(4.54241692070818e+17 -0 -0)
(4.89943502826305e+17 -0 -0)
(5.25500822291201e+17 -0 -0)
(5.60903258044864e+17 -0 -0)
(5.96140450072229e+17 -0 -0)
(6.31202082556822e+17 -0 -0)
(6.66077895382952e+17 -0 -0)
(7.00757696813051e+17 -0 -0)
(7.35231377819782e+17 -0 -0)
(7.69488927372403e+17 -0 -0)
(8.03520449585756e+17 -0 -0)
(8.37316181170582e+17 -0 -0)
(8.70866511417674e+17 -0 -0)
(9.04162001946057e+17 -0 -0)
(9.37193408362768e+17 -0 -0)
(9.69951703001172e+17 -0 -0)
(1.00242809785087e+18 -0 -0)
(1.03461406903942e+18 -0 -0)
(1.06650138143712e+18 -0 -0)
(1.09808211462626e+18 -0 -0)
(1.1293486884845e+18 -0 -0)
(1.16029388999753e+18 -0 -0)
(1.19091089935145e+18 -0 -0)
(1.22119331726964e+18 -0 -0)
(1.25113519174655e+18 -0 -0)
(1.28073104467081e+18 -0 -0)
(1.3099758987674e+18 -0 -0)
(1.33886530375044e+18 -0 -0)
(1.36739536228508e+18 -0 -0)
(1.39556275564106e+18 -0 -0)
(1.42336476882061e+18 -0 -0)
(1.45079931466198e+18 -0 -0)
(1.47786495754371e+18 -0 -0)
(1.50456093665286e+18 -0 -0)
(1.53088718776321e+18 -0 -0)
(1.55684436501725e+18 -0 -0)
(1.58243386095718e+18 -0 -0)
(1.60765782647051e+18 -0 -0)
(1.63251918910847e+18 -0 -0)
(1.65702167151403e+18 -0 -0)
(1.68116980731442e+18 -0 -0)
(1.7049689577881e+18 -0 -0)
(1.72842532685818e+18 -0 -0)
(1.75154597493286e+18 -0 -0)
(1.77433883247723e+18 -0 -0)
(1.79681271259137e+18 -0 -0)
(1.81897732216803e+18 -0 -0)
(1.84084327305822e+18 -0 -0)
(1.86242209233176e+18 -0 -0)
(1.88372623147034e+18 -0 -0)
(1.90476907485196e+18 -0 -0)
(1.92556494808326e+18 -0 -0)
(1.94612912501026e+18 -0 -0)
(1.96647783455192e+18 -0 -0)
(1.98662826671519e+18 -0 -0)
(2.00659857767145e+18 -0 -0)
(2.02640789472934e+18 -0 -0)
(2.04607632056112e+18 -0 -0)
(2.06562493626695e+18 -0 -0)
(2.08507580414251e+18 -0 -0)
(2.10445196962661e+18 -0 -0)
(2.12377746252972e+18 -0 -0)
(2.14307729750615e+18 -0 -0)
(2.16237747298302e+18 -0 -0)
(2.18170496988342e+18 -0 -0)
(2.20108774874439e+18 -0 -0)
(2.22055474628328e+18 -0 -0)
(2.24013586964283e+18 -0 -0)
(2.25986199027416e+18 -0 -0)
(2.27976493592129e+18 -0 -0)
(2.29987748086118e+18 -0 -0)
(2.32023333422968e+18 -0 -0)
(2.34086712708852e+18 -0 -0)
(2.36181439665097e+18 -0 -0)
(2.38311156882881e+18 -0 -0)
(2.40479593831556e+18 -0 -0)
(2.42690564608573e+18 -0 -0)
(2.44947965410191e+18 -0 -0)
(2.47255771774456e+18 -0 -0)
(2.49618035496569e+18 -0 -0)
(2.52038881240646e+18 -0 -0)
(2.54522502835227e+18 -0 -0)
(2.57073159268028e+18 -0 -0)
(2.59695170307614e+18 -0 -0)
(2.62392911795752e+18 -0 -0)
(2.65170810621407e+18 -0 -0)
(2.68033339253611e+18 -0 -0)
(2.70985010007112e+18 -0 -0)
(2.74030368907878e+18 -0 -0)
(2.7717398916837e+18 -0 -0)
(2.80420464349465e+18 -0 -0)
(2.83774401143727e+18 -0 -0)
(2.87240411840673e+18 -0 -0)
(2.90823106420961e+18 -0 -0)
(2.94527084333956e+18 -0 -0)
(2.98356925965984e+18 -0 -0)
(3.02317183817648e+18 -0 -0)
(3.06412373392354e+18 -0 -0)
(3.10646963806388e+18 -0 -0)
(3.15025368138252e+18 -0 -0)
(3.19551933597659e+18 -0 -0)
(3.24230931443956e+18 -0 -0)
(3.29066546678821e+18 -0 -0)
(3.34062867642663e+18 -0 -0)
(3.39223875340695e+18 -0 -0)
(3.44553432704325e+18 -0 -0)
(3.50055273611466e+18 -0 -0)
(3.55732991874424e+18 -0 -0)
(3.61590029969987e+18 -0 -0)
(3.67629667642251e+18 -0 -0)
(3.73855010388847e+18 -0 -0)
(3.80268977694172e+18 -0 -0)
(3.86874291029376e+18 -0 -0)
(3.93673461629452e+18 -0 -0)
(4.00668777924552e+18 -0 -0)
(4.07862292596108e+18 -0 -0)
(4.15255809165832e+18 -0 -0)
(4.22850868065424e+18 -0 -0)
(4.30648732073288e+18 -0 -0)
(4.3865037099241e+18 -0 -0)
(4.46856445506292e+18 -0 -0)
(4.55267290005008e+18 -0 -0)
(4.63882894304611e+18 -0 -0)
(4.72702884119958e+18 -0 -0)
(4.81726500070061e+18 -0 -0)
(4.90952575157845e+18 -0 -0)
(5.00379510439439e+18 -0 -0)
(5.10005248871611e+18 -0 -0)
(5.19827247026013e+18 -0 -0)
(5.29842444642239e+18 -0 -0)
(5.40047231813331e+18 -0 -0)
(5.50437413595429e+18 -0 -0)
(5.61008172112484e+18 -0 -0)
(5.71754025849377e+18 -0 -0)
(5.82668785951548e+18 -0 -0)
(5.93745509810571e+18 -0 -0)
(6.04976451384384e+18 -0 -0)
(6.16353008302122e+18 -0 -0)
(6.27865665783862e+18 -0 -0)
(6.39503936903264e+18 -0 -0)
(6.51256298994405e+18 -0 -0)
(6.63110126686744e+18 -0 -0)
(6.75051618808163e+18 -0 -0)
(6.87065721995879e+18 -0 -0)
(6.99136046925455e+18 -0 -0)
(7.11244778425005e+18 -0 -0)
(7.23372592072513e+18 -0 -0)
(7.35498413746842e+18 -0 -0)
(7.47599867270131e+18 -0 -0)
(7.59651628585754e+18 -0 -0)
(7.7162769086537e+18 -0 -0)
(7.83500203263039e+18 -0 -0)
(7.95238482950951e+18 -0 -0)
(8.0679036970048e+18 -0 -0)
(8.18168621056287e+18 -0 -0)
(8.29422337652413e+18 -0 -0)
(8.39841680343126e+18 -0 -0)
(8.5011748418359e+18 -0 -0)
(8.59924247044205e+18 -0 -0)
(8.69505294217721e+18 -0 -0)
(8.78382493517076e+18 -0 -0)
(8.86465111782806e+18 -0 -0)
(8.94158134678802e+18 -0 -0)
(9.03140468967943e+18 -0 -0)
(9.08108935371367e+18 -0 -0)
(9.15144570808474e+18 -0 -0)
(9.19924088432421e+18 -0 -0)
(9.25701692254813e+18 -0 -0)
(9.30579822739588e+18 -0 -0)
(9.34626362340981e+18 -0 -0)
(9.40584027023429e+18 -0 -0)
(9.43642596171631e+18 -0 -0)
(9.46537476196172e+18 -0 -0)
(9.50044714239034e+18 -0 -0)
(9.51440259634205e+18 -0 -0)
(9.53282110947968e+18 -0 -0)
(9.5620055168686e+18 -0 -0)
(9.57603204801876e+18 -0 -0)
(9.6027234021102e+18 -0 -0)
(9.61525852358592e+18 -0 -0)
(9.64336949808657e+18 -0 -0)
(9.65567209313309e+18 -0 -0)
(9.73734440637147e+18 -0 -0)
(9.91221769300256e+18 -0 -0)
(1.0140385830158e+19 -0 -0)
(1.03532995101367e+19 -0 -0)
(1.05310197209708e+19 -0 -0)
(1.06723630185864e+19 -0 -0)
(1.07925077240882e+19 -0 -0)
(1.08922857104569e+19 -0 -0)
(1.09845507581478e+19 -0 -0)
(1.10662361823263e+19 -0 -0)
(1.11501146802146e+19 -0 -0)
(1.12267593097945e+19 -0 -0)
(1.1307759797078e+19 -0 -0)
(1.13829056692594e+19 -0 -0)
(1.14625787480598e+19 -0 -0)
(1.15379527392433e+19 -0 -0)
(1.1618225940059e+19 -0 -0)
(1.16925272633565e+19 -0 -0)
(1.17710184508098e+19 -0 -0)
(1.18451485418191e+19 -0 -0)
(1.19219368923053e+19 -0 -0)
(1.19947957941912e+19 -0 -0)
(1.20704377555305e+19 -0 -0)
(1.2143745224645e+19 -0 -0)
(1.22208234763895e+19 -0 -0)
(1.2295869423389e+19 -0 -0)
(1.23727684617183e+19 -0 -0)
(1.24465107942913e+19 -0 -0)
(1.25204485158034e+19 -0 -0)
(1.25902823737132e+19 -0 -0)
(1.2659361488418e+19 -0 -0)
(1.27233709325519e+19 -0 -0)
(1.27891994396383e+19 -0 -0)
(1.28503610044891e+19 -0 -0)
(1.29144486847901e+19 -0 -0)
(1.29735724168547e+19 -0 -0)
(1.30362377608082e+19 -0 -0)
(1.30928925118907e+19 -0 -0)
(1.31516110631506e+19 -0 -0)
(1.32027141477298e+19 -0 -0)
(1.32534957128023e+19 -0 -0)
(1.32977531821793e+19 -0 -0)
(1.33415526309654e+19 -0 -0)
(1.33824498542698e+19 -0 -0)
(1.34226739006587e+19 -0 -0)
(1.34607155473824e+19 -0 -0)
(1.34983979762172e+19 -0 -0)
(1.35325697339051e+19 -0 -0)
(1.35686724548437e+19 -0 -0)
(1.35982462642273e+19 -0 -0)
(1.36345453774938e+19 -0 -0)
(1.3663092502869e+19 -0 -0)
(1.36997179160878e+19 -0 -0)
(1.37283993008058e+19 -0 -0)
(1.37637137302555e+19 -0 -0)
(1.37910605958106e+19 -0 -0)
(1.38228915754006e+19 -0 -0)
(1.38465146878352e+19 -0 -0)
(1.38738486462912e+19 -0 -0)
(1.38911060545211e+19 -0 -0)
(1.39137616568954e+19 -0 -0)
(1.39263587111397e+19 -0 -0)
(1.39469927368122e+19 -0 -0)
(1.39588167417541e+19 -0 -0)
(1.39792595232512e+19 -0 -0)
(1.39925726569791e+19 -0 -0)
(1.40146073760074e+19 -0 -0)
(1.40305140989389e+19 -0 -0)
(1.405564078322e+19 -0 -0)
(1.40738310322734e+19 -0 -0)
(1.40988253326577e+19 -0 -0)
(1.41153241554485e+19 -0 -0)
(1.4137065157626e+19 -0 -0)
(1.41495018067243e+19 -0 -0)
(1.41678406111875e+19 -0 -0)
(1.41773360772701e+19 -0 -0)
(1.41931171803669e+19 -0 -0)
(1.42008722620434e+19 -0 -0)
(1.42157504017839e+19 -0 -0)
(1.42238935905794e+19 -0 -0)
(1.42400630822954e+19 -0 -0)
(1.42504958042167e+19 -0 -0)
(1.42693435264235e+19 -0 -0)
(1.42828363111558e+19 -0 -0)
(1.43045034299901e+19 -0 -0)
(1.43207643006699e+19 -0 -0)
(1.43447530441437e+19 -0 -0)
(1.43629715985973e+19 -0 -0)
(1.43880526304094e+19 -0 -0)
(1.44062370255585e+19 -0 -0)
(1.44303730842077e+19 -0 -0)
(1.44464640760463e+19 -0 -0)
(1.44688635327111e+19 -0 -0)
(1.44823933474671e+19 -0 -0)
(1.45038928271968e+19 -0 -0)
(1.45160479523408e+19 -0 -0)
(1.45377825808694e+19 -0 -0)
(1.45510871233898e+19 -0 -0)
(1.45747799237587e+19 -0 -0)
(1.45914154885075e+19 -0 -0)
(1.46188341860769e+19 -0 -0)
(1.46393879275979e+19 -0 -0)
(1.46700614794168e+19 -0 -0)
(1.46925806671368e+19 -0 -0)
(1.47233820804585e+19 -0 -0)
(1.47391099928842e+19 -0 -0)
)
;

boundaryField
{
    electrode
    {
        type            calculated;
        value           uniform (84036803255.9253 -0 -0);
    }
    ground
    {
        type            calculated;
        value           uniform (1.47582310284954e+19 -0 -0);
    }
    otherfaces
    {
        type            empty;
    }
}


// ************************************************************************* //
