/*--------------------------------*- C++ -*----------------------------------*\
| =========                 |                                                 |
| \\      /  F ield         | foam-extend: Open Source CFD                    |
|  \\    /   O peration     | Version:     4.0                                |
|   \\  /    A nd           | Web:         http://www.foam-extend.org         |
|    \\/     M anipulation  |                                                 |
\*---------------------------------------------------------------------------*/
FoamFile
{
    version     2.0;
    format      ascii;
    class       volVectorField;
    location    "1.7e-06";
    object      J_electron;
}
// * * * * * * * * * * * * * * * * * * * * * * * * * * * * * * * * * * * * * //

dimensions      [1 -1 -1 0 0 0 0];

internalField   nonuniform List<vector> 
300
(
(-1.30393525215672e+19 0 0)
(-1.29698166108998e+19 0 0)
(-1.49729421007689e+19 0 0)
(-1.49671087889849e+19 0 0)
(-1.48588591711195e+19 0 0)
(-1.48315009581159e+19 0 0)
(-1.48010602505771e+19 0 0)
(-1.47657127400805e+19 0 0)
(-1.47315205263099e+19 0 0)
(-1.46976487977763e+19 0 0)
(-1.46637823884988e+19 0 0)
(-1.46300310001489e+19 0 0)
(-1.45964135758953e+19 0 0)
(-1.45629311050435e+19 0 0)
(-1.45295924027979e+19 0 0)
(-1.44964065879504e+19 0 0)
(-1.44633814473216e+19 0 0)
(-1.44305245745026e+19 0 0)
(-1.4397843213979e+19 0 0)
(-1.4365344082883e+19 0 0)
(-1.43330335586737e+19 0 0)
(-1.43009174189457e+19 0 0)
(-1.42690012201368e+19 0 0)
(-1.42372897076728e+19 0 0)
(-1.42057875368129e+19 0 0)
(-1.41744986232497e+19 0 0)
(-1.41434263964915e+19 0 0)
(-1.4112574007069e+19 0 0)
(-1.40819439097853e+19 0 0)
(-1.40515382229953e+19 0 0)
(-1.40213583910689e+19 0 0)
(-1.39914056232216e+19 0 0)
(-1.39616803845266e+19 0 0)
(-1.39321829618216e+19 0 0)
(-1.39029128698483e+19 0 0)
(-1.38738692908033e+19 0 0)
(-1.38450509699217e+19 0 0)
(-1.38164560354604e+19 0 0)
(-1.37880822552453e+19 0 0)
(-1.37599268899091e+19 0 0)
(-1.37319866816096e+19 0 0)
(-1.3704257861812e+19 0 0)
(-1.3676736277212e+19 0 0)
(-1.36494172021937e+19 0 0)
(-1.36222953130143e+19 0 0)
(-1.35953649520361e+19 0 0)
(-1.35686196979329e+19 0 0)
(-1.35420528043263e+19 0 0)
(-1.35156567879616e+19 0 0)
(-1.34894237494673e+19 0 0)
(-1.34633449125564e+19 0 0)
(-1.34374113265113e+19 0 0)
(-1.34116129720005e+19 0 0)
(-1.33859393731884e+19 0 0)
(-1.33603794497448e+19 0 0)
(-1.33349212664386e+19 0 0)
(-1.33095522356214e+19 0 0)
(-1.32842591919921e+19 0 0)
(-1.32590279694316e+19 0 0)
(-1.32338437150632e+19 0 0)
(-1.32086908555879e+19 0 0)
(-1.31835529775022e+19 0 0)
(-1.31584127154856e+19 0 0)
(-1.31332520549915e+19 0 0)
(-1.31080519740322e+19 0 0)
(-1.30827926151066e+19 0 0)
(-1.30574533411453e+19 0 0)
(-1.30320124579081e+19 0 0)
(-1.30064474055322e+19 0 0)
(-1.2980734864939e+19 0 0)
(-1.29548504681079e+19 0 0)
(-1.2928768977423e+19 0 0)
(-1.29024642518992e+19 0 0)
(-1.28759092035398e+19 0 0)
(-1.2849076006432e+19 0 0)
(-1.28219358165889e+19 0 0)
(-1.27944589668159e+19 0 0)
(-1.27666148565891e+19 0 0)
(-1.27383722716147e+19 0 0)
(-1.27096989385983e+19 0 0)
(-1.268056192977e+19 0 0)
(-1.26509275140283e+19 0 0)
(-1.26207613091269e+19 0 0)
(-1.25900280308166e+19 0 0)
(-1.25586919457009e+19 0 0)
(-1.2526716513716e+19 0 0)
(-1.24940646114567e+19 0 0)
(-1.24606986153309e+19 0 0)
(-1.24265802721337e+19 0 0)
(-1.23916708108886e+19 0 0)
(-1.23559309966374e+19 0 0)
(-1.23193211249639e+19 0 0)
(-1.22818011156384e+19 0 0)
(-1.22433303829477e+19 0 0)
(-1.22038680525697e+19 0 0)
(-1.21633728671913e+19 0 0)
(-1.2121803122475e+19 0 0)
(-1.20791169706822e+19 0 0)
(-1.20352720551202e+19 0 0)
(-1.19902257266174e+19 0 0)
(-1.19439351123741e+19 0 0)
(-1.18963568211536e+19 0 0)
(-1.18474471732596e+19 0 0)
(-1.17971620460783e+19 0 0)
(-1.17454568595317e+19 0 0)
(-1.1692286573427e+19 0 0)
(-1.16376055772511e+19 0 0)
(-1.15813675625926e+19 0 0)
(-1.1523525554754e+19 0 0)
(-1.14640317807906e+19 0 0)
(-1.14028375590521e+19 0 0)
(-1.13398931136006e+19 0 0)
(-1.1275147497218e+19 0 0)
(-1.12085485338797e+19 0 0)
(-1.11400424098811e+19 0 0)
(-1.10695738211214e+19 0 0)
(-1.09970854103283e+19 0 0)
(-1.09225179426629e+19 0 0)
(-1.0845809626774e+19 0 0)
(-1.07668962552845e+19 0 0)
(-1.06857108123586e+19 0 0)
(-1.06021828865729e+19 0 0)
(-1.05162387183664e+19 0 0)
(-1.04278006292886e+19 0 0)
(-1.03367865582271e+19 0 0)
(-1.02431096824896e+19 0 0)
(-1.01466778608001e+19 0 0)
(-1.00473930383318e+19 0 0)
(-9.94515060870559e+18 0 0)
(-9.83983846892346e+18 0 0)
(-9.73133647302676e+18 0 0)
(-9.61951500110555e+18 0 0)
(-9.50423416720065e+18 0 0)
(-9.3853422027507e+18 0 0)
(-9.26267392302829e+18 0 0)
(-9.13604895891574e+18 0 0)
(-9.00526936854574e+18 0 0)
(-8.87011738651512e+18 0 0)
(-8.73035211681353e+18 0 0)
(-8.58570619992985e+18 0 0)
(-8.43588165866042e+18 0 0)
(-8.28054496143213e+18 0 0)
(-8.11932149823727e+18 0 0)
(-7.95178870877192e+18 0 0)
(-7.77746846190666e+18 0 0)
(-7.59581805054945e+18 0 0)
(-7.40621944899712e+18 0 0)
(-7.20796709985085e+18 0 0)
(-7.00025421115792e+18 0 0)
(-6.78215615645955e+18 0 0)
(-6.55261249098691e+18 0 0)
(-6.31040642983343e+18 0 0)
(-6.05414162237489e+18 0 0)
(-5.78221885583524e+18 0 0)
(-5.49280927554994e+18 0 0)
(-5.1838289012274e+18 0 0)
(-4.85291627249349e+18 0 0)
(-4.49741028265558e+18 0 0)
(-4.11439767826307e+18 0 0)
(-3.70038670136495e+18 0 0)
(-3.25228768418438e+18 0 0)
(-2.76537903213026e+18 0 0)
(-2.23388441761127e+18 0 0)
(-1.65124063882432e+18 0 0)
(-1.00316392808409e+18 0 0)
(-1.99138986348773e+17 0 0)
(9.08443558041616e+17 0 0)
(2.68391144313848e+18 0 0)
(4.65555078239801e+18 0 0)
(5.69238636156525e+18 0 0)
(6.44683191841666e+18 0 0)
(7.38484356160841e+18 0 0)
(7.77059855608316e+18 0 0)
(6.73043599907514e+18 0 0)
(5.31315510804165e+18 0 0)
(3.35832912292427e+18 0 0)
(-4.53059013802721e+16 0 0)
(-1.63356208973585e+18 0 0)
(-2.0975687837019e+18 0 0)
(-1.25879442608855e+18 0 0)
(2.37252136067609e+18 0 0)
(7.77673267305618e+18 0 0)
(1.54908711402686e+19 0 0)
(2.36947205840353e+19 0 0)
(3.1776658857152e+19 0 0)
(3.78515582602408e+19 0 0)
(4.35633370899405e+19 0 0)
(3.96899991408649e+19 0 0)
(3.68599781640613e+19 0 0)
(3.04492814609892e+19 0 0)
(2.32114436412773e+19 0 0)
(1.52491843770449e+19 0 0)
(7.64967690803456e+18 0 0)
(8.04317553883265e+18 0 0)
(-1.71102165640523e+18 0 0)
(-1.57071673371139e+18 0 0)
(-3.38899788305867e+18 0 0)
(-2.95996745025773e+18 0 0)
(-3.16217963293885e+18 0 0)
(-3.43203562708934e+18 0 0)
(-3.64655977008131e+18 0 0)
(-3.74912813839071e+18 0 0)
(-3.78337800292337e+18 0 0)
(-3.76983470405229e+18 0 0)
(-3.73786480644367e+18 0 0)
(-3.68849318068517e+18 0 0)
(-3.63768429372016e+18 0 0)
(-3.57979564822189e+18 0 0)
(-3.51999033547121e+18 0 0)
(-3.45621816364318e+18 0 0)
(-3.39321673590766e+18 0 0)
(-3.32865007706028e+18 0 0)
(-3.26341286797378e+18 0 0)
(-3.19771939331535e+18 0 0)
(-3.1318048289402e+18 0 0)
(-3.06584763782555e+18 0 0)
(-3.00001312981127e+18 0 0)
(-2.93445908429886e+18 0 0)
(-2.86930462713097e+18 0 0)
(-2.80475534494226e+18 0 0)
(-2.74048241456664e+18 0 0)
(-2.67766640497002e+18 0 0)
(-2.61549551108177e+18 0 0)
(-2.55426650528976e+18 0 0)
(-2.49411857598758e+18 0 0)
(-2.43512141429122e+18 0 0)
(-2.37733727046832e+18 0 0)
(-2.32082090873047e+18 0 0)
(-2.26560768542667e+18 0 0)
(-2.21172309663772e+18 0 0)
(-2.15918439372186e+18 0 0)
(-2.1080007087124e+18 0 0)
(-2.05817397734169e+18 0 0)
(-2.00970028365616e+18 0 0)
(-1.96256889341303e+18 0 0)
(-1.91676594885139e+18 0 0)
(-1.8722719014776e+18 0 0)
(-1.82906586408234e+18 0 0)
(-1.78712245407653e+18 0 0)
(-1.74641457849886e+18 0 0)
(-1.70691275405421e+18 0 0)
(-1.66859080834143e+18 0 0)
(-1.63141147098662e+18 0 0)
(-1.59533164216711e+18 0 0)
(-1.56032979293835e+18 0 0)
(-1.52632791572792e+18 0 0)
(-1.4933536172693e+18 0 0)
(-1.46146510734835e+18 0 0)
(-1.43042836794289e+18 0 0)
(-1.40031014002252e+18 0 0)
(-1.37106595345798e+18 0 0)
(-1.34267082238713e+18 0 0)
(-1.31509383624008e+18 0 0)
(-1.28830687344939e+18 0 0)
(-1.26227851380655e+18 0 0)
(-1.237007202696e+18 0 0)
(-1.2123576573691e+18 0 0)
(-1.18846330351029e+18 0 0)
(-1.16526063022892e+18 0 0)
(-1.14260716353135e+18 0 0)
(-1.1205966128148e+18 0 0)
(-1.09916831395656e+18 0 0)
(-1.07830782340376e+18 0 0)
(-1.05799278759065e+18 0 0)
(-1.03820410053999e+18 0 0)
(-1.01892247098858e+18 0 0)
(-1.0001303859633e+18 0 0)
(-9.81787485622897e+17 0 0)
(-9.63872474162059e+17 0 0)
(-9.46534566258325e+17 0 0)
(-9.29540542650647e+17 0 0)
(-9.1296604930012e+17 0 0)
(-8.96787652508648e+17 0 0)
(-8.80998257166101e+17 0 0)
(-8.6558532498814e+17 0 0)
(-8.50537699482058e+17 0 0)
(-8.35844170755463e+17 0 0)
(-8.21494073963581e+17 0 0)
(-8.07476488670966e+17 0 0)
(-7.93782104770045e+17 0 0)
(-7.80392633742443e+17 0 0)
(-7.6731244175478e+17 0 0)
(-7.54370244809537e+17 0 0)
(-7.41959422735249e+17 0 0)
(-7.29924350212983e+17 0 0)
(-7.18052341602447e+17 0 0)
(-7.06450894868019e+17 0 0)
(-6.95124291708802e+17 0 0)
(-6.83841966073678e+17 0 0)
(-6.73171216201807e+17 0 0)
(-6.62913005445452e+17 0 0)
(-6.52758305221621e+17 0 0)
(-6.4237434385608e+17 0 0)
(-6.33426443847812e+17 0 0)
(-6.23932017742149e+17 0 0)
(-6.15400002422237e+17 0 0)
(-6.07098651889587e+17 0 0)
(-6.00306029621655e+17 0 0)
(-5.94012531809637e+17 0 0)
(-5.83648603999353e+17 0 0)
)
;

boundaryField
{
    electrode
    {
        type            calculated;
        value           uniform (-1.5024557741109e+19 0 0);
    }
    ground
    {
        type            calculated;
        value           uniform (-5.81026168998671e+17 0 0);
    }
    otherfaces
    {
        type            empty;
    }
}


// ************************************************************************* //
