/*--------------------------------*- C++ -*----------------------------------*\
| =========                 |                                                 |
| \\      /  F ield         | foam-extend: Open Source CFD                    |
|  \\    /   O peration     | Version:     4.0                                |
|   \\  /    A nd           | Web:         http://www.foam-extend.org         |
|    \\/     M anipulation  |                                                 |
\*---------------------------------------------------------------------------*/
FoamFile
{
    version     2.0;
    format      ascii;
    class       volScalarField;
    location    "1.7e-06";
    object      Phi;
}
// * * * * * * * * * * * * * * * * * * * * * * * * * * * * * * * * * * * * * //

dimensions      [0 0 0 1 0 0 0];

internalField   nonuniform List<scalar> 
300
(
699.999961347096
699.999772993296
699.999377241833
699.998772534023
699.997967240014
699.996961245554
699.995754294515
699.994346572423
699.992738238682
699.990929455266
699.988920416417
699.986711342704
699.984302480063
699.9816941007
699.978886503421
699.975880013885
699.972674984892
699.969271796654
699.96567085702
699.961872601675
699.957877494287
699.953686026604
699.949298718484
699.94471611786
699.939938800624
699.934967370423
699.929802458364
699.924444722614
699.91889484789
699.913153544833
699.907221549258
699.901099621272
699.894788544251
699.888289123681
699.881602185844
699.874728576352
699.867669158519
699.860424811575
699.852996428709
699.845384914936
699.837591184799
699.829616159887
699.821460766174
699.813125931172
699.80461258091
699.795921636711
699.787054011793
699.778010607675
699.768792310384
699.759399986487
699.749834478907
699.740096602554
699.730187139758
699.720106835502
699.709856392446
699.699436465754
699.688847657716
699.678090512153
699.667165508617
699.656073056376
699.644813488178
699.633387053791
699.621793913321
699.610034130294
699.598107664508
699.586014364637
699.573753960588
699.561326055611
699.548730118143
699.535965473387
699.523031294612
699.509926594182
699.496650214283
699.483200817362
699.469576876247
699.455776663961
699.441798243205
699.427639455508
699.413297910031
699.398770972007
699.38405575083
699.369149087746
699.354047543165
699.338747383567
699.323244567989
699.307534734082
699.291613183722
699.275474868162
699.259114372697
699.242525900845
699.225703257998
699.208639834543
699.191328588415
699.173762027065
699.155932188811
699.137830623536
699.119448372707
699.100775948666
699.081803313155
699.062519855029
699.042914367092
699.022975022008
699.00268934721
698.982044198736
698.961025733903
698.939619382735
698.917809818021
698.895580923908
698.872915762879
698.849796540977
698.826204571123
698.802120234321
698.777522938587
698.752391075331
698.726701972997
698.700431847635
698.673555750139
698.646047509781
698.617879673691
698.589023441835
698.559448597051
698.529123429608
698.498014655724
698.466087329387
698.433304746785
698.399628342524
698.365017576765
698.329429812264
698.292820180206
698.255141433582
698.216343786679
698.176374739105
698.135178882528
698.092697688106
698.048869272252
698.003628138122
697.956904889759
697.90862591545
697.858713036278
697.80708311528
697.75364762186
697.698312145271
697.640975849944
697.581530864223
697.519861592612
697.455843939867
697.389344433166
697.320219226049
697.248312964658
697.173457493122
697.095470370266
697.014153164199
696.929289484429
696.840642702591
696.74795330232
696.650935785856
696.54927504854
696.442622112411
696.330589084479
696.212743176281
696.088599580205
695.957612922661
695.819167101622
695.672562808213
695.51700244126
695.351572110955
695.175218866119
694.986711770432
694.784572562774
694.566927232333
694.331484539582
694.075596577177
693.796087507035
693.489144810428
693.150294184986
692.7745442586
692.356118393605
691.888779146374
691.366160971518
690.781201730913
690.126973838614
689.396511949043
688.583138055767
687.68100801846
686.684767230151
685.590825118092
684.39637506302
683.099150216547
681.698873073725
680.195685387512
678.590079189176
676.88289870018
675.075997816406
673.171348573382
671.17030015995
669.07385240273
666.882180982687
664.595291978926
662.213346609666
659.736619913816
657.165595790262
654.500797827121
651.742778381715
648.892313142407
645.950421583772
642.917974632688
639.79578498366
636.584524052224
633.284812437498
629.897145821725
626.42197027714
622.859618151705
619.210495938322
615.47521856217
611.654367842808
607.748447087484
603.757932501184
599.683229130943
595.524710185686
591.282677793631
586.957405694944
582.549114967246
578.058009621754
573.484255621509
568.828010869174
564.089534415921
559.269238791743
554.367492505204
549.384663442357
544.321072195672
539.177042920385
533.952851617958
528.648786157375
523.265097611976
517.802059691017
512.259925053139
506.638962891483
500.939423210166
495.161551936182
489.305578400002
483.371724728675
477.360195836383
471.271198398692
465.105085462532
458.862246487955
452.543015293276
446.14775219838
439.676756393648
433.130355520617
426.508825882983
419.812472914144
413.041563747706
406.196396186171
399.277234847285
392.284385015258
385.218110555634
378.078715904962
370.866451145987
363.58160068737
356.224392735783
348.795081506139
341.293865753342
333.720965570973
326.076544244963
318.360791002561
310.573851482271
302.715905357942
294.787130175928
286.78783351767
278.718284328465
270.578786537993
262.369604405967
254.091033162273
245.743325046805
237.32675714516
228.841560073173
220.287984789268
211.666234875878
202.976532798727
194.219055710353
185.394000211736
176.501520504061
167.541792188249
158.514953188211
149.421168182165
140.260568895182
131.033319071861
121.739548207511
112.379421493543
102.953062622741
93.4606330513263
83.9022458496165
74.2780476818648
64.5881337091692
54.8326265602508
45.0115962065524
35.1251393458469
25.1733035924015
15.1561690798565
5.07377532934025
)
;

boundaryField
{
    electrode
    {
        type            fixedValue;
        value           uniform 700;
    }
    ground
    {
        type            fixedValue;
        value           uniform 0;
    }
    otherfaces
    {
        type            empty;
    }
}


// ************************************************************************* //
