/*--------------------------------*- C++ -*----------------------------------*\
| =========                 |                                                 |
| \\      /  F ield         | foam-extend: Open Source CFD                    |
|  \\    /   O peration     | Version:     4.0                                |
|   \\  /    A nd           | Web:         http://www.foam-extend.org         |
|    \\/     M anipulation  |                                                 |
\*---------------------------------------------------------------------------*/
FoamFile
{
    version     2.0;
    format      ascii;
    class       volScalarField;
    location    "1.7e-06";
    object      PhiMean;
}
// * * * * * * * * * * * * * * * * * * * * * * * * * * * * * * * * * * * * * //

dimensions      [0 0 0 1 0 0 0];

internalField   nonuniform List<scalar> 
300
(
699.956840062133
699.953015684956
699.948936402906
699.94462428231
699.940088717759
699.935316194941
699.930303116197
699.925045686495
699.919540515309
699.913784982916
699.907776919689
699.901514654933
699.894996906051
699.888222751117
699.881191594157
699.87390313097
699.866357322231
699.858554376059
699.850494725814
699.842179009224
699.833608054935
699.82478286812
699.815704617776
699.806374623607
699.796794341612
699.786965386608
699.77688949872
699.766568533366
699.756004461028
699.74519934358
699.734155318289
699.722874641023
699.711359664622
699.699612793077
699.687636475331
699.675433196794
699.663005468982
699.650355827792
699.637486823319
699.62440100743
699.611100931619
699.597589145657
699.583868181248
699.56994054668
699.555808721773
699.541475152938
699.526942248427
699.512212377273
699.497287868434
699.482171021403
699.466864113294
699.451369440523
699.435689296102
699.419825982041
699.403781762813
699.387558852128
699.371159383305
699.354585402152
699.337838862526
699.320921618314
699.303835420857
699.286581914458
699.269162629584
699.251578975534
699.233832304644
699.215923903799
699.197854922394
699.179626370095
699.161239114593
699.142693876283
699.123991223143
699.105131561734
699.086115172138
699.066942216521
699.047612685176
699.028126421349
699.008483161589
698.988682508491
698.968723918357
698.948606629764
698.928329758934
698.907892193638
698.887292575719
698.866529303177
698.845600506306
698.824504093083
698.803237720578
698.781798740576
698.76018418411
698.738390778176
698.7164149157
698.694252634195
698.671899723953
698.649351580984
698.626603177272
698.60364904942
698.580483272447
698.557099444789
698.533490653256
698.509649463558
698.485567902439
698.461237413517
698.43664881315
698.41179235352
698.386657609595
698.361233453682
698.335508050091
698.309468770861
698.283102214141
698.256394123365
698.229329320673
698.201891668015
698.174064006887
698.145828134351
698.117164752234
698.08805337261
698.058472329446
698.028398737721
697.997808351584
697.966675467364
697.934972839827
697.902671671165
697.869741470564
697.836150053651
697.801863382296
697.766845379855
697.731057801817
697.694460165349
697.657009536379
697.618660384394
697.579364417511
697.539070415118
697.497724019383
697.455267497888
697.411639531807
697.366775105841
697.320605130289
697.273056067379
697.224049638973
697.173502521033
697.121325847503
697.067424729008
697.011697753222
696.954036421975
696.894324580313
696.832437798497
696.768242455858
696.701594829151
696.632339984372
696.560310570825
696.485325687021
696.40718923742
696.325688113371
696.240590353334
696.151642557508
696.058567186032
695.961059380109
695.858783207366
695.751367110614
695.638398380587
695.519416884865
695.393907099705
695.261288032996
695.120901442117
694.971996151485
694.8137055939
694.645016590718
694.464736043066
694.271454137471
694.063477234776
693.838757019542
693.59479811473
693.328578278545
693.036522151338
692.714391929836
692.357229315943
691.959313122184
691.514222660184
691.014894649672
690.453634192351
689.82239519567
689.112896229125
688.316972179266
687.426871141683
686.435545793184
685.336917610524
684.126114792017
682.799623977014
681.35505940722
679.791408261758
678.108718779832
676.307551998202
674.389264982053
672.355895533138
670.209396432231
667.951633319577
665.584103805589
663.108297972309
660.5256608975
657.837506717891
655.045092405978
652.149631705003
649.152332661238
646.054488589035
642.857579748804
639.562976175059
636.171956012922
632.685698289156
629.105313460278
625.431830640622
621.666232248061
617.809435807123
613.862393149735
609.826161580987
605.70174944318
601.490100987008
597.192124292997
592.808673068347
588.340575662879
583.788614081687
579.153554425926
574.436123723018
569.637041537091
564.756996756104
559.796681802667
554.756840467872
549.638265435932
544.441712456231
539.167926033374
533.817616531644
528.391487259931
522.890209396613
517.3144543053
511.664871674441
505.942116344052
500.146817877595
494.279612760202
488.341112689408
482.331939083225
476.252690074422
470.103976990884
463.88639145568
457.600550563198
451.247108719234
444.826743957491
438.340088254981
431.78779609342
425.170475080555
418.488758345067
411.743230907571
404.934506499471
398.063148887159
391.12975406846
384.134865450051
377.079062703565
369.962869554954
362.786850471758
355.551510334827
348.257399424438
340.905004994981
333.494864053396
326.027447467571
318.5032801151
310.922817171289
303.286572598615
295.594998984474
287.848632965947
280.047947223856
272.19352638543
264.285844960732
256.325479279644
248.31288643059
240.248632384643
232.133156820461
223.967016106469
215.750632872569
207.484554720039
199.169187834111
190.805071880292
182.392597288418
173.932296585496
165.424544924663
156.869868536385
148.268627685809
139.621343165842
130.928360639652
122.190196149319
113.407180870636
104.579826676052
95.7084503478899
86.7935601263102
77.835458713563
68.8346514599619
59.7914273461415
50.7062894673843
41.579513669453
32.4116018298007
23.2028171904954
13.9536616354566
4.6643864333309
)
;

boundaryField
{
    electrode
    {
        type            calculated;
        value           uniform 699.99999999995;
    }
    ground
    {
        type            calculated;
        value           uniform 0;
    }
    otherfaces
    {
        type            empty;
    }
}


// ************************************************************************* //
