/*--------------------------------*- C++ -*----------------------------------*\
| =========                 |                                                 |
| \\      /  F ield         | foam-extend: Open Source CFD                    |
|  \\    /   O peration     | Version:     4.0                                |
|   \\  /    A nd           | Web:         http://www.foam-extend.org         |
|    \\/     M anipulation  |                                                 |
\*---------------------------------------------------------------------------*/
FoamFile
{
    version     2.0;
    format      ascii;
    class       volScalarField;
    location    "1.7e-06";
    object      Sy_electron;
}
// * * * * * * * * * * * * * * * * * * * * * * * * * * * * * * * * * * * * * //

dimensions      [1 -3 -1 0 0 0 0];

internalField   nonuniform List<scalar> 
300
(
3.37599827627691e-15
3.37947344991399e-15
3.38306384376595e-15
3.3854593450947e-15
3.38695836339066e-15
3.38765570014668e-15
3.38763156886718e-15
3.38694367073352e-15
3.38563928172313e-15
3.3837590619036e-15
3.38133239686729e-15
3.37838569694337e-15
3.37494173160367e-15
3.37102068979262e-15
3.36664072948721e-15
3.36181840674091e-15
3.35656350308787e-15
3.35089275910668e-15
3.34482249192088e-15
3.33836564230487e-15
3.33153467733517e-15
3.32434157844239e-15
3.31679792500994e-15
3.30891491772848e-15
3.30067441714888e-15
3.29211004440739e-15
3.28322982017403e-15
3.27403873661904e-15
3.26456274400978e-15
3.25481201213643e-15
3.24476311016909e-15
3.23443799603056e-15
3.22387057479557e-15
3.21307177124654e-15
3.20205198295643e-15
3.19082107938174e-15
3.17938063835845e-15
3.16774354587134e-15
3.15592359783411e-15
3.14392825915141e-15
3.13176491554406e-15
3.11944405207706e-15
3.10697363649788e-15
3.09436126885827e-15
3.08161417590739e-15
3.06873914003912e-15
3.05573886145335e-15
3.0426169477002e-15
3.02936098054019e-15
3.01596974221455e-15
3.00242261564621e-15
2.98874258293893e-15
2.9749215116767e-15
2.96099111368786e-15
2.94696631967259e-15
2.93287606216155e-15
2.91872671744932e-15
2.90452399376229e-15
2.89027297673086e-15
2.87597505984234e-15
2.86163821493508e-15
2.84726663816231e-15
2.83285538641591e-15
2.81837508257864e-15
2.80383325458574e-15
2.78927331217067e-15
2.77469917116774e-15
2.76011435477086e-15
2.7455219342657e-15
2.73092458517046e-15
2.7163213563656e-15
2.70170098449388e-15
2.687061489126e-15
2.67241557171338e-15
2.65774168297051e-15
2.64304218461444e-15
2.62832792873298e-15
2.61359272503296e-15
2.59886927702524e-15
2.58410887836288e-15
2.56936744930373e-15
2.55464850731781e-15
2.53994734290887e-15
2.52526779964795e-15
2.51058670597569e-15
2.49591661739089e-15
2.48127610586139e-15
2.46666577138327e-15
2.45206715915635e-15
2.43749258934256e-15
2.42293299573593e-15
2.40831906064077e-15
2.39373663054197e-15
2.37918811259198e-15
2.3646735556846e-15
2.35019299775942e-15
2.33574609515153e-15
2.32133220039866e-15
2.30693481941336e-15
2.29255399446358e-15
2.27819920123174e-15
2.26387241536548e-15
2.24952633272377e-15
2.23520476912786e-15
2.22089404824683e-15
2.2065805149229e-15
2.19228648984009e-15
2.17798324850328e-15
2.16368626679251e-15
2.14940352305739e-15
2.13513229808074e-15
2.12086932407366e-15
2.10660352205833e-15
2.09233187106542e-15
2.07805138825423e-15
2.06373721592996e-15
2.04936303247465e-15
2.03496450604927e-15
2.02054309658487e-15
2.00608780715185e-15
1.99156221898111e-15
1.97698520160971e-15
1.96231716544429e-15
1.94757344361794e-15
1.93277048535502e-15
1.91790591375378e-15
1.90294207869974e-15
1.88790373919473e-15
1.87277701133286e-15
1.85756013238978e-15
1.84223314329085e-15
1.82679213441825e-15
1.81123180055295e-15
1.79551916422998e-15
1.77960818249227e-15
1.76352602160867e-15
1.74727991765671e-15
1.73083956987435e-15
1.71418329126455e-15
1.69732575937205e-15
1.68024940086741e-15
1.6629363379027e-15
1.64534967876634e-15
1.62745356019005e-15
1.60922233865155e-15
1.59068618987199e-15
1.57183207647727e-15
1.55264578524193e-15
1.53309656628006e-15
1.5131325710635e-15
1.49277724176201e-15
1.47200957449996e-15
1.4507653488862e-15
1.4290544111463e-15
1.40686709497757e-15
1.38415856441591e-15
1.36089368951642e-15
1.33708784462038e-15
1.31273609488804e-15
1.28780628150991e-15
1.26227912934272e-15
1.23616001113577e-15
1.20943087337936e-15
1.18213046667799e-15
1.15427135876697e-15
1.12582697207275e-15
1.09685752173473e-15
1.06746032069309e-15
1.03771476283208e-15
1.00767026979182e-15
9.77382888308902e-16
9.46901028730226e-16
9.16320243368848e-16
8.8575168032976e-16
8.5531460484554e-16
8.25125132613825e-16
7.95260094804745e-16
7.65894237144764e-16
7.37369231374641e-16
7.0997608944165e-16
6.8416052310346e-16
6.60559159816124e-16
6.40080235238489e-16
6.24452657093846e-16
6.17524574645354e-16
6.31042061684458e-16
6.74611971920859e-16
8.50063254167448e-16
1.86041965750868e-15
7.76497283170147e-15
6.28632112364378e-14
7.41265578508762e-13
5.78859081834088e-11
7.6044886971524e-10
3.00111962973166e-09
5.01539093959844e-09
5.56151349742841e-09
4.89627846544179e-09
3.95357267915181e-09
3.18840497299724e-09
2.64093234501282e-09
2.29396822402811e-09
2.07494442257326e-09
1.94243661026982e-09
1.86748367449848e-09
1.82823244364474e-09
1.80580828122984e-09
1.79917087973251e-09
1.80173456429874e-09
1.80894458794479e-09
1.81445449757071e-09
1.81818029502729e-09
1.82054046106453e-09
1.82065882078787e-09
1.81799402713837e-09
1.81224123422228e-09
1.80326722516588e-09
1.79106374285434e-09
1.77571378014515e-09
1.7573637008711e-09
1.7362091672359e-09
1.7124341141013e-09
1.68623747246883e-09
1.6573168909788e-09
1.62578741727782e-09
1.59273142388429e-09
1.55842306512265e-09
1.52312451463073e-09
1.48708202183732e-09
1.45052412077889e-09
1.41366061242925e-09
1.37668216243023e-09
1.33976038292906e-09
1.30304823442707e-09
1.26668068781635e-09
1.2307754737017e-09
1.19543391894013e-09
1.16074184476882e-09
1.12677057269229e-09
1.09357807652295e-09
1.0612101649632e-09
1.02970170050706e-09
9.99078326684516e-10
9.69358099280218e-10
9.40551399204958e-10
9.12661147751647e-10
8.8567944315971e-10
8.59586201675744e-10
8.34364216171475e-10
8.10001324965955e-10
7.86482073500576e-10
7.63788685538357e-10
7.4190110744483e-10
7.20797543555223e-10
7.00454978431685e-10
6.80849433004625e-10
6.61958663876865e-10
6.43755512726133e-10
6.26210096983752e-10
6.09297330946529e-10
5.92995019165024e-10
5.77278289546016e-10
5.62122906818262e-10
5.47505094710782e-10
5.33401852142571e-10
5.19791043549063e-10
5.06651416128442e-10
4.93962573969698e-10
4.81702504902047e-10
4.69841928542762e-10
4.58355981261341e-10
4.47229472527075e-10
4.36448423306122e-10
4.26000224765927e-10
4.15873117805815e-10
4.06056199688949e-10
3.96539405779115e-10
3.87313532925571e-10
3.78370277442726e-10
3.69702243100947e-10
3.61303019054984e-10
3.53166355159467e-10
3.44863574182924e-10
3.36603629830043e-10
3.28532330322797e-10
3.20641399417381e-10
3.1294285004037e-10
3.0545079794982e-10
2.9818000454765e-10
2.90311464474405e-10
2.82203061391934e-10
2.74273160374716e-10
2.66575652962779e-10
2.57566077627727e-10
2.48249248111817e-10
2.38470752789615e-10
2.26651852561802e-10
2.12894428676549e-10
1.95611837385422e-10
1.71231449898396e-10
)
;

boundaryField
{
    electrode
    {
        type            zeroGradient;
    }
    ground
    {
        type            zeroGradient;
    }
    otherfaces
    {
        type            empty;
    }
}


// ************************************************************************* //
