/*--------------------------------*- C++ -*----------------------------------*\
| =========                 |                                                 |
| \\      /  F ield         | foam-extend: Open Source CFD                    |
|  \\    /   O peration     | Version:     4.0                                |
|   \\  /    A nd           | Web:         http://www.foam-extend.org         |
|    \\/     M anipulation  |                                                 |
\*---------------------------------------------------------------------------*/
FoamFile
{
    version     2.0;
    format      ascii;
    class       volScalarField;
    location    "1.7e-06";
    object      TeMean;
}
// * * * * * * * * * * * * * * * * * * * * * * * * * * * * * * * * * * * * * //

dimensions      [0 0 0 1 0 0 0];

internalField   nonuniform List<scalar> 
300
(
30123.984620236
30124.3499209491
30124.3508106134
30124.024863062
30123.607719308
30123.0744834309
30122.4317280256
30121.6855933852
30120.837676092
30119.8902377609
30118.8453702419
30117.7051017394
30116.4713820568
30115.146034123
30113.7308109671
30112.2273891894
30110.6373647569
30108.9622706439
30107.2035750352
30105.3626805774
30103.4409347428
30101.4396218173
30099.3599718247
30097.2031576652
30094.970293497
30092.662476001
30090.2807567834
30087.8261322776
30085.2995759594
30082.7019944456
30080.0342224738
30077.2971150054
30074.4915378241
30071.6182935641
30068.6781425674
30065.6717875601
30062.5999036192
30059.4631712684
30056.2622434978
30052.997728658
30049.6701979683
30046.2802281082
30042.8283701053
30039.3151383187
30035.741023296
30032.1064904506
30028.4119779673
30024.6578928868
30020.8445985511
30016.972414061
30013.0416149907
30009.0524884351
30005.0053638757
30000.9005436542
29996.7383206172
29992.5190001831
29988.2428404516
29983.9100592
29979.5208819698
29975.0755176213
29970.5741519178
29966.0169811998
29961.4041207577
29956.7356429681
29952.0117097497
29947.2325160396
29942.3982190765
29937.5089453154
29932.5648039061
29927.5659042033
29922.5123243329
29917.404077378
29912.2412083447
29907.0237792967
29901.7517879132
29896.425175922
29891.0439330261
29885.6081242462
29880.1177444356
29874.5727399103
29868.9731364734
29863.3189616315
29857.6101610236
29851.8466253599
29846.0282256484
29840.154897134
29834.2266211355
29828.2433192273
29822.204859935
29816.1111304497
29809.9619519636
29803.7571211705
29797.4965899396
29791.1802331484
29784.8078617623
29778.3793497322
29771.8945223301
29765.3531934129
29758.7551425317
29752.1001450476
29745.3880258134
29738.6184857223
29731.7911966445
29724.90594173
29717.9624657541
29710.960467407
29703.8996070437
29696.779532267
29689.5999180194
29682.3604078094
29675.0606235738
29667.7001544977
29660.2785317967
29652.7953375579
29645.2500854326
29637.6422051424
29629.9710756772
29622.2361218703
29614.4368126031
29606.5724260623
29598.6421708142
29590.6452552529
29582.580814376
29574.4479929957
29566.2459657053
29557.97377777
29549.6303099843
29541.2144396798
29532.7250200747
29524.1607260523
29515.5201173882
29506.8017187713
29498.0039862925
29489.1250893069
29480.1630104336
29471.1158414731
29461.9815413667
29452.7577612687
29443.4420290863
29434.0317936229
29424.5243001867
29414.9165126107
29405.2051046122
29395.3864445896
29385.456709197
29375.4119440294
29365.2479486534
29354.9602656177
29344.5438789352
29333.9933368859
29323.3031023189
29312.4671392275
29301.4789486179
29290.3318455311
29279.0185453428
29267.5312402551
29255.861803017
29244.001863934
29231.9428156457
29219.6757198475
29207.1920963706
29194.4842724329
29181.5457137888
29168.3740977162
29154.9754441686
29141.3622501771
29127.5448512883
29113.5401809122
29099.3826321173
29085.1082259138
29070.7300541502
29056.1746057418
29041.2783504834
29025.8382217172
29009.5507832635
28991.9345980221
28972.3426596878
28950.1291494341
28924.7207742083
28895.7163912876
28863.3085404671
28828.7343475837
28795.0237820519
28768.1346997132
28758.3762896963
28782.5056885045
28867.2057258265
29054.2333915891
29408.0237172619
30030.8714041804
31089.5375476918
32858.9558538173
35801.2703689448
40840.2194977013
49248.8800662844
62171.9564198398
81792.2279053306
109469.880860021
147426.925503337
195706.970179364
253300.271340662
317082.963401301
383212.950115979
447282.530960034
505934.545799835
557496.328453983
601807.692948768
639536.603259522
671697.926158682
699310.519597448
723202.796733766
744041.77015458
762384.5288608
778685.853820591
793311.432629744
806555.250067469
818654.315024602
829800.969575735
840151.221095432
849827.903567627
858930.734879292
867543.837635157
875738.185659871
883572.90390664
891094.824979477
898341.967725843
905344.875125173
912127.76854786
918709.481485744
925104.194934556
931322.083861584
937369.863882215
943251.24092389
948967.005991196
954515.514639734
959893.191840585
965094.544931031
970112.426935296
974938.207068577
979561.964643909
983972.610067014
988158.014208166
992105.242759278
995800.678947081
999230.095055178
1002379.014916
1005231.45148227
1007771.18189351
1009983.12560262
1011851.58929088
1013360.55279669
1014493.86659067
1015235.28013384
1015568.48834348
1015477.15112202
1014944.6986321
1013955.02808601
1012487.42775589
1010535.5626965
1008078.26992744
1005099.19653398
1001581.71771127
997509.456199735
992865.882929566
987634.36945291
981798.067071539
975339.906091014
968242.565192127
960489.103241887
952061.684378272
942940.701392911
933106.890549872
922541.046260011
911222.409181037
899128.811585244
886236.791213328
872521.538038126
857956.687801519
842514.259017602
826164.331298398
808874.797672708
790611.142734739
771337.76724235
751016.126475453
729598.445035292
707034.536101655
683269.827850824
658237.831343132
631868.35384292
604081.732517462
574780.503385033
543851.648779272
511167.091370427
476559.72434636
439824.416620422
400701.149594836
358820.043189935
313683.188372564
264569.529705529
210504.164702696
)
;

boundaryField
{
    electrode
    {
        type            calculated;
        value           uniform 30123.9846202432;
    }
    ground
    {
        type            calculated;
        value           uniform 179918.640870477;
    }
    otherfaces
    {
        type            empty;
    }
}


// ************************************************************************* //
