/*--------------------------------*- C++ -*----------------------------------*\
| =========                 |                                                 |
| \\      /  F ield         | foam-extend: Open Source CFD                    |
|  \\    /   O peration     | Version:     4.0                                |
|   \\  /    A nd           | Web:         http://www.foam-extend.org         |
|    \\/     M anipulation  |                                                 |
\*---------------------------------------------------------------------------*/
FoamFile
{
    version     2.0;
    format      ascii;
    class       volScalarField;
    location    "4.4e-06";
    object      Ar;
}
// * * * * * * * * * * * * * * * * * * * * * * * * * * * * * * * * * * * * * //

dimensions      [0 0 0 1 0 0 0];

internalField   nonuniform List<scalar> 
300
(
3.2188033419023e+22
3.21880333772272e+22
3.21880334043423e+22
3.21880334148114e+22
3.21880334327925e+22
3.21880334579059e+22
3.21880334885292e+22
3.21880335252786e+22
3.21880335680347e+22
3.21880336167582e+22
3.21880336714475e+22
3.21880337320842e+22
3.21880337986555e+22
3.21880338711499e+22
3.21880339495567e+22
3.21880340338657e+22
3.21880341240712e+22
3.21880342201651e+22
3.21880343221384e+22
3.21880344299835e+22
3.21880345436934e+22
3.21880346632613e+22
3.21880347886807e+22
3.21880349199454e+22
3.21880350570655e+22
3.21880352000228e+22
3.21880353488133e+22
3.21880355034351e+22
3.21880356638747e+22
3.21880358301279e+22
3.21880360022094e+22
3.2188036180109e+22
3.21880363638105e+22
3.21880365533107e+22
3.21880367486071e+22
3.21880369496984e+22
3.21880371565882e+22
3.21880373692746e+22
3.21880375877556e+22
3.21880378120337e+22
3.21880380421121e+22
3.2188038277993e+22
3.21880385196808e+22
3.21880387671811e+22
3.21880390205006e+22
3.21880392796472e+22
3.21880395446321e+22
3.21880398154669e+22
3.21880400921739e+22
3.21880403747699e+22
3.2188040663284e+22
3.21880409577215e+22
3.21880412581069e+22
3.21880415644427e+22
3.21880418767425e+22
3.21880421950128e+22
3.21880425192746e+22
3.21880428495507e+22
3.21880431858656e+22
3.21880435282476e+22
3.21880438767222e+22
3.21880442313189e+22
3.2188044592074e+22
3.21880449590401e+22
3.21880453322491e+22
3.21880457117131e+22
3.2188046097469e+22
3.21880464895558e+22
3.21880468880141e+22
3.21880472928861e+22
3.21880477042183e+22
3.21880481220644e+22
3.21880485464744e+22
3.21880489774908e+22
3.21880494151784e+22
3.2188049859589e+22
3.21880503107706e+22
3.2188050768783e+22
3.21880512336631e+22
3.21880517055001e+22
3.2188052184319e+22
3.21880526701787e+22
3.21880531631443e+22
3.2188053663277e+22
3.21880541706559e+22
3.21880546853388e+22
3.21880552073803e+22
3.21880557368473e+22
3.218805627382e+22
3.21880568183594e+22
3.21880573705409e+22
3.21880579304797e+22
3.21880584981911e+22
3.21880590737442e+22
3.21880596572104e+22
3.21880602486607e+22
3.2188060848167e+22
3.21880614558011e+22
3.21880620716449e+22
3.21880626957696e+22
3.21880633282393e+22
3.21880639691229e+22
3.21880646185212e+22
3.21880652764737e+22
3.21880659430571e+22
3.21880666183473e+22
3.21880673023946e+22
3.21880679952827e+22
3.21880686970634e+22
3.21880694077923e+22
3.21880701275304e+22
3.21880708563369e+22
3.21880715942749e+22
3.21880723413994e+22
3.2188073097763e+22
3.21880738634316e+22
3.21880746384694e+22
3.21880754228942e+22
3.21880762167449e+22
3.21880770200661e+22
3.21880778329178e+22
3.21880786553172e+22
3.218807948732e+22
3.2188080328939e+22
3.21880811801825e+22
3.21880820410684e+22
3.21880829116368e+22
3.21880837918784e+22
3.21880846818079e+22
3.21880855814274e+22
3.21880864907481e+22
3.21880874097657e+22
3.21880883384721e+22
3.21880892768759e+22
3.21880902249971e+22
3.21880911827737e+22
3.21880921501996e+22
3.21880931272663e+22
3.21880941139012e+22
3.21880951100517e+22
3.21880961157367e+22
3.21880971309217e+22
3.21880981555875e+22
3.21880991897118e+22
3.21881002332599e+22
3.21881012861475e+22
3.21881023483198e+22
3.21881034197176e+22
3.21881045002888e+22
3.21881055899981e+22
3.21881066887243e+22
3.21881077964181e+22
3.2188108912972e+22
3.21881100383344e+22
3.21881111723537e+22
3.21881123147621e+22
3.21881134660486e+22
3.21881146246811e+22
3.21881157924616e+22
3.21881169673428e+22
3.21881181490731e+22
3.21881193424319e+22
3.21881205315596e+22
3.21881217200888e+22
3.218812292403e+22
3.21881241351558e+22
3.21881253536577e+22
3.21881265745028e+22
3.21881277918668e+22
3.21881290151334e+22
3.21881302257128e+22
3.21881314429165e+22
3.21881326894074e+22
3.21881339090508e+22
3.21881350983045e+22
3.21881363056028e+22
3.21881375065307e+22
3.21881386473163e+22
3.21881397893956e+22
3.21881409164831e+22
3.21881419541126e+22
3.21881429788097e+22
3.21881439606677e+22
3.21881448512106e+22
3.21881456789589e+22
3.21881464818341e+22
3.21881471581395e+22
3.21881477731228e+22
3.21881483440397e+22
3.21881488445982e+22
3.21881492399606e+22
3.21881495876715e+22
3.21881499064594e+22
3.21881501665372e+22
3.21881503331563e+22
3.21881504188791e+22
3.21881504458495e+22
3.21881504936432e+22
3.21881505215754e+22
3.2188150530495e+22
3.21881505429358e+22
3.21881505420712e+22
3.21881505723045e+22
3.21881506178626e+22
3.21881506762523e+22
3.21881507424571e+22
3.21881508046577e+22
3.21881508631306e+22
3.21881509148991e+22
3.21881509622727e+22
3.2188151003783e+22
3.21881510418477e+22
3.21881510923036e+22
3.21881511443067e+22
3.21881511910761e+22
3.21881512353195e+22
3.21881512749337e+22
3.21881513126978e+22
3.21881513464345e+22
3.21881513790313e+22
3.21881514080776e+22
3.21881514364238e+22
3.21881514615978e+22
3.21881514864924e+22
3.21881515143559e+22
3.21881515506642e+22
3.21881515836081e+22
3.21881516168045e+22
3.21881516468025e+22
3.21881516772803e+22
3.21881517046207e+22
3.21881517326129e+22
3.21881517574616e+22
3.21881517830881e+22
3.21881518056061e+22
3.21881518290654e+22
3.21881518494611e+22
3.21881518709999e+22
3.21881518895175e+22
3.21881519093609e+22
3.21881519261726e+22
3.21881519444629e+22
3.21881519682603e+22
3.21881519944174e+22
3.21881520177149e+22
3.21881520423971e+22
3.21881520642063e+22
3.21881520874963e+22
3.21881521078993e+22
3.21881521298545e+22
3.21881521489507e+22
3.21881521696236e+22
3.21881521875061e+22
3.21881522070019e+22
3.21881522237687e+22
3.21881522421979e+22
3.21881522579459e+22
3.21881522753872e+22
3.21881522902028e+22
3.21881523066784e+22
3.2188152320556e+22
3.21881523361019e+22
3.21881523490121e+22
3.21881523637011e+22
3.21881523755493e+22
3.21881523895107e+22
3.21881524006383e+22
3.21881524199752e+22
3.21881524355721e+22
3.21881524542058e+22
3.21881524689092e+22
3.21881524867441e+22
3.21881525005613e+22
3.21881525176513e+22
3.21881525306503e+22
3.21881525470686e+22
3.21881525593095e+22
3.21881525750855e+22
3.21881525865964e+22
3.21881526017495e+22
3.21881526125609e+22
3.21881526271485e+22
3.21881526374594e+22
3.21881526516462e+22
3.21881526613586e+22
3.21881526750328e+22
3.21881526841582e+22
3.21881526973508e+22
3.21881527059096e+22
3.21881527189432e+22
3.21881527273022e+22
3.21881527399864e+22
3.21881527478162e+22
3.21881527604914e+22
3.21881527682639e+22
3.21881527807963e+22
3.21881527886364e+22
3.21881528015715e+22
3.21881528098683e+22
3.21881528262587e+22
)
;

boundaryField
{
    electrode
    {
        type            zeroGradient;
    }
    ground
    {
        type            zeroGradient;
    }
    otherfaces
    {
        type            empty;
    }
}


// ************************************************************************* //
