/*--------------------------------*- C++ -*----------------------------------*\
| =========                 |                                                 |
| \\      /  F ield         | foam-extend: Open Source CFD                    |
|  \\    /   O peration     | Version:     4.0                                |
|   \\  /    A nd           | Web:         http://www.foam-extend.org         |
|    \\/     M anipulation  |                                                 |
\*---------------------------------------------------------------------------*/
FoamFile
{
    version     2.0;
    format      ascii;
    class       volScalarField;
    location    "4.4e-06";
    object      Arm;
}
// * * * * * * * * * * * * * * * * * * * * * * * * * * * * * * * * * * * * * //

dimensions      [0 0 0 1 0 0 0];

internalField   nonuniform List<scalar> 
300
(
3.57413975671081e+15
3.57601704599163e+15
3.57796585304357e+15
3.57927182315651e+15
3.58008804185451e+15
3.58046656269301e+15
3.58045159328425e+15
3.58007457082462e+15
3.57936115337858e+15
3.5783333255828e+15
3.57700686054912e+15
3.57539584447432e+15
3.57351233047382e+15
3.57136692110851e+15
3.56896907336975e+15
3.56632733287885e+15
3.56344652078033e+15
3.56033522494372e+15
3.55700178733314e+15
3.55345268698675e+15
3.54969412536469e+15
3.54573202415656e+15
3.54157207338801e+15
3.53721972493812e+15
3.53266429063967e+15
3.52792352021961e+15
3.5230011135056e+15
3.51789908205174e+15
3.51263102435247e+15
3.50720182447036e+15
3.50159771083123e+15
3.49583006318001e+15
3.48991699387056e+15
3.48386388242795e+15
3.47767581510976e+15
3.47135759473114e+15
3.46490939197751e+15
3.45833772476763e+15
3.45164966332162e+15
3.44484874204064e+15
3.43793846406704e+15
3.43092410655889e+15
3.42380955007163e+15
3.4165984861976e+15
3.4092944151449e+15
3.40190060123816e+15
3.39441798829128e+15
3.38684802742862e+15
3.3791829506213e+15
3.3714213530111e+15
3.36355062047543e+15
3.35558327110528e+15
3.3475138992295e+15
3.33936023380477e+15
3.33113040285147e+15
3.3228407837709e+15
3.31449467367096e+15
3.30609498870224e+15
3.29764430146825e+15
3.28914302809808e+15
3.28059548589562e+15
3.27200378698955e+15
3.26336458921684e+15
3.25465991811522e+15
3.2458937520719e+15
3.23709169121719e+15
3.22825582161368e+15
3.21938798300265e+15
3.21048976121207e+15
3.20156251642114e+15
3.19260540440766e+15
3.18361127006415e+15
3.17457857540242e+15
3.16551477622388e+15
3.15640631812632e+15
3.14725426296719e+15
3.1380649595668e+15
3.12883426613838e+15
3.11958218785417e+15
3.11027812481037e+15
3.10095669732159e+15
3.09162002231075e+15
3.08226501203437e+15
3.07289393475685e+15
3.06349195721257e+15
3.05406682770953e+15
3.04463025718145e+15
3.03518256624372e+15
3.02571183323626e+15
3.0162258241195e+15
3.0067185328726e+15
2.99714485574402e+15
2.9875601196255e+15
2.97796594467741e+15
2.96836235928767e+15
2.95874938966811e+15
2.94912681750907e+15
2.93949421382274e+15
2.92984063491029e+15
2.92016602131089e+15
2.91047664021115e+15
2.90077378139584e+15
2.89102564604978e+15
2.88126149685299e+15
2.87147210071449e+15
2.86164810370639e+15
2.85180455030062e+15
2.84192180396338e+15
2.83201030170325e+15
2.8220754960618e+15
2.81211551444821e+15
2.80212807217675e+15
2.7921054247297e+15
2.78204536186292e+15
2.77194566852114e+15
2.76178868735204e+15
2.75155551545109e+15
2.74127097722115e+15
2.73093594058996e+15
2.72054232920616e+15
2.71006373360523e+15
2.69951314561332e+15
2.68886154712053e+15
2.6781193463001e+15
2.66729797947525e+15
2.65639525032334e+15
2.64538302146016e+15
2.63427875472024e+15
2.62307160896382e+15
2.6117595512282e+15
2.6003269290598e+15
2.58876987714803e+15
2.57708340479609e+15
2.56524142109275e+15
2.55320743832561e+15
2.54100033704357e+15
2.52862404564441e+15
2.5160535082744e+15
2.50326985875626e+15
2.490282237322e+15
2.47707464825727e+15
2.46363044174159e+15
2.44991746703122e+15
2.43590362273599e+15
2.42156428274134e+15
2.40691927556633e+15
2.39195372197543e+15
2.37665126260345e+15
2.36098136160917e+15
2.34489510031476e+15
2.32840494365424e+15
2.31148614352016e+15
2.29407639674126e+15
2.27617454352622e+15
2.25776233259963e+15
2.23879002105569e+15
2.219214345362e+15
2.19903477585692e+15
2.17823216953892e+15
2.15676155358156e+15
2.13458731764392e+15
2.11169438614726e+15
2.08804448002098e+15
2.06365017008502e+15
2.03849846732388e+15
2.01253476046959e+15
1.98577988928062e+15
1.95827843680122e+15
1.93005936058352e+15
1.90116462498424e+15
1.87166285412755e+15
1.84158734105024e+15
1.8110304615178e+15
1.78016374729308e+15
1.74918116276824e+15
1.71825254384286e+15
1.68755707212432e+15
1.65729374006668e+15
1.62770139427366e+15
1.59893557462806e+15
1.57115055798291e+15
1.54449340474832e+15
1.5190454269974e+15
1.49492145972899e+15
1.4721213442563e+15
1.45055470977891e+15
1.4302613158393e+15
1.41119033515535e+15
1.3932550200268e+15
1.37637271814573e+15
1.36044369556652e+15
1.3455027666455e+15
1.33198928936381e+15
1.32482279258539e+15
1.34988310816001e+15
1.41334447308783e+15
1.48620308563998e+15
1.53441209382107e+15
1.55830101535519e+15
1.56211475668525e+15
1.54672895000632e+15
1.51968464652672e+15
1.4889633551488e+15
1.46046383817367e+15
1.43711449748213e+15
1.41941042400527e+15
1.40603357840512e+15
1.39633356918685e+15
1.38930184961789e+15
1.38419637206941e+15
1.37972196387794e+15
1.3758062746465e+15
1.37216886265962e+15
1.36841326632049e+15
1.36469741428493e+15
1.36091329060334e+15
1.35694307755097e+15
1.35275789664819e+15
1.34830553804986e+15
1.34356563786742e+15
1.3385426408855e+15
1.33320863906558e+15
1.32748080041253e+15
1.32132350914979e+15
1.31482852351952e+15
1.30815626915278e+15
1.30134628780834e+15
1.29441595790142e+15
1.28739709035006e+15
1.28032632594624e+15
1.27321661804946e+15
1.26609568406777e+15
1.2589949627555e+15
1.25192793539229e+15
1.2449103512657e+15
1.2379733882646e+15
1.23111397077175e+15
1.22436231938919e+15
1.21771675896979e+15
1.21119588224296e+15
1.20480678619527e+15
1.19854707034198e+15
1.19243576821476e+15
1.18646198320523e+15
1.18063402403012e+15
1.17496844065438e+15
1.16945163648694e+15
1.16409086035522e+15
1.15888763132499e+15
1.15383258902502e+15
1.14893124628518e+15
1.14417791692947e+15
1.13956809273043e+15
1.13510525061014e+15
1.13078105782879e+15
1.12659317110355e+15
1.12254002276091e+15
1.11860604526716e+15
1.11479990105743e+15
1.11111374873263e+15
1.1075533048573e+15
1.10410592025267e+15
1.10077443036782e+15
1.09755060758671e+15
1.09443225370491e+15
1.09141570283472e+15
1.08849341588364e+15
1.08566235939556e+15
1.08291204263057e+15
1.08024872716774e+15
1.07766522160883e+15
1.07516737638781e+15
1.07274250695944e+15
1.07039671936098e+15
1.06811822132078e+15
1.06590582870966e+15
1.06375803541944e+15
1.06167502800495e+15
1.05965892874836e+15
1.05770346151919e+15
1.05580754087386e+15
1.0539309203035e+15
1.0519696692761e+15
1.05003249438423e+15
1.04814566389825e+15
1.04629993852744e+15
1.04450297648784e+15
1.04275592721043e+15
1.04104808282197e+15
1.03910857289865e+15
1.03716011212286e+15
1.03526171775593e+15
1.03341522953551e+15
1.03122880677017e+15
1.02905097404512e+15
1.02675241982571e+15
1.0241577675659e+15
1.02125539958926e+15
1.01792916730932e+15
1.01390234738329e+15
)
;

boundaryField
{
    electrode
    {
        type            zeroGradient;
    }
    ground
    {
        type            zeroGradient;
    }
    otherfaces
    {
        type            empty;
    }
}


// ************************************************************************* //
