/*--------------------------------*- C++ -*----------------------------------*\
| =========                 |                                                 |
| \\      /  F ield         | foam-extend: Open Source CFD                    |
|  \\    /   O peration     | Version:     4.0                                |
|   \\  /    A nd           | Web:         http://www.foam-extend.org         |
|    \\/     M anipulation  |                                                 |
\*---------------------------------------------------------------------------*/
FoamFile
{
    version     2.0;
    format      ascii;
    class       volVectorField;
    location    "4.4e-06";
    object      E;
}
// * * * * * * * * * * * * * * * * * * * * * * * * * * * * * * * * * * * * * //

dimensions      [0 0 0 1 0 0 0];

internalField   nonuniform List<vector> 
300
(
(5.5281620447989 -0 -0)
(10.9699014913533 -0 -0)
(19.3660504674287 -0 -0)
(27.120996352881 -0 -0)
(34.8247464782007 -0 -0)
(42.5942333570633 -0 -0)
(50.3514895236484 -0 -0)
(58.1178194070097 -0 -0)
(65.893219967917 -0 -0)
(73.6771243556318 -0 -0)
(81.4709301230605 -0 -0)
(89.2754061260223 -0 -0)
(97.0914516493236 -0 -0)
(104.920084799396 -0 -0)
(112.762448657712 -0 -0)
(120.619859304839 -0 -0)
(128.493704351637 -0 -0)
(136.38524535148 -0 -0)
(144.295615173153 -0 -0)
(152.225952322612 -0 -0)
(160.177447947053 -0 -0)
(168.151356309822 -0 -0)
(176.148998237698 -0 -0)
(184.171762290799 -0 -0)
(192.221105316251 -0 -0)
(200.298553164331 -0 -0)
(208.405701758454 -0 -0)
(216.544218473172 -0 -0)
(224.715843853691 -0 -0)
(232.922393485216 -0 -0)
(241.165760157838 -0 -0)
(249.447916068851 -0 -0)
(257.7709151422 -0 -0)
(266.136895529817 -0 -0)
(274.548082060344 -0 -0)
(283.006788720537 -0 -0)
(291.515421319029 -0 -0)
(300.076479993411 -0 -0)
(308.692561883127 -0 -0)
(317.366363709913 -0 -0)
(326.100684480624 -0 -0)
(334.898428106002 -0 -0)
(343.76260613509 -0 -0)
(352.696340362377 -0 -0)
(361.702865592263 -0 -0)
(370.785532369284 -0 -0)
(379.947809668525 -0 -0)
(389.193287639349 -0 -0)
(398.525680460378 -0 -0)
(407.948829021705 -0 -0)
(417.466703797652 -0 -0)
(427.083407705849 -0 -0)
(436.803178935265 -0 -0)
(446.630393835568 -0 -0)
(456.569569921894 -0 -0)
(466.625368811166 -0 -0)
(476.802599236372 -0 -0)
(487.106220151183 -0 -0)
(497.541343866161 -0 -0)
(508.113239204627 -0 -0)
(518.827334823663 -0 -0)
(529.689222554423 -0 -0)
(540.704660791151 -0 -0)
(551.879578074342 -0 -0)
(563.220076697677 -0 -0)
(574.732436479986 -0 -0)
(586.423118660651 -0 -0)
(598.298769893692 -0 -0)
(610.36622646954 -0 -0)
(622.632518651525 -0 -0)
(635.104875269673 -0 -0)
(647.790728379521 -0 -0)
(660.697718360479 -0 -0)
(673.833699059298 -0 -0)
(687.206743331462 -0 -0)
(700.825148838911 -0 -0)
(714.697444117874 -0 -0)
(728.832395127733 -0 -0)
(743.239012018854 -0 -0)
(757.926556445142 -0 -0)
(772.904549253913 -0 -0)
(788.182778677173 -0 -0)
(803.771309085107 -0 -0)
(819.680490278609 -0 -0)
(835.920967437535 -0 -0)
(852.503691689367 -0 -0)
(869.439931508549 -0 -0)
(886.741284829382 -0 -0)
(904.419692029741 -0 -0)
(922.48744991983 -0 -0)
(940.957226698664 -0 -0)
(959.842077989473 -0 -0)
(979.155464088483 -0 -0)
(998.911268597455 -0 -0)
(1019.12381831445 -0 -0)
(1039.80790474172 -0 -0)
(1060.97880727696 -0 -0)
(1082.65231814181 -0 -0)
(1104.84476928141 -0 -0)
(1127.57306147137 -0 -0)
(1150.8546956499 -0 -0)
(1174.70780679487 -0 -0)
(1199.1512006122 -0 -0)
(1224.20439316154 -0 -0)
(1249.88765374269 -0 -0)
(1276.22205140938 -0 -0)
(1303.2295053531 -0 -0)
(1330.9328395218 -0 -0)
(1359.35584192767 -0 -0)
(1388.52332907779 -0 -0)
(1418.46121599772 -0 -0)
(1449.19659230431 -0 -0)
(1480.75780517617 -0 -0)
(1513.17454960707 -0 -0)
(1546.47796686018 -0 -0)
(1580.70075186974 -0 -0)
(1615.87727055563 -0 -0)
(1652.04368809972 -0 -0)
(1689.23810917148 -0 -0)
(1727.50073163825 -0 -0)
(1766.87401493866 -0 -0)
(1807.40286493916 -0 -0)
(1849.13483695523 -0 -0)
(1892.12035901798 -0 -0)
(1936.41297768182 -0 -0)
(1982.06962901703 -0 -0)
(2029.15093758544 -0 -0)
(2077.721546961 -0 -0)
(2127.85048520369 -0 -0)
(2179.61157050913 -0 -0)
(2233.0838602878 -0 -0)
(2288.35214472081 -0 -0)
(2345.50753771434 -0 -0)
(2404.64803229847 -0 -0)
(2465.87901009981 -0 -0)
(2529.31536648423 -0 -0)
(2595.07947758201 -0 -0)
(2663.30184291482 -0 -0)
(2734.13279490184 -0 -0)
(2807.743714823 -0 -0)
(2884.31496426486 -0 -0)
(2964.03572401271 -0 -0)
(3047.11197227575 -0 -0)
(3133.76947594542 -0 -0)
(3224.25598679207 -0 -0)
(3318.84394466564 -0 -0)
(3417.83356607901 -0 -0)
(3521.55641703716 -0 -0)
(3630.37954067352 -0 -0)
(3744.70997178029 -0 -0)
(3865.00111425645 -0 -0)
(3991.75682503693 -0 -0)
(4125.54341848347 -0 -0)
(4266.99225886161 -0 -0)
(4416.81230775646 -0 -0)
(4575.81857233371 -0 -0)
(4744.88530400648 -0 -0)
(4925.09223708514 -0 -0)
(5117.56703975349 -0 -0)
(5323.6281009553 -0 -0)
(5544.97819971632 -0 -0)
(5783.14137742234 -0 -0)
(6042.10132346328 -0 -0)
(6328.11183140935 -0 -0)
(6644.46435311512 -0 -0)
(6993.06942108572 -0 -0)
(7377.6183417611 -0 -0)
(7803.77371883366 -0 -0)
(8279.8107162338 -0 -0)
(8814.36418689842 -0 -0)
(9418.18088389323 -0 -0)
(10101.1464145565 -0 -0)
(10865.2012874985 -0 -0)
(11718.9627003312 -0 -0)
(12682.5272937126 -0 -0)
(13765.6716505229 -0 -0)
(14970.9216407211 -0 -0)
(16314.2147471779 -0 -0)
(17806.2622221692 -0 -0)
(19443.6687307678 -0 -0)
(21237.5204409847 -0 -0)
(23192.5672366156 -0 -0)
(25296.0294330992 -0 -0)
(27547.0085689539 -0 -0)
(29943.5116411587 -0 -0)
(32460.7263592602 -0 -0)
(35085.9763828958 -0 -0)
(37813.4466954828 -0 -0)
(40613.9516337323 -0 -0)
(43460.7017744458 -0 -0)
(46347.605568213 -0 -0)
(49267.1223330039 -0 -0)
(52193.1259948008 -0 -0)
(55107.7647538404 -0 -0)
(58011.3549052163 -0 -0)
(60902.9386356665 -0 -0)
(63793.0059130827 -0 -0)
(66678.5292609674 -0 -0)
(69552.0675746872 -0 -0)
(72437.6537222981 -0 -0)
(75344.9538885892 -0 -0)
(78274.9795543723 -0 -0)
(81223.4594181549 -0 -0)
(84173.7420398776 -0 -0)
(87112.5214476871 -0 -0)
(90028.5969347796 -0 -0)
(92916.6723683919 -0 -0)
(95776.0165113853 -0 -0)
(98607.5399062651 -0 -0)
(101413.042173893 -0 -0)
(104194.758730304 -0 -0)
(106955.086088169 -0 -0)
(109691.042282935 -0 -0)
(112398.356297545 -0 -0)
(115078.151073026 -0 -0)
(117732.768315547 -0 -0)
(120364.438144704 -0 -0)
(122975.232075947 -0 -0)
(125567.066646593 -0 -0)
(128141.668661817 -0 -0)
(130700.626275588 -0 -0)
(133245.401697511 -0 -0)
(135777.377095633 -0 -0)
(138297.843980542 -0 -0)
(140806.224656194 -0 -0)
(143299.23437802 -0 -0)
(145775.437957797 -0 -0)
(148235.853668281 -0 -0)
(150681.434725019 -0 -0)
(153113.044952645 -0 -0)
(155531.514696085 -0 -0)
(157937.609999606 -0 -0)
(160332.080688897 -0 -0)
(162715.624883892 -0 -0)
(165088.921251568 -0 -0)
(167452.584823381 -0 -0)
(169807.208440626 -0 -0)
(172153.315811408 -0 -0)
(174491.409101044 -0 -0)
(176821.930166768 -0 -0)
(179145.3161404 -0 -0)
(181461.956541291 -0 -0)
(183769.660616562 -0 -0)
(186065.969377309 -0 -0)
(188350.947886146 -0 -0)
(190624.947556747 -0 -0)
(192888.322936808 -0 -0)
(195141.401553341 -0 -0)
(197384.512405705 -0 -0)
(199617.96527262 -0 -0)
(201842.062662455 -0 -0)
(204057.099738341 -0 -0)
(206263.354012771 -0 -0)
(208461.092286183 -0 -0)
(210650.564264829 -0 -0)
(212832.008204613 -0 -0)
(215005.648844627 -0 -0)
(217171.706995839 -0 -0)
(219330.38891574 -0 -0)
(221481.910341286 -0 -0)
(223626.479535048 -0 -0)
(225764.304291343 -0 -0)
(227895.606789495 -0 -0)
(230020.57744865 -0 -0)
(232139.471764576 -0 -0)
(234252.446163799 -0 -0)
(236359.658452524 -0 -0)
(238459.4306665 -0 -0)
(240550.362657091 -0 -0)
(242632.615934144 -0 -0)
(244706.409016403 -0 -0)
(246771.932536129 -0 -0)
(248829.405564306 -0 -0)
(250879.006485841 -0 -0)
(252920.937578378 -0 -0)
(254955.360905053 -0 -0)
(256982.465344445 -0 -0)
(259002.405245064 -0 -0)
(261015.360719749 -0 -0)
(263021.480871245 -0 -0)
(265020.940158169 -0 -0)
(267013.884995474 -0 -0)
(269000.485743059 -0 -0)
(270980.881367345 -0 -0)
(272955.229616227 -0 -0)
(274923.657262655 -0 -0)
(276886.314117154 -0 -0)
(278843.315402216 -0 -0)
(280794.804809217 -0 -0)
(282740.888151493 -0 -0)
(284681.698079866 -0 -0)
(286617.327243799 -0 -0)
(288547.90424149 -0 -0)
(290473.518398102 -0 -0)
(292394.286445181 -0 -0)
(294310.28489154 -0 -0)
(296221.617983571 -0 -0)
(298128.345389501 -0 -0)
(300030.553512143 -0 -0)
(301927.536021625 -0 -0)
)
;

boundaryField
{
    electrode
    {
        type            calculated;
        value           uniform (4.5386490069177 -0 -0);
    }
    ground
    {
        type            calculated;
        value           uniform (302874.161787097 -0 -0);
    }
    otherfaces
    {
        type            empty;
    }
}


// ************************************************************************* //
