/*--------------------------------*- C++ -*----------------------------------*\
| =========                 |                                                 |
| \\      /  F ield         | foam-extend: Open Source CFD                    |
|  \\    /   O peration     | Version:     4.0                                |
|   \\  /    A nd           | Web:         http://www.foam-extend.org         |
|    \\/     M anipulation  |                                                 |
\*---------------------------------------------------------------------------*/
FoamFile
{
    version     2.0;
    format      ascii;
    class       volVectorField;
    location    "4.4e-06";
    object      J_Arp1;
}
// * * * * * * * * * * * * * * * * * * * * * * * * * * * * * * * * * * * * * //

dimensions      [1 -1 -1 0 0 0 0];

internalField   nonuniform List<vector> 
300
(
(1.81423798515137e+16 -0 -0)
(6.55681860508919e+16 -0 -0)
(1.17360418458213e+17 -0 -0)
(1.63167140247707e+17 -0 -0)
(2.09606487821964e+17 -0 -0)
(2.56318209534045e+17 -0 -0)
(3.02872878593096e+17 -0 -0)
(3.49446566561518e+17 -0 -0)
(3.96007163609299e+17 -0 -0)
(4.42548924933844e+17 -0 -0)
(4.89073920344614e+17 -0 -0)
(5.35579482488941e+17 -0 -0)
(5.820643702181e+17 -0 -0)
(6.28527852830286e+17 -0 -0)
(6.74969907995773e+17 -0 -0)
(7.2139155098432e+17 -0 -0)
(7.67794219413371e+17 -0 -0)
(8.14178448328644e+17 -0 -0)
(8.60543920482871e+17 -0 -0)
(9.06890350649133e+17 -0 -0)
(9.53217704905508e+17 -0 -0)
(9.99526256967988e+17 -0 -0)
(1.04581660307196e+18 -0 -0)
(1.09208966238602e+18 -0 -0)
(1.13834667323875e+18 -0 -0)
(1.18458918988403e+18 -0 -0)
(1.23081908084111e+18 -0 -0)
(1.27703852859599e+18 -0 -0)
(1.32325003086001e+18 -0 -0)
(1.36945640215537e+18 -0 -0)
(1.41566077657532e+18 -0 -0)
(1.46186661025385e+18 -0 -0)
(1.50807768389532e+18 -0 -0)
(1.55429810571812e+18 -0 -0)
(1.60053231352276e+18 -0 -0)
(1.64678507623862e+18 -0 -0)
(1.69306149583861e+18 -0 -0)
(1.73936700769733e+18 -0 -0)
(1.78570738111928e+18 -0 -0)
(1.83208871859129e+18 -0 -0)
(1.87851745502091e+18 -0 -0)
(1.92500035562835e+18 -0 -0)
(1.97154451369955e+18 -0 -0)
(2.01815734681495e+18 -0 -0)
(2.06484659304691e+18 -0 -0)
(2.1116203060875e+18 -0 -0)
(2.15848684928003e+18 -0 -0)
(2.20545488894593e+18 -0 -0)
(2.2525333873867e+18 -0 -0)
(2.29973159397517e+18 -0 -0)
(2.34705903620925e+18 -0 -0)
(2.39452550967183e+18 -0 -0)
(2.44214106677225e+18 -0 -0)
(2.48991600465675e+18 -0 -0)
(2.53786085262928e+18 -0 -0)
(2.58598635805337e+18 -0 -0)
(2.63430347143533e+18 -0 -0)
(2.68282333074221e+18 -0 -0)
(2.73155724466981e+18 -0 -0)
(2.78051667463695e+18 -0 -0)
(2.82971321631694e+18 -0 -0)
(2.87915857993083e+18 -0 -0)
(2.92886456928061e+18 -0 -0)
(2.9788430603584e+18 -0 -0)
(3.02910597858552e+18 -0 -0)
(3.07966527527e+18 -0 -0)
(3.13053290310529e+18 -0 -0)
(3.18172079053413e+18 -0 -0)
(3.23324081548686e+18 -0 -0)
(3.28510477792795e+18 -0 -0)
(3.33732437190745e+18 -0 -0)
(3.38991115593353e+18 -0 -0)
(3.44287652362522e+18 -0 -0)
(3.49623167253649e+18 -0 -0)
(3.54998757277057e+18 -0 -0)
(3.60415493467788e+18 -0 -0)
(3.65874417558983e+18 -0 -0)
(3.71376538648195e+18 -0 -0)
(3.76922829718276e+18 -0 -0)
(3.82514224169194e+18 -0 -0)
(3.88151612253289e+18 -0 -0)
(3.93835837466263e+18 -0 -0)
(3.99567692915996e+18 -0 -0)
(4.05347917629265e+18 -0 -0)
(4.11177192841238e+18 -0 -0)
(4.17056138238827e+18 -0 -0)
(4.22985308225288e+18 -0 -0)
(4.28965188136636e+18 -0 -0)
(4.34996190462965e+18 -0 -0)
(4.41078651103027e+18 -0 -0)
(4.47212825612635e+18 -0 -0)
(4.53398885470784e+18 -0 -0)
(4.59636914386081e+18 -0 -0)
(4.6592690468522e+18 -0 -0)
(4.72268753697055e+18 -0 -0)
(4.78662260238331e+18 -0 -0)
(4.85107121190751e+18 -0 -0)
(4.91602928145428e+18 -0 -0)
(4.981491641513e+18 -0 -0)
(5.04745200617816e+18 -0 -0)
(5.11390294313295e+18 -0 -0)
(5.18083584514914e+18 -0 -0)
(5.24824090345834e+18 -0 -0)
(5.31610708271562e+18 -0 -0)
(5.38442209781056e+18 -0 -0)
(5.45317239300397e+18 -0 -0)
(5.52234312328873e+18 -0 -0)
(5.59191813803199e+18 -0 -0)
(5.66187996730807e+18 -0 -0)
(5.73220981119184e+18 -0 -0)
(5.80288753193243e+18 -0 -0)
(5.8738916489165e+18 -0 -0)
(5.94519933767912e+18 -0 -0)
(6.01678643186141e+18 -0 -0)
(6.0886274290628e+18 -0 -0)
(6.16069550053101e+18 -0 -0)
(6.23296250491533e+18 -0 -0)
(6.30539900635902e+18 -0 -0)
(6.37797429662883e+18 -0 -0)
(6.45065642216559e+18 -0 -0)
(6.52341221541348e+18 -0 -0)
(6.59620733127681e+18 -0 -0)
(6.66900628827872e+18 -0 -0)
(6.74177251474414e+18 -0 -0)
(6.81446840011848e+18 -0 -0)
(6.88705535148322e+18 -0 -0)
(6.95949385496637e+18 -0 -0)
(7.03174354292602e+18 -0 -0)
(7.10376326501595e+18 -0 -0)
(7.17551116701034e+18 -0 -0)
(7.2469447783945e+18 -0 -0)
(7.31802104125881e+18 -0 -0)
(7.38869659498009e+18 -0 -0)
(7.45892788271028e+18 -0 -0)
(7.52866842348788e+18 -0 -0)
(7.59788150591179e+18 -0 -0)
(7.66651441593581e+18 -0 -0)
(7.73451150317787e+18 -0 -0)
(7.80185707622463e+18 -0 -0)
(7.86854835141822e+18 -0 -0)
(7.93455052029046e+18 -0 -0)
(7.99982148733268e+18 -0 -0)
(8.06431871884118e+18 -0 -0)
(8.12800033112016e+18 -0 -0)
(8.19082530078314e+18 -0 -0)
(8.2527536930849e+18 -0 -0)
(8.31374674716365e+18 -0 -0)
(8.37376701401569e+18 -0 -0)
(8.43277915283631e+18 -0 -0)
(8.49074668325395e+18 -0 -0)
(8.5476435992811e+18 -0 -0)
(8.6034248570262e+18 -0 -0)
(8.65808731202391e+18 -0 -0)
(8.71157613996724e+18 -0 -0)
(8.76386651197012e+18 -0 -0)
(8.81505024064929e+18 -0 -0)
(8.864756846176e+18 -0 -0)
(8.91367219865984e+18 -0 -0)
(8.96082702098698e+18 -0 -0)
(9.00693127667835e+18 -0 -0)
(9.05249903558268e+18 -0 -0)
(9.09413311871867e+18 -0 -0)
(9.139690380166e+18 -0 -0)
(9.18118920760418e+18 -0 -0)
(9.22142876244136e+18 -0 -0)
(9.26119426252382e+18 -0 -0)
(9.29869048575208e+18 -0 -0)
(9.33594884666227e+18 -0 -0)
(9.37298852764775e+18 -0 -0)
(9.40576897208027e+18 -0 -0)
(9.44543241757726e+18 -0 -0)
(9.47443571821092e+18 -0 -0)
(9.50517397790638e+18 -0 -0)
(9.53652823603961e+18 -0 -0)
(9.56965523162409e+18 -0 -0)
(9.59649571557189e+18 -0 -0)
(9.62472069718638e+18 -0 -0)
(9.65820551556361e+18 -0 -0)
(9.67531510836978e+18 -0 -0)
(9.69707282931066e+18 -0 -0)
(9.73173894184624e+18 -0 -0)
(9.74154341616739e+18 -0 -0)
(9.76511926599321e+18 -0 -0)
(9.78276236190282e+18 -0 -0)
(9.80695039488075e+18 -0 -0)
(9.80751139127954e+18 -0 -0)
(9.84628006486985e+18 -0 -0)
(9.83712418570533e+18 -0 -0)
(9.86914856989569e+18 -0 -0)
(9.86849964434669e+18 -0 -0)
(9.90834851852943e+18 -0 -0)
(9.91498016696926e+18 -0 -0)
(9.95134506965415e+18 -0 -0)
(9.97907348068126e+18 -0 -0)
(1.00331248684004e+19 -0 -0)
(1.00933118319095e+19 -0 -0)
(1.0194178660141e+19 -0 -0)
(1.03360025861994e+19 -0 -0)
(1.05288982887165e+19 -0 -0)
(1.07730152824719e+19 -0 -0)
(1.10257588542144e+19 -0 -0)
(1.13127735519754e+19 -0 -0)
(1.15143487758758e+19 -0 -0)
(1.16905251012702e+19 -0 -0)
(1.18438099325892e+19 -0 -0)
(1.19443316803375e+19 -0 -0)
(1.20248615029206e+19 -0 -0)
(1.20877368888298e+19 -0 -0)
(1.21444635710228e+19 -0 -0)
(1.21923194700407e+19 -0 -0)
(1.22397480909171e+19 -0 -0)
(1.22818063222939e+19 -0 -0)
(1.23251579863252e+19 -0 -0)
(1.23651281571929e+19 -0 -0)
(1.24081080333389e+19 -0 -0)
(1.24478816250162e+19 -0 -0)
(1.24916033683343e+19 -0 -0)
(1.25321974865028e+19 -0 -0)
(1.25767954544112e+19 -0 -0)
(1.26176198564539e+19 -0 -0)
(1.26622952904752e+19 -0 -0)
(1.27028778201799e+19 -0 -0)
(1.27474584396449e+19 -0 -0)
(1.27877962214252e+19 -0 -0)
(1.28320609383204e+19 -0 -0)
(1.28713653029752e+19 -0 -0)
(1.29156596116284e+19 -0 -0)
(1.29539571166038e+19 -0 -0)
(1.29974162809073e+19 -0 -0)
(1.30344388478115e+19 -0 -0)
(1.3076924875326e+19 -0 -0)
(1.31126902883564e+19 -0 -0)
(1.31543130481773e+19 -0 -0)
(1.31889852607529e+19 -0 -0)
(1.3229797533998e+19 -0 -0)
(1.32632243042988e+19 -0 -0)
(1.33029710770204e+19 -0 -0)
(1.33347662026387e+19 -0 -0)
(1.33730027207786e+19 -0 -0)
(1.34027614416455e+19 -0 -0)
(1.34392223499684e+19 -0 -0)
(1.3466845762432e+19 -0 -0)
(1.35011007837483e+19 -0 -0)
(1.3527056427285e+19 -0 -0)
(1.35595087166298e+19 -0 -0)
(1.35833506300429e+19 -0 -0)
(1.36140670108772e+19 -0 -0)
(1.3635961094059e+19 -0 -0)
(1.3665056092817e+19 -0 -0)
(1.36851895095104e+19 -0 -0)
(1.37127194417906e+19 -0 -0)
(1.37312769775976e+19 -0 -0)
(1.37572745992949e+19 -0 -0)
(1.37742322336959e+19 -0 -0)
(1.37986545314161e+19 -0 -0)
(1.38139441063916e+19 -0 -0)
(1.38367485640751e+19 -0 -0)
(1.38504101874937e+19 -0 -0)
(1.38715992386282e+19 -0 -0)
(1.38838078672012e+19 -0 -0)
(1.39036314987132e+19 -0 -0)
(1.39145029799293e+19 -0 -0)
(1.39333521587163e+19 -0 -0)
(1.39428632219904e+19 -0 -0)
(1.39613746594432e+19 -0 -0)
(1.39692665906857e+19 -0 -0)
(1.39877249995107e+19 -0 -0)
(1.39942363476613e+19 -0 -0)
(1.40136469195265e+19 -0 -0)
(1.40186405617698e+19 -0 -0)
(1.40375852249997e+19 -0 -0)
(1.40416973394134e+19 -0 -0)
(1.40603878491039e+19 -0 -0)
(1.40636487233627e+19 -0 -0)
(1.40820474163263e+19 -0 -0)
(1.408441216022e+19 -0 -0)
(1.41025086776575e+19 -0 -0)
(1.41040347729743e+19 -0 -0)
(1.41218680104197e+19 -0 -0)
(1.41226351748414e+19 -0 -0)
(1.41402752951867e+19 -0 -0)
(1.414038960533e+19 -0 -0)
(1.41579194904875e+19 -0 -0)
(1.41574080842199e+19 -0 -0)
(1.41747780777669e+19 -0 -0)
(1.41735909117321e+19 -0 -0)
(1.41908042642337e+19 -0 -0)
(1.41888881955894e+19 -0 -0)
(1.42059682013457e+19 -0 -0)
(1.4203289534718e+19 -0 -0)
(1.42201755512643e+19 -0 -0)
(1.42166386882735e+19 -0 -0)
(1.42333643076732e+19 -0 -0)
(1.4229006755192e+19 -0 -0)
(1.42454860611153e+19 -0 -0)
(1.42402005672385e+19 -0 -0)
(1.42563339329818e+19 -0 -0)
(1.42499475608991e+19 -0 -0)
(1.42654783439334e+19 -0 -0)
(1.42465147813147e+19 -0 -0)
)
;

boundaryField
{
    electrode
    {
        type            calculated;
        value           uniform (-5357676167.53526 -0 -0);
    }
    ground
    {
        type            calculated;
        value           uniform (1.42646763895804e+19 -0 -0);
    }
    otherfaces
    {
        type            empty;
    }
}


// ************************************************************************* //
