/*--------------------------------*- C++ -*----------------------------------*\
| =========                 |                                                 |
| \\      /  F ield         | foam-extend: Open Source CFD                    |
|  \\    /   O peration     | Version:     4.0                                |
|   \\  /    A nd           | Web:         http://www.foam-extend.org         |
|    \\/     M anipulation  |                                                 |
\*---------------------------------------------------------------------------*/
FoamFile
{
    version     2.0;
    format      ascii;
    class       volVectorField;
    location    "4.4e-06";
    object      J_electron;
}
// * * * * * * * * * * * * * * * * * * * * * * * * * * * * * * * * * * * * * //

dimensions      [1 -1 -1 0 0 0 0];

internalField   nonuniform List<vector> 
300
(
(-1.26716108909019e+19 0 0)
(-1.29998533532651e+19 0 0)
(-1.5349103019635e+19 0 0)
(-1.48889342757913e+19 0 0)
(-1.48887062039048e+19 0 0)
(-1.48775623466471e+19 0 0)
(-1.48183629956671e+19 0 0)
(-1.47743077547224e+19 0 0)
(-1.472803401317e+19 0 0)
(-1.46811580173093e+19 0 0)
(-1.46346384600151e+19 0 0)
(-1.45880038405198e+19 0 0)
(-1.45413160603286e+19 0 0)
(-1.44945496964473e+19 0 0)
(-1.44476815634241e+19 0 0)
(-1.44007847516112e+19 0 0)
(-1.43539982425759e+19 0 0)
(-1.43073261824536e+19 0 0)
(-1.42606760742584e+19 0 0)
(-1.42140139134135e+19 0 0)
(-1.41673275239453e+19 0 0)
(-1.41206128281966e+19 0 0)
(-1.40738683005614e+19 0 0)
(-1.40270930141383e+19 0 0)
(-1.39802857833377e+19 0 0)
(-1.39334449373349e+19 0 0)
(-1.38865683074826e+19 0 0)
(-1.3839653179997e+19 0 0)
(-1.3792696470275e+19 0 0)
(-1.37456945849695e+19 0 0)
(-1.36986436403163e+19 0 0)
(-1.36515394028462e+19 0 0)
(-1.36043772237144e+19 0 0)
(-1.35571522367652e+19 0 0)
(-1.35098592845713e+19 0 0)
(-1.34624928040885e+19 0 0)
(-1.34150470990273e+19 0 0)
(-1.3367516095624e+19 0 0)
(-1.33198935222697e+19 0 0)
(-1.32721727429468e+19 0 0)
(-1.32243469701638e+19 0 0)
(-1.31764090739935e+19 0 0)
(-1.31283517639054e+19 0 0)
(-1.30801674014464e+19 0 0)
(-1.3031848158809e+19 0 0)
(-1.29833860017256e+19 0 0)
(-1.29347726516093e+19 0 0)
(-1.28859995409807e+19 0 0)
(-1.28370580368568e+19 0 0)
(-1.27879391783572e+19 0 0)
(-1.27386338480921e+19 0 0)
(-1.26891327978783e+19 0 0)
(-1.26394265913708e+19 0 0)
(-1.2589505567958e+19 0 0)
(-1.25393600105428e+19 0 0)
(-1.24889800565501e+19 0 0)
(-1.24383556881893e+19 0 0)
(-1.23874768107521e+19 0 0)
(-1.23363332845155e+19 0 0)
(-1.22849148265675e+19 0 0)
(-1.223321114774e+19 0 0)
(-1.21812119580702e+19 0 0)
(-1.21289068776537e+19 0 0)
(-1.20762855931346e+19 0 0)
(-1.2023337790258e+19 0 0)
(-1.19700531916143e+19 0 0)
(-1.19164216223261e+19 0 0)
(-1.18624329505655e+19 0 0)
(-1.18080771856678e+19 0 0)
(-1.17533444256823e+19 0 0)
(-1.16982250245778e+19 0 0)
(-1.16427093553623e+19 0 0)
(-1.15867881492898e+19 0 0)
(-1.1530452262221e+19 0 0)
(-1.14736928200752e+19 0 0)
(-1.14165012674047e+19 0 0)
(-1.13588692543755e+19 0 0)
(-1.13007888596038e+19 0 0)
(-1.12422524132223e+19 0 0)
(-1.1183252675096e+19 0 0)
(-1.11237827875753e+19 0 0)
(-1.10638362752411e+19 0 0)
(-1.10034071410049e+19 0 0)
(-1.09424898308768e+19 0 0)
(-1.0881079309324e+19 0 0)
(-1.0819170983019e+19 0 0)
(-1.07567608395764e+19 0 0)
(-1.06938454090087e+19 0 0)
(-1.06304217487696e+19 0 0)
(-1.05664875243011e+19 0 0)
(-1.0502041009928e+19 0 0)
(-1.04370810852008e+19 0 0)
(-1.03716071971902e+19 0 0)
(-1.03056195164921e+19 0 0)
(-1.02391188008883e+19 0 0)
(-1.01721064395673e+19 0 0)
(-1.01045845114366e+19 0 0)
(-1.00365557369584e+19 0 0)
(-9.96802342678744e+18 0 0)
(-9.89899159235828e+18 0 0)
(-9.82946485622066e+18 0 0)
(-9.75944841313911e+18 0 0)
(-9.68894808119155e+18 0 0)
(-9.6179702471312e+18 0 0)
(-9.54652180226664e+18 0 0)
(-9.47461014674001e+18 0 0)
(-9.40224315138402e+18 0 0)
(-9.32942908147368e+18 0 0)
(-9.25617653692917e+18 0 0)
(-9.18249440805598e+18 0 0)
(-9.10839184982226e+18 0 0)
(-9.03387804867389e+18 0 0)
(-8.95896230369323e+18 0 0)
(-8.88365382754055e+18 0 0)
(-8.8079616658663e+18 0 0)
(-8.73189454798914e+18 0 0)
(-8.65546073636235e+18 0 0)
(-8.57866796044229e+18 0 0)
(-8.50152311560864e+18 0 0)
(-8.42403220447665e+18 0 0)
(-8.3462000251728e+18 0 0)
(-8.26803001535601e+18 0 0)
(-8.18952398306122e+18 0 0)
(-8.11068183723639e+18 0 0)
(-8.03150125870717e+18 0 0)
(-7.9519774520283e+18 0 0)
(-7.87210266222474e+18 0 0)
(-7.79186595354169e+18 0 0)
(-7.71125250770967e+18 0 0)
(-7.63024319032538e+18 0 0)
(-7.54881660453703e+18 0 0)
(-7.46693648025597e+18 0 0)
(-7.38456469782292e+18 0 0)
(-7.30178219220035e+18 0 0)
(-7.21801905470439e+18 0 0)
(-7.13414384268817e+18 0 0)
(-7.05015843248616e+18 0 0)
(-6.96237197084485e+18 0 0)
(-6.87094947655922e+18 0 0)
(-6.78045419770531e+18 0 0)
(-6.69122541502857e+18 0 0)
(-6.60107291270631e+18 0 0)
(-6.50953044748036e+18 0 0)
(-6.41636749204573e+18 0 0)
(-6.32136632520776e+18 0 0)
(-6.22429834423828e+18 0 0)
(-6.12490795035709e+18 0 0)
(-6.02287812929231e+18 0 0)
(-5.91799236537247e+18 0 0)
(-5.80954401744722e+18 0 0)
(-5.69787353532465e+18 0 0)
(-5.58120638105728e+18 0 0)
(-5.46043372979932e+18 0 0)
(-5.33522405180047e+18 0 0)
(-5.19881457391056e+18 0 0)
(-5.06843605205254e+18 0 0)
(-4.90910157239537e+18 0 0)
(-4.76132498986657e+18 0 0)
(-4.60067992684515e+18 0 0)
(-4.36523826117031e+18 0 0)
(-4.19257393120018e+18 0 0)
(-3.59695558188833e+18 0 0)
(-2.68095620518406e+18 0 0)
(-2.44931598484505e+18 0 0)
(-2.52505071434911e+18 0 0)
(-2.35919783093181e+18 0 0)
(-1.98546954948339e+18 0 0)
(-1.32972096923369e+18 0 0)
(-8.40991799242654e+17 0 0)
(-3.22853098810769e+17 0 0)
(-9.32232620398346e+16 0 0)
(-9.68749666738897e+17 0 0)
(-1.41225692679268e+18 0 0)
(-6.65582675111707e+17 0 0)
(-1.28477355802362e+18 0 0)
(-2.61491693352229e+18 0 0)
(-2.7078489646469e+18 0 0)
(-3.22895159550804e+18 0 0)
(-4.51200621432275e+18 0 0)
(-4.32649244757931e+18 0 0)
(-4.13735049874847e+18 0 0)
(-4.17058766800919e+18 0 0)
(-2.8587790646022e+18 0 0)
(-1.03468073359298e+18 0 0)
(5.94997948916957e+17 0 0)
(3.04515689298159e+18 0 0)
(5.64286689287759e+18 0 0)
(7.56711399574471e+18 0 0)
(9.23110100561455e+18 0 0)
(1.0306932209359e+19 0 0)
(1.13668127315961e+19 0 0)
(1.05083142362222e+19 0 0)
(8.54137500927656e+18 0 0)
(8.30240481908779e+18 0 0)
(6.00381046384499e+18 0 0)
(4.41432449664202e+18 0 0)
(7.28737549338123e+18 0 0)
(-5.48209882627821e+18 0 0)
(1.47867183720997e+18 0 0)
(-6.44940388993516e+17 0 0)
(-2.37677220911972e+18 0 0)
(-2.3687261437375e+18 0 0)
(-2.27643123845968e+18 0 0)
(-2.32158289462362e+18 0 0)
(-2.5192648935652e+18 0 0)
(-2.74800044278656e+18 0 0)
(-2.90695527136325e+18 0 0)
(-2.9895103696375e+18 0 0)
(-3.0162069457245e+18 0 0)
(-3.01084388768566e+18 0 0)
(-2.98747386173889e+18 0 0)
(-2.95552597245319e+18 0 0)
(-2.91539963205473e+18 0 0)
(-2.87481744518651e+18 0 0)
(-2.83174880443078e+18 0 0)
(-2.78597321737178e+18 0 0)
(-2.73854621117806e+18 0 0)
(-2.69038623457447e+18 0 0)
(-2.64220238700175e+18 0 0)
(-2.59304603613978e+18 0 0)
(-2.54476051446087e+18 0 0)
(-2.49567862877452e+18 0 0)
(-2.44665341045254e+18 0 0)
(-2.39770028105545e+18 0 0)
(-2.34896804696452e+18 0 0)
(-2.3005310245496e+18 0 0)
(-2.25247910331073e+18 0 0)
(-2.20490103571928e+18 0 0)
(-2.15787074139988e+18 0 0)
(-2.11145496669102e+18 0 0)
(-2.0657131356015e+18 0 0)
(-2.02069736165753e+18 0 0)
(-1.97645315075749e+18 0 0)
(-1.93301913807452e+18 0 0)
(-1.89042787292759e+18 0 0)
(-1.84870561388646e+18 0 0)
(-1.80787325221064e+18 0 0)
(-1.76794612815851e+18 0 0)
(-1.72893497747672e+18 0 0)
(-1.6908458664686e+18 0 0)
(-1.65368091549226e+18 0 0)
(-1.61743959322702e+18 0 0)
(-1.58211514874908e+18 0 0)
(-1.54760853470698e+18 0 0)
(-1.51421191300096e+18 0 0)
(-1.48157531106475e+18 0 0)
(-1.44982635575577e+18 0 0)
(-1.41892845949805e+18 0 0)
(-1.38887268411881e+18 0 0)
(-1.35963942667727e+18 0 0)
(-1.33120976637161e+18 0 0)
(-1.30356365473104e+18 0 0)
(-1.27668050656101e+18 0 0)
(-1.25054217584106e+18 0 0)
(-1.22512980005109e+18 0 0)
(-1.20036437943066e+18 0 0)
(-1.17633744351611e+18 0 0)
(-1.15298220784145e+18 0 0)
(-1.13020713010633e+18 0 0)
(-1.10807182779977e+18 0 0)
(-1.08652880842064e+18 0 0)
(-1.06556288872508e+18 0 0)
(-1.04515342607796e+18 0 0)
(-1.0252817461485e+18 0 0)
(-1.00593027042045e+18 0 0)
(-9.87078343889081e+17 0 0)
(-9.68715870873377e+17 0 0)
(-9.50770161540567e+17 0 0)
(-9.33328020012882e+17 0 0)
(-9.16378199626376e+17 0 0)
(-8.99800006986819e+17 0 0)
(-8.83634266629511e+17 0 0)
(-8.67863465493129e+17 0 0)
(-8.52478218042933e+17 0 0)
(-8.37466243668811e+17 0 0)
(-8.2281594123045e+17 0 0)
(-8.0851599272936e+17 0 0)
(-7.94555411084265e+17 0 0)
(-7.80923048719685e+17 0 0)
(-7.67609612850559e+17 0 0)
(-7.54594739686283e+17 0 0)
(-7.41888459041313e+17 0 0)
(-7.29282637996567e+17 0 0)
(-7.17309536375739e+17 0 0)
(-7.05585606947066e+17 0 0)
(-6.94066155956738e+17 0 0)
(-6.82805578560004e+17 0 0)
(-6.71819351102158e+17 0 0)
(-6.60843622644829e+17 0 0)
(-6.50569502744794e+17 0 0)
(-6.40582749091704e+17 0 0)
(-6.30730292959431e+17 0 0)
(-6.20667390477835e+17 0 0)
(-6.12025357668815e+17 0 0)
(-6.02778568925276e+17 0 0)
(-5.9456793157713e+17 0 0)
(-5.86481073919018e+17 0 0)
(-5.79924289074033e+17 0 0)
(-5.73799652640928e+17 0 0)
(-5.63805734290476e+17 0 0)
)
;

boundaryField
{
    electrode
    {
        type            calculated;
        value           uniform (-1.51260103068749e+19 0 0);
    }
    ground
    {
        type            calculated;
        value           uniform (-5.6125887453215e+17 0 0);
    }
    otherfaces
    {
        type            empty;
    }
}


// ************************************************************************* //
