/*--------------------------------*- C++ -*----------------------------------*\
| =========                 |                                                 |
| \\      /  F ield         | foam-extend: Open Source CFD                    |
|  \\    /   O peration     | Version:     4.0                                |
|   \\  /    A nd           | Web:         http://www.foam-extend.org         |
|    \\/     M anipulation  |                                                 |
\*---------------------------------------------------------------------------*/
FoamFile
{
    version     2.0;
    format      ascii;
    class       volScalarField;
    location    "4.4e-06";
    object      Phi;
}
// * * * * * * * * * * * * * * * * * * * * * * * * * * * * * * * * * * * * * //

dimensions      [0 0 0 1 0 0 0];

internalField   nonuniform List<scalar> 
300
(
699.99992435585
699.999707100014
699.999193029084
699.998416029982
699.99738496266
699.996094380217
699.994545347103
699.992737614249
699.99067082581
699.988344732918
699.985759017519
699.982913337576
699.979807323777
699.976440574133
699.972812651458
699.968923077555
699.964771327504
699.960356830599
699.955678977814
699.950737122921
699.945530580992
699.940058626391
699.934320490572
699.928315359842
699.922042373086
699.915500619487
699.908689136208
699.901606906037
699.894252854976
699.88662584978
699.878724695411
699.870548132436
699.86209483434
699.85336340476
699.844352374638
699.835060199289
699.825485255389
699.815625837868
699.805480156723
699.795046333743
699.784322399142
699.773306288111
699.761995837268
699.750388781035
699.738482747911
699.726275256662
699.713763712419
699.700945402685
699.687817493243
699.674377023987
699.660620904642
699.646545910401
699.632148677461
699.617425698472
699.602373317872
699.586987727144
699.571264959952
699.555200887195
699.538791211942
699.52203146427
699.504916995995
699.487442975282
699.469604381158
699.451395997896
699.432812409286
699.413847992783
699.394496913521
699.374753118205
699.354610328861
699.334062036441
699.313101494284
699.291721711423
699.269915445725
699.247675196866
699.224993199122
699.201861413977
699.178271522532
699.154214917702
699.129682696191
699.104665650234
699.079154259094
699.053138680284
699.026608740516
698.999553926345
698.971963374497
698.943825861849
698.915129795051
698.885863199749
698.856013709396
698.825568553613
698.794514546068
698.762838071833
698.730525074202
698.697561040894
698.663930989629
698.629619453007
698.594610462646
698.558887532521
698.522433641437
698.485231214569
698.447262104005
698.408507568193
698.368948250219
698.328564154818
698.287334624008
698.245238311236
698.202253153914
698.158356344212
698.113524297946
698.067732621417
698.020956076007
697.973168540351
697.924342969854
697.874451353339
697.823464666546
697.771352822215
697.718084616422
697.663627670844
697.607948370549
697.551011796899
697.492781655106
697.433220195903
697.372288130777
697.309944540106
697.246146773509
697.180850341594
697.114008798242
697.045573612422
696.975494028444
696.903716913408
696.83018659041
696.754844656056
696.677629780762
696.598477486874
696.517319911943
696.434085552868
696.34869888751
696.261080254362
696.171145431316
696.078804734702
695.983962516995
695.886517070417
695.786360135394
695.683376272266
695.577442170331
695.468425873146
695.356185907353
695.240570302074
695.121415479551
694.998544999363
694.871768148099
694.740878258412
694.60565102643
694.465842030513
694.321184875839
694.171387876663
694.01613030435
693.855062189729
693.687790821878
693.513891053746
693.332882281814
693.144225840431
692.947339523319
692.741419085534
692.525465401225
692.298454795326
692.059260773153
691.806613572542
691.539009191897
691.254626191459
690.951384912771
690.626747465866
690.277975151801
689.902400713366
689.496710971779
689.056898893786
688.57899952841
688.058837451071
687.491385211932
686.871753302926
686.195140629881
685.455918606861
684.648969480773
683.769516644654
682.812502242843
681.773282535243
680.648453818892
679.43421744305
678.127557372526
676.726620667468
675.23017725423
673.636780296254
671.94570243203
670.157238563267
668.27185144844
666.28981490292
664.211655539396
662.036947842047
659.766420255332
657.400143337068
654.937243340512
652.377146411162
649.71891137022
646.962249116619
644.107328567562
641.154747686773
638.105422105243
634.960302862214
631.720354337817
628.386466868462
624.959484859557
621.440149619775
617.829145787013
614.12741346758
610.335922033844
606.455536729378
602.487070812807
598.431240853064
594.288722007744
590.060103076625
585.745944096956
581.346727991585
576.862917317122
572.294902851876
567.643061051753
562.90782120813
558.089778759885
553.18945867761
548.207388515333
543.144029695942
537.999852185156
532.775262049537
527.470678185183
522.086456670276
516.622969859591
511.080528586838
505.459464204698
499.76004802413
493.982576483938
488.127287417393
482.194447806154
476.184266341367
470.096984036734
463.932955633596
457.692586078246
451.376225774519
444.984256241131
438.517004245398
431.974829470908
425.358036751685
418.6669651194
411.901899240854
405.063158470177
398.151008973337
391.165752317764
384.107638022347
376.976951770791
369.773928099372
362.498837971069
355.151902171656
347.733377281649
340.243470202655
332.682423662226
325.050429750021
317.347718498983
309.574464965716
301.730888754729
293.817154402215
285.833593376963
277.780463558408
269.65808564802
261.466702957314
253.206623478944
244.878075919692
236.481356379887
228.016680081135
219.484332319552
210.884515724839
202.217505303215
193.483491676856
184.682739911798
175.815428999644
166.881814245434
157.88206328344
148.816422154276
139.685047975693
130.488178336766
121.225960367882
111.89862397662
102.506306713933
93.0492314331841
83.5275268419436
73.9414096169324
64.2909998925099
54.5765083903931
44.7980474628328
34.9558227309571
25.0499395972606
15.0805997049884
5.04790269645001
)
;

boundaryField
{
    electrode
    {
        type            fixedValue;
        value           uniform 700;
    }
    ground
    {
        type            fixedValue;
        value           uniform 0;
    }
    otherfaces
    {
        type            empty;
    }
}


// ************************************************************************* //
