/*--------------------------------*- C++ -*----------------------------------*\
| =========                 |                                                 |
| \\      /  F ield         | foam-extend: Open Source CFD                    |
|  \\    /   O peration     | Version:     4.0                                |
|   \\  /    A nd           | Web:         http://www.foam-extend.org         |
|    \\/     M anipulation  |                                                 |
\*---------------------------------------------------------------------------*/
FoamFile
{
    version     2.0;
    format      ascii;
    class       volScalarField;
    location    "4.4e-06";
    object      Te;
}
// * * * * * * * * * * * * * * * * * * * * * * * * * * * * * * * * * * * * * //

dimensions      [0 0 0 1 0 0 0];

internalField   nonuniform List<scalar> 
300
(
40330.576410625
40330.8809276611
40331.068724343
40331.1854894181
40331.3675532962
40331.5888193504
40331.8526837373
40332.1610376151
40332.513115599
40332.9090727911
40333.3489205264
40333.8326475884
40334.3602723819
40334.9318169985
40335.5473121723
40336.2067915356
40336.9102821832
40337.6578109048
40338.4494162281
40339.2851501078
40340.1650732751
40341.0892535295
40342.0577651525
40343.0706887609
40344.1281113278
40345.2301262699
40346.3768335546
40347.5683398118
40348.8047584449
40350.0862097433
40351.4128209945
40352.7847265933
40354.2020681613
40355.6649946651
40357.1736625329
40358.7282357866
40360.328886172
40361.975793293
40363.6691447566
40365.4091363216
40367.1959720543
40369.0298644903
40370.9110348022
40372.839712977
40374.8161380036
40376.8405580609
40378.9132307173
40381.0344231449
40383.2044123334
40385.4234853165
40387.6919394128
40390.0100824693
40392.3782331158
40394.796721038
40397.2658872549
40399.7860844057
40402.3576770553
40404.9810420103
40407.6565686442
40410.3846592411
40413.1657293539
40416.0002081706
40418.8885389041
40421.831179195
40424.8286015302
40427.8812936821
40430.9897591624
40434.1545176986
40437.3761057303
40440.6550769264
40443.9920027216
40447.3874728815
40450.8420960904
40454.3565005607
40457.931334677
40461.5672676605
40465.2649902698
40469.0252155295
40472.8486794916
40476.7361420347
40480.6883876958
40484.7062265447
40488.7904950975
40492.9420572724
40497.1618053907
40501.4506612286
40505.8095771187
40510.2395371022
40514.7415581431
40519.3166914018
40523.9660235687
40528.6906782689
40533.4918175437
40538.3706434018
40543.3283994531
40548.3663726363
40553.4858950333
40558.6883457819
40563.9751531006
40569.3477964217
40574.8078086425
40580.3567785131
40585.9963531583
40591.7282407459
40597.5542133186
40603.4761097958
40609.4958391565
40615.6153838218
40621.836803252
40628.1622377726
40634.5939126438
40641.1341424046
40647.7853355048
40654.5499992471
40661.4307450725
40668.4302942139
40675.5514837551
40682.7972731186
40690.1707510344
40697.6751430268
40705.3138194661
40713.0903042445
40721.0082841263
40729.0716188459
40737.284352026
40745.6507229942
40754.1751795961
40762.8623921013
40771.7172683322
40780.7449701594
40789.9509312212
40799.3408772764
40808.9208483016
40818.697208033
40828.6767257664
40838.8665187253
40849.2740119989
40859.9074889958
40870.7761426409
40881.8891610708
40893.2557292111
40904.8858405807
40916.7904705996
40928.9814092495
40941.4713016805
40954.2737269775
40967.4032919028
40980.875743277
40994.7080766127
41008.9187207864
41023.5276081706
41038.556498191
41054.0291015829
41069.9710698676
41086.4114820176
41103.3803345477
41120.913463445
41139.0493385324
41157.8272411609
41177.3069632235
41197.5404087216
41218.6551789362
41240.8772149197
41264.2218467526
41288.5594430705
41313.9600246061
41340.6332831171
41368.8325571508
41398.7541203673
41430.5539411512
41464.382093853
41500.0543072394
41537.5653063737
41577.7399728056
41620.9325639359
41666.7406150158
41715.7793240549
41769.0094205691
41826.5370018661
41889.515613398
41960.0666092475
42039.7238204955
42131.5974503802
42240.9224313657
42373.4027927152
42537.4339320512
42745.9946442727
43015.1572144866
43366.7102324986
43832.2509199883
44458.5727881561
45306.58041605
46447.6901680509
48013.2433794187
50194.4772816502
53226.1039999956
57632.2951816686
63242.1617273239
70364.7216101829
81697.7461974854
97289.2002138433
118389.443501808
147352.819175524
186075.721411244
235091.577638279
292435.500436153
354118.820717761
415810.083949422
474189.59272373
527366.484024066
574648.785730143
616126.791166127
652341.341122148
683942.122956208
711547.073686272
735797.084739664
757260.874201673
776403.415057955
793597.463610538
809156.585473104
823326.217819562
836310.639075355
848297.854487906
859435.830715669
869847.447524629
879634.185478493
888880.450435351
897656.181360141
906019.23994874
914017.418158979
921689.979738583
929068.916149858
936179.96815225
943043.46497042
949675.019180511
956086.105946108
962284.549585825
968274.935372705
974058.96181462
979635.742668472
985002.071674171
990152.634472256
995080.244298458
999777.648432509
1004231.78929407
1008428.9212509
1012358.68115295
1016007.13794512
1019359.59435483
1022400.28279343
1025112.63576387
1027479.35317073
1029482.49720597
1031103.50224647
1032323.17890792
1033120.42067655
1033470.72901401
1033370.54319231
1032789.36183387
1031707.44910578
1030103.25221747
1027955.64856473
1025243.17028898
1021944.13294485
1018036.55223625
1013498.21296665
1008306.42290097
1002439.78984494
995875.637286934
988587.716455466
980552.362898087
971746.548472346
962144.442233907
951719.305122458
940443.174347888
928286.837077449
915219.649784439
901209.343874086
886221.818718637
870220.826961521
853168.104447253
835022.137569708
815746.545469083
795293.964764458
773607.381184605
750634.187268064
726308.990225358
700554.214256086
673294.877661576
644442.295798187
613885.189305115
581498.660815819
547145.794528058
510639.714592303
471755.421078633
430211.111476387
385607.034362588
337394.323515711
284767.949495647
226673.683858739
)
;

boundaryField
{
    electrode
    {
        type            electronTemperature;
        seec            0.05;
        Tse             1000;
        Edepend         1;
        TFN             1000;
        field_emission  0;
        field_enhancement_factor 55;
        work_function   5;
        value           uniform 40330.576410625;
    }
    ground
    {
        type            electronTemperature;
        seec            0.05;
        Tse             1000;
        Edepend         1;
        TFN             1000;
        field_emission  0;
        field_enhancement_factor 55;
        work_function   5;
        value           uniform 193708.768280686;
    }
    otherfaces
    {
        type            empty;
    }
}


// ************************************************************************* //
