/*--------------------------------*- C++ -*----------------------------------*\
| =========                 |                                                 |
| \\      /  F ield         | foam-extend: Open Source CFD                    |
|  \\    /   O peration     | Version:     4.0                                |
|   \\  /    A nd           | Web:         http://www.foam-extend.org         |
|    \\/     M anipulation  |                                                 |
\*---------------------------------------------------------------------------*/
FoamFile
{
    version     2.0;
    format      ascii;
    class       volScalarField;
    location    "4.4e-06";
    object      TeMean;
}
// * * * * * * * * * * * * * * * * * * * * * * * * * * * * * * * * * * * * * //

dimensions      [0 0 0 1 0 0 0];

internalField   nonuniform List<scalar> 
300
(
32979.842832095
32980.1319330538
32980.2336475298
32980.1768869133
32980.1177837116
32980.0380831567
32979.9404266672
32979.8280865908
32979.7014526222
32979.5614092894
32979.4087739819
32979.2443244428
32979.0688162056
32978.8829580559
32978.6874343578
32978.482902875
32978.2699930487
32978.0493128657
32977.8214481895
32977.5869624702
32977.3464007631
32977.1002866477
32976.8491256965
32976.5934043939
32976.3335895348
32976.0701441951
32975.8035170954
32975.5341387357
32975.2624338681
32974.9888045722
32974.713628351
32974.4372937571
32974.1601968001
32973.882712407
32973.6052025318
32973.3280102763
32973.0514715242
32972.7759277787
32972.5017134792
32972.2291494503
32971.9585458647
32971.6902187656
32971.424478115
32971.1616236106
32970.9019497294
32970.6457452993
32970.3932927716
32970.1448667966
32969.9007294736
32969.6611302307
32969.4263062077
32969.1965036353
32968.9719898729
32968.7530266637
32968.5398770812
32968.3328141845
32968.1320980171
32967.9379784527
32967.7507139307
32967.5705621689
32967.397777853
32967.2326258197
32967.0753458454
32966.9261675679
32966.7853618668
32966.6532192455
32966.5300227199
32966.4160507284
32966.3115825889
32966.2169055144
32966.1323027405
32966.0580407476
32965.9944070158
32965.9417045936
32965.9002209637
32965.8702316381
32965.8520406727
32965.8459916092
32965.8524116615
32965.8716204867
32965.9039800911
32965.949865225
32966.009631588
32966.0836267296
32966.1722042049
32966.2757565607
32966.3947089009
32966.5294786286
32966.6804786811
32966.8481459198
32967.0329091519
32967.2352059163
32967.4555527118
32967.6944561382
32967.952418851
32968.2299895263
32968.5277207153
32968.8461842971
32969.1859637529
32969.5476669691
32969.9319482375
32970.3394425585
32970.7708037219
32971.2267600087
32971.7080579439
32972.2154610027
32972.7497543825
32973.3117567947
32973.9023379768
32974.5223981434
32975.1728740957
32975.8547373659
32976.5689871009
32977.3166949298
32978.0989618844
32978.9169156369
32979.7717268098
32980.6646500072
32981.5970271466
32982.5702010807
32983.5855670331
32984.6446044874
32985.7488543426
32986.8999569579
32988.0996662777
32989.3497953233
32990.6522101718
32992.0089004266
32993.421980257
32994.8936386377
32996.4261745962
32998.0220400055
32999.6838396473
33001.4142612673
33003.2161321754
33005.092545696
33007.046812453
33009.0824238459
33011.2030797837
33013.4127276166
33015.7155974704
33018.11621132
33020.619407046
33023.230372006
33025.9547355102
33028.7986479171
33031.7687998508
33034.8724907713
33038.1175958137
33041.5127108657
33045.0673942906
33048.7921497278
33052.6985586221
33056.7996250909
33061.1097227665
33065.6450156285
33070.4237380274
33075.4668245334
33080.7991235893
33086.4517801253
33092.4780008007
33098.9479495245
33105.9029100791
33113.3617515748
33121.3763935182
33130.0421572688
33139.4758322753
33149.7969825531
33161.1186491433
33173.5291961147
33187.0593415351
33201.770473483
33217.8419204716
33235.3083384254
33254.0773319876
33274.3423592495
33296.2927372905
33320.0706575133
33346.4740150061
33376.8487070789
33413.200408528
33459.359440529
33521.3715190947
33608.1485556154
33733.7273743154
33919.0380856072
34194.4875402892
34605.5823820726
35220.7696161581
36144.2507048527
37537.6697665442
39657.7297225812
42924.634025761
48160.4496761273
56177.5238426483
67491.275471253
83979.5953458586
106464.926508096
136699.076171447
175027.885568402
220822.472177177
272336.330289113
327300.732206887
383043.032906702
437140.460306444
487770.537845097
533861.860227615
575000.992935159
611291.946385841
643149.800886206
671090.348773114
695647.180036403
717340.329865952
736623.653022145
753889.962139601
769478.316280411
783667.542199606
796686.497365003
808722.734206092
819930.410781506
830435.308907817
840338.764652598
849727.822422827
858677.69997479
867248.869152211
875490.695914008
883443.503370423
891139.906889196
898605.971499355
905862.185049591
912924.226157278
919803.605075657
926508.1922921
933042.552764174
939408.383202955
945604.922285918
951629.141417837
957476.007963867
963138.693315529
968608.772382688
973876.383253176
978930.35313675
983758.379207698
988347.344099708
992683.260989888
996751.331359802
1000535.85490301
1004020.65986371
1007189.2959712
1010024.56687934
1012509.58931892
1014627.49574672
1016360.78220065
1017691.74753043
1018602.33575643
1019074.26017433
1019086.19976327
1018622.87125524
1017671.91646434
1016209.83653305
1014218.14449455
1011677.83962973
1008570.0957791
1004875.90026926
1000576.04118825
995651.614926275
990082.865704875
983849.305106435
976930.777834549
969306.521313167
960955.096440723
951854.387724022
941981.612103295
931312.747394774
919822.519316706
907484.359587493
894270.280518149
880150.673334894
865094.154832388
849067.27952077
832034.481095227
813957.807357273
794801.811529691
774520.748817108
753062.036283119
730374.960476687
706396.737578965
681054.381634574
654276.897783808
625977.911559755
596050.865720196
564378.585783371
530824.624677638
495209.823940462
457318.507019832
416876.210564322
373495.385050396
326647.815193725
275561.151972388
219212.644583077
)
;

boundaryField
{
    electrode
    {
        type            calculated;
        value           uniform 32979.8428320978;
    }
    ground
    {
        type            calculated;
        value           uniform 187263.653545478;
    }
    otherfaces
    {
        type            empty;
    }
}


// ************************************************************************* //
