/*--------------------------------*- C++ -*----------------------------------*\
| =========                 |                                                 |
| \\      /  F ield         | foam-extend: Open Source CFD                    |
|  \\    /   O peration     | Version:     4.0                                |
|   \\  /    A nd           | Web:         http://www.foam-extend.org         |
|    \\/     M anipulation  |                                                 |
\*---------------------------------------------------------------------------*/
FoamFile
{
    version     2.0;
    format      ascii;
    class       volScalarField;
    location    "7.9e-06";
    object      Ar;
}
// * * * * * * * * * * * * * * * * * * * * * * * * * * * * * * * * * * * * * //

dimensions      [0 0 0 1 0 0 0];

internalField   nonuniform List<scalar> 
300
(
3.21880209446347e+22
3.21880209018817e+22
3.21880209312632e+22
3.21880209432061e+22
3.21880209634617e+22
3.21880209915143e+22
3.21880210256664e+22
3.21880210665819e+22
3.21880211141373e+22
3.21880211682991e+22
3.21880212290726e+22
3.21880212964463e+22
3.21880213704151e+22
3.21880214509759e+22
3.21880215381268e+22
3.21880216318672e+22
3.21880217322008e+22
3.21880218391278e+22
3.21880219526491e+22
3.21880220727679e+22
3.21880221994879e+22
3.21880223328137e+22
3.21880224727503e+22
3.21880226193035e+22
3.21880227724955e+22
3.21880229323204e+22
3.21880230987871e+22
3.21880232719059e+22
3.21880234516765e+22
3.21880236381075e+22
3.21880238312262e+22
3.21880240310355e+22
3.21880242375317e+22
3.21880244507243e+22
3.21880246706234e+22
3.21880248972397e+22
3.21880251305888e+22
3.21880253706803e+22
3.21880256175238e+22
3.21880258711325e+22
3.21880261315199e+22
3.21880263986981e+22
3.21880266726811e+22
3.2188026953483e+22
3.21880272411187e+22
3.21880275356034e+22
3.2188027836955e+22
3.21880281451911e+22
3.21880284603387e+22
3.21880287824188e+22
3.21880291114638e+22
3.21880294474812e+22
3.21880297904966e+22
3.21880301405126e+22
3.21880304975418e+22
3.21880308615887e+22
3.21880312326708e+22
3.21880316108065e+22
3.21880319960145e+22
3.21880323883157e+22
3.21880327877275e+22
3.21880331942695e+22
3.21880336079668e+22
3.21880340288594e+22
3.21880344569652e+22
3.21880348922808e+22
3.21880353348263e+22
3.21880357846221e+22
3.21880362416888e+22
3.21880367060475e+22
3.21880371777214e+22
3.21880376567398e+22
3.21880381431267e+22
3.2188038636897e+22
3.21880391380865e+22
3.21880396467165e+22
3.21880401628029e+22
3.21880406863719e+22
3.21880412174256e+22
3.21880417560166e+22
3.21880423021324e+22
3.21880428557924e+22
3.21880434170215e+22
3.2188043985839e+22
3.2188044562281e+22
3.21880451463612e+22
3.21880457380889e+22
3.21880463374846e+22
3.2188046944581e+22
3.21880475593909e+22
3.21880481819406e+22
3.2188048812295e+22
3.21880494504191e+22
3.21880500963309e+22
3.21880507500492e+22
3.21880514115921e+22
3.21880520809801e+22
3.21880527582396e+22
3.21880534434011e+22
3.21880541364493e+22
3.21880548373966e+22
3.21880555463024e+22
3.21880562632168e+22
3.21880569881346e+22
3.21880577210896e+22
3.21880584621156e+22
3.21880592112215e+22
3.21880599684504e+22
3.21880607338147e+22
3.21880615073315e+22
3.21880622890249e+22
3.21880630789185e+22
3.21880638770413e+22
3.21880646834161e+22
3.21880654980654e+22
3.21880663210267e+22
3.21880671523381e+22
3.2188067991994e+22
3.2188068840012e+22
3.21880696964185e+22
3.21880705612575e+22
3.21880714345337e+22
3.21880723162931e+22
3.21880732065422e+22
3.21880741052861e+22
3.21880750125432e+22
3.21880759283575e+22
3.21880768527273e+22
3.21880777856788e+22
3.21880787272293e+22
3.21880796774094e+22
3.21880806362377e+22
3.21880816037341e+22
3.2188082579939e+22
3.21880835649032e+22
3.21880845586221e+22
3.21880855611059e+22
3.21880865723935e+22
3.21880875925177e+22
3.2188088621483e+22
3.2188089659319e+22
3.21880907060557e+22
3.21880917617383e+22
3.21880928264117e+22
3.21880939001128e+22
3.21880949828339e+22
3.21880960746008e+22
3.21880971754402e+22
3.21880982853914e+22
3.21880994045111e+22
3.21881005327919e+22
3.2188101670262e+22
3.2188102816982e+22
3.21881039729496e+22
3.21881051381741e+22
3.21881063126766e+22
3.21881074965099e+22
3.21881086895598e+22
3.21881098919477e+22
3.21881111033305e+22
3.21881123244e+22
3.21881135533817e+22
3.21881147932907e+22
3.21881160386866e+22
3.21881172981222e+22
3.21881185597997e+22
3.21881198161185e+22
3.21881210879261e+22
3.21881223713235e+22
3.21881236618748e+22
3.21881249597094e+22
3.21881262527164e+22
3.21881275552244e+22
3.21881288463699e+22
3.21881301417571e+22
3.2188131471221e+22
3.21881327721858e+22
3.21881340446837e+22
3.21881353454492e+22
3.21881366224741e+22
3.21881378433047e+22
3.21881390784517e+22
3.21881402695402e+22
3.21881413774378e+22
3.21881424934307e+22
3.21881435215556e+22
3.2188144458259e+22
3.21881453711989e+22
3.21881461928422e+22
3.21881468983059e+22
3.21881475653115e+22
3.21881481463068e+22
3.2188148642048e+22
3.21881490279505e+22
3.21881493818229e+22
3.21881496059465e+22
3.21881497784803e+22
3.21881498818926e+22
3.21881499778343e+22
3.21881500341464e+22
3.21881500679966e+22
3.21881500379449e+22
3.21881500171605e+22
3.21881500070505e+22
3.21881500591473e+22
3.21881501358796e+22
3.21881502271792e+22
3.21881503177823e+22
3.21881503982292e+22
3.21881504677176e+22
3.21881505273593e+22
3.21881505780465e+22
3.21881506212026e+22
3.21881506737922e+22
3.21881507293886e+22
3.21881507805452e+22
3.21881508265042e+22
3.21881508689162e+22
3.21881509073463e+22
3.21881509432236e+22
3.218815097589e+22
3.21881510070606e+22
3.21881510359172e+22
3.21881510634798e+22
3.21881510887969e+22
3.21881511275138e+22
3.21881511653322e+22
3.21881512025675e+22
3.21881512373429e+22
3.21881512717401e+22
3.21881513038218e+22
3.21881513356887e+22
3.21881513653195e+22
3.2188151394853e+22
3.21881514222243e+22
3.21881514495864e+22
3.21881514748357e+22
3.21881515001601e+22
3.21881515233988e+22
3.21881515467842e+22
3.21881515680962e+22
3.21881515925158e+22
3.21881516226402e+22
3.21881516528533e+22
3.21881516811318e+22
3.21881517095447e+22
3.21881517360575e+22
3.21881517627727e+22
3.21881517876088e+22
3.21881518127098e+22
3.21881518359627e+22
3.21881518595288e+22
3.21881518812823e+22
3.21881519033943e+22
3.21881519237268e+22
3.21881519444681e+22
3.21881519634393e+22
3.21881519828748e+22
3.21881520005485e+22
3.21881520187422e+22
3.21881520351665e+22
3.21881520521971e+22
3.21881520674269e+22
3.21881520833585e+22
3.21881520974369e+22
3.21881521178271e+22
3.21881521375753e+22
3.21881521583358e+22
3.21881521769993e+22
3.21881521967781e+22
3.21881522144116e+22
3.21881522332686e+22
3.21881522499259e+22
3.21881522679288e+22
3.2188152283671e+22
3.21881523008774e+22
3.21881523157615e+22
3.21881523322142e+22
3.21881523462678e+22
3.21881523620018e+22
3.21881523752672e+22
3.21881523903554e+22
3.21881524030834e+22
3.21881524178949e+22
3.21881524301163e+22
3.2188152444363e+22
3.21881524559207e+22
3.21881524696008e+22
3.2188152480505e+22
3.21881524940472e+22
3.21881525050023e+22
3.21881525183171e+22
3.21881525286392e+22
3.21881525420756e+22
3.21881525526817e+22
3.21881525660873e+22
3.21881525771728e+22
3.21881525916155e+22
3.2188152604605e+22
3.21881526303802e+22
)
;

boundaryField
{
    electrode
    {
        type            zeroGradient;
    }
    ground
    {
        type            zeroGradient;
    }
    otherfaces
    {
        type            empty;
    }
}


// ************************************************************************* //
