/*--------------------------------*- C++ -*----------------------------------*\
| =========                 |                                                 |
| \\      /  F ield         | foam-extend: Open Source CFD                    |
|  \\    /   O peration     | Version:     4.0                                |
|   \\  /    A nd           | Web:         http://www.foam-extend.org         |
|    \\/     M anipulation  |                                                 |
\*---------------------------------------------------------------------------*/
FoamFile
{
    version     2.0;
    format      ascii;
    class       volScalarField;
    location    "7.9e-06";
    object      Arm;
}
// * * * * * * * * * * * * * * * * * * * * * * * * * * * * * * * * * * * * * //

dimensions      [0 0 0 1 0 0 0];

internalField   nonuniform List<scalar> 
300
(
3.57411338542832e+15
3.57598754937465e+15
3.57793510879381e+15
3.57924133230451e+15
3.58005763651828e+15
3.58043623359921e+15
3.58042132241773e+15
3.58004435193831e+15
3.57933098368479e+15
3.57830319770825e+15
3.57697677476605e+15
3.57536580039992e+15
3.57348232857322e+15
3.571336962284e+15
3.56893915889144e+15
3.56629745905821e+15
3.56341669678021e+15
3.56030545298739e+15
3.55697206675294e+15
3.55342301977318e+15
3.54966451350148e+15
3.54570246959151e+15
3.54154257803464e+15
3.53719026334886e+15
3.53263491407348e+15
3.52789420673404e+15
3.52297186239396e+15
3.51786991538679e+15
3.51260192915051e+15
3.50717277065305e+15
3.5015687437584e+15
3.49580119648982e+15
3.48988820749212e+15
3.48383517762712e+15
3.47764719315919e+15
3.47132904935783e+15
3.46488093581776e+15
3.45830936041853e+15
3.45162138626002e+15
3.44482055377093e+15
3.43791036914969e+15
3.43089610404464e+15
3.42378164107572e+15
3.41657067177104e+15
3.40926669623995e+15
3.40187297518571e+15
3.3943904572488e+15
3.38682057683917e+15
3.37915559275741e+15
3.37139406998847e+15
3.36352345697076e+15
3.35555619769791e+15
3.34748695707812e+15
3.3393334076706e+15
3.33110370807836e+15
3.32281419886614e+15
3.31446819897784e+15
3.30606862458423e+15
3.29761804516449e+15
3.28911688726739e+15
3.28056945763206e+15
3.27197786275508e+15
3.26333874474799e+15
3.25463419225464e+15
3.24586818304516e+15
3.237066239369e+15
3.22823048725242e+15
3.21936276645488e+15
3.2104646628276e+15
3.2015375331119e+15
3.19258052602798e+15
3.18358650708766e+15
3.1745539440692e+15
3.16549024111925e+15
3.15638190521405e+15
3.14722998218276e+15
3.138040793628e+15
3.12881025733565e+15
3.11955824980312e+15
3.1102543705435e+15
3.10093307154617e+15
3.09159651658822e+15
3.08224163614362e+15
3.07287065986812e+15
3.06346882285076e+15
3.05404384132759e+15
3.04460739966427e+15
3.03515981703936e+15
3.02568922679704e+15
3.01620333724089e+15
3.0066960989363e+15
2.99712264844252e+15
2.98753804710974e+15
2.97794400460088e+15
2.96834055210245e+15
2.95872771542578e+15
2.94910527628205e+15
2.93947278798206e+15
2.9298193437125e+15
2.92014487618751e+15
2.91045563302074e+15
2.9007528557266e+15
2.89100490760578e+15
2.88124087990179e+15
2.87145160556079e+15
2.86162777289513e+15
2.85178432467009e+15
2.8419017358351e+15
2.83199038304717e+15
2.82205571473813e+15
2.81209587021836e+15
2.80210855613428e+15
2.79208604692745e+15
2.78202612281996e+15
2.77192654219797e+15
2.76176967231149e+15
2.75153668773454e+15
2.74125229621022e+15
2.73091739141968e+15
2.72052388097539e+15
2.71004545486146e+15
2.69949496482906e+15
2.68884353298209e+15
2.67810150141852e+15
2.66728028101698e+15
2.65637765437554e+15
2.64536560731065e+15
2.63426147445814e+15
2.62305447846342e+15
2.6117425478667e+15
2.60031007396498e+15
2.58875316923973e+15
2.57706680861536e+15
2.56522491980214e+15
2.55319112845508e+15
2.54098419396596e+15
2.52860802049179e+15
2.51603761286363e+15
2.5032541425292e+15
2.49026665820886e+15
2.47705920630763e+15
2.46361511157385e+15
2.44990225018308e+15
2.43588853376921e+15
2.42154939988522e+15
2.40690454068946e+15
2.3919391340749e+15
2.37663679892394e+15
2.36096699235827e+15
2.34488093315093e+15
2.32839091644756e+15
2.31147219365208e+15
2.29406263172371e+15
2.27616093621444e+15
2.2577488310728e+15
2.23877663898642e+15
2.21920115900696e+15
2.19902175582161e+15
2.17821927399096e+15
2.15674880148763e+15
2.13457474729926e+15
2.11168196069135e+15
2.08803229006624e+15
2.06363817467278e+15
2.03848659796061e+15
2.01252315038812e+15
1.98576858267084e+15
1.95826740981305e+15
1.93004863852842e+15
1.9011542565636e+15
1.87165278127636e+15
1.84157766826332e+15
1.81102132766046e+15
1.7801551930707e+15
1.74917314838279e+15
1.71824508703004e+15
1.68755020881326e+15
1.6572875403129e+15
1.62769571581409e+15
1.59893041766099e+15
1.57114591569508e+15
1.54448917624562e+15
1.51904169506572e+15
1.49491806846733e+15
1.47211820858589e+15
1.4505522056672e+15
1.43025961285318e+15
1.41119001836737e+15
1.39325764526299e+15
1.3763819679925e+15
1.36046929675607e+15
1.34557115743071e+15
1.3321795094607e+15
1.32537005554749e+15
1.3513185864615e+15
1.41720014403606e+15
1.49692390243451e+15
1.56237202544055e+15
1.62058799009343e+15
1.6800856276551e+15
1.73963168984709e+15
1.79524091756497e+15
1.82248235459264e+15
1.80861266491088e+15
1.76531639288126e+15
1.7100666026583e+15
1.6579936149702e+15
1.61689415676056e+15
1.58755424408137e+15
1.56793257916755e+15
1.55487859302546e+15
1.54672483018531e+15
1.5413404409876e+15
1.53837674644026e+15
1.53593803068622e+15
1.53382460916485e+15
1.53209509723e+15
1.53036765100371e+15
1.52836968529778e+15
1.52594227435571e+15
1.5229754282119e+15
1.51900919694565e+15
1.51406269358011e+15
1.50833581591822e+15
1.50190919609255e+15
1.49494287088755e+15
1.48748514443888e+15
1.47956806887291e+15
1.47124220606179e+15
1.46256578824754e+15
1.45357534248407e+15
1.44432315282796e+15
1.43486565671151e+15
1.42524135811533e+15
1.41549057438143e+15
1.40566819209925e+15
1.39579405752627e+15
1.38591990787003e+15
1.37606447572091e+15
1.36626500611889e+15
1.35654504350459e+15
1.34691717967317e+15
1.33741472062783e+15
1.32804037527284e+15
1.31881498418349e+15
1.30976644406006e+15
1.30089137108198e+15
1.29220578928971e+15
1.28371880484249e+15
1.27542755543203e+15
1.2673429096084e+15
1.2594636398983e+15
1.25178881051043e+15
1.24432321523593e+15
1.23705681876079e+15
1.22999388083479e+15
1.22313678576222e+15
1.21647193662417e+15
1.21000735474512e+15
1.2037330081477e+15
1.1976493988123e+15
1.19174016920668e+15
1.18601179469906e+15
1.18045490642704e+15
1.1750658057988e+15
1.16983924546802e+15
1.16476609044263e+15
1.15984166210218e+15
1.15505382971492e+15
1.15040681508947e+15
1.14589104621958e+15
1.14150923724898e+15
1.13724590916831e+15
1.13310537737409e+15
1.12907465639917e+15
1.12515140065224e+15
1.12133304659693e+15
1.11761878619205e+15
1.11400980085046e+15
1.1104989928631e+15
1.10708443553655e+15
1.10372509037385e+15
1.1002775600613e+15
1.09672744376589e+15
1.09324129776838e+15
1.08982283260994e+15
1.08648105483797e+15
1.0832190886649e+15
1.08002769019647e+15
1.07651387142815e+15
1.07278698031255e+15
1.06914616385044e+15
1.06559963030212e+15
1.06149978147066e+15
1.05724268130504e+15
1.0528844342485e+15
1.04775351833182e+15
1.04213200723251e+15
1.0356372478076e+15
1.0277110282362e+15
)
;

boundaryField
{
    electrode
    {
        type            zeroGradient;
    }
    ground
    {
        type            zeroGradient;
    }
    otherfaces
    {
        type            empty;
    }
}


// ************************************************************************* //
