/*--------------------------------*- C++ -*----------------------------------*\
| =========                 |                                                 |
| \\      /  F ield         | foam-extend: Open Source CFD                    |
|  \\    /   O peration     | Version:     4.0                                |
|   \\  /    A nd           | Web:         http://www.foam-extend.org         |
|    \\/     M anipulation  |                                                 |
\*---------------------------------------------------------------------------*/
FoamFile
{
    version     2.0;
    format      ascii;
    class       volScalarField;
    location    "7.9e-06";
    object      Arp1;
}
// * * * * * * * * * * * * * * * * * * * * * * * * * * * * * * * * * * * * * //

dimensions      [0 0 0 1 0 0 0];

internalField   nonuniform List<scalar> 
300
(
6.62245370681195e+16
6.6267179043492e+16
6.62404008234272e+16
6.62348804109853e+16
6.62246536903422e+16
6.62102082973e+16
6.61932034212918e+16
6.61729443807709e+16
6.61495321559305e+16
6.61229811892824e+16
6.60932732488543e+16
6.6060409082502e+16
6.60243850996762e+16
6.59851974342317e+16
6.5942842389057e+16
6.58973159417219e+16
6.58486138847914e+16
6.57967318170244e+16
6.57416651366172e+16
6.56834090459288e+16
6.5621958551499e+16
6.55573084656901e+16
6.5489453408e+16
6.5418387806133e+16
6.53441058978174e+16
6.52666017325209e+16
6.51858691725841e+16
6.51019018955334e+16
6.50146933959285e+16
6.49242369870379e+16
6.48305258030276e+16
6.47335528015551e+16
6.46333107655109e+16
6.45297923056055e+16
6.44229898632238e+16
6.43128957124545e+16
6.41995019631713e+16
6.40828005640473e+16
6.39627833049529e+16
6.38394418204011e+16
6.37127675928871e+16
6.35827519556085e+16
6.34493860963058e+16
6.33126610608242e+16
6.31725677562969e+16
6.302909695526e+16
6.28822392996234e+16
6.27319853041053e+16
6.25783253607577e+16
6.24212497432845e+16
6.22607486107341e+16
6.20968120125129e+16
6.19294298928415e+16
6.17585920950518e+16
6.15842883665888e+16
6.14065083640382e+16
6.12252416577581e+16
6.10404777369996e+16
6.08522060154844e+16
6.06604158360515e+16
6.04650964763767e+16
6.02662371546305e+16
6.00638270344955e+16
5.98578552311408e+16
5.96483108170994e+16
5.9435182827559e+16
5.92184602666086e+16
5.89981321132936e+16
5.87741873271605e+16
5.85466148546307e+16
5.83154036353255e+16
5.80805426077428e+16
5.78420207158084e+16
5.75998269153126e+16
5.73539501796841e+16
5.71043795067665e+16
5.68511039251711e+16
5.65941125003656e+16
5.63333943411768e+16
5.60689386064663e+16
5.58007345111435e+16
5.55287713326095e+16
5.52530384174807e+16
5.49735251873629e+16
5.46902211456821e+16
5.44031158842342e+16
5.41121990884158e+16
5.38174605424406e+16
5.35188901362183e+16
5.32164778805171e+16
5.29102139195204e+16
5.26000884924778e+16
5.22860918603654e+16
5.19682144506937e+16
5.16464474203242e+16
5.13207826308919e+16
5.09912095551936e+16
5.06577118736282e+16
5.03202792786939e+16
4.99789369100225e+16
4.96336774400514e+16
4.92844528454338e+16
4.89312580651042e+16
4.85740824546919e+16
4.8212914385046e+16
4.7847742375608e+16
4.74785551701251e+16
4.71053417837716e+16
4.67280915151552e+16
4.6346793949853e+16
4.59614389612353e+16
4.55720167110641e+16
4.51785176505081e+16
4.47809325206126e+16
4.43792523531662e+16
4.39734684721832e+16
4.35635724950447e+16
4.31495563341583e+16
4.27314121993834e+16
4.23091326002043e+16
4.18827103489961e+16
4.14521385648518e+16
4.10174106778833e+16
4.05785204347043e+16
4.01354619051598e+16
3.96882294899146e+16
3.92368179298698e+16
3.87812223176174e+16
3.8321438110508e+16
3.78574611468188e+16
3.73892876648711e+16
3.69169143255218e+16
3.64403382391998e+16
3.59595569981036e+16
3.54745687141305e+16
3.4985372064279e+16
3.44919663445833e+16
3.39943515339575e+16
3.34925283703761e+16
3.29864984415849e+16
3.24762642925603e+16
3.19618295541065e+16
3.14431990968549e+16
3.09203792104268e+16
3.03933778320775e+16
2.98622047827949e+16
2.9326872145031e+16
2.87873944825678e+16
2.82437896291707e+16
2.76960786302365e+16
2.71442873179369e+16
2.65884457830434e+16
2.60285914668429e+16
2.54647670767169e+16
2.48970236177192e+16
2.43254352652067e+16
2.37500417800203e+16
2.31710112845438e+16
2.25882989711728e+16
2.20023552462854e+16
2.14125899348206e+16
2.08208667180555e+16
2.02242881190724e+16
1.96283739772464e+16
1.90246918584593e+16
1.84252503106542e+16
1.78380066326446e+16
1.72426647885967e+16
1.66436477914785e+16
1.60457639240547e+16
1.54491696375752e+16
1.48663350739317e+16
1.42832815227661e+16
1.3721116148791e+16
1.31643183343529e+16
1.25826209270557e+16
1.20374512031245e+16
1.15272431332166e+16
1.09931086883676e+16
1.04839217764473e+16
1.00281404866064e+16
9.55042994802932e+15
9.10337942984564e+15
8.71953896958562e+15
8.30058791755474e+15
7.93517551367048e+15
7.61971349212338e+15
7.28025697616009e+15
6.97916389529744e+15
6.7378028185565e+15
6.47689773186627e+15
6.24423105051842e+15
6.04073519766115e+15
5.88977802221264e+15
5.69255101293358e+15
5.54569065342794e+15
5.40321236630122e+15
5.31696468317552e+15
5.22404686006444e+15
5.15375447006927e+15
5.09468141953291e+15
5.0940139387659e+15
5.10526631009777e+15
5.14192319804133e+15
5.14169783164636e+15
5.12554881012399e+15
5.08938408807495e+15
5.04155610457792e+15
4.99135898371014e+15
4.94199586404096e+15
4.89569472337938e+15
4.85332802409538e+15
4.8156545537225e+15
4.76608625005834e+15
4.7129611148843e+15
4.66393520296994e+15
4.61971352527234e+15
4.5790314458984e+15
4.54259882052213e+15
4.50914718418643e+15
4.47944574512262e+15
4.45224009315657e+15
4.42832986621914e+15
4.40649550574095e+15
4.3876079866006e+15
4.35586208390616e+15
4.32550793025244e+15
4.29619795142543e+15
4.2697582920611e+15
4.24404898040926e+15
4.22097070191015e+15
4.19837031230985e+15
4.17821256816524e+15
4.1583198961561e+15
4.14071689456769e+15
4.12319553889279e+15
4.10783940488544e+15
4.09240864289692e+15
4.07904536812995e+15
4.06547974255964e+15
4.05390827459638e+15
4.03913723428652e+15
4.01853606050686e+15
3.99771801134374e+15
3.97868549528196e+15
3.95934149097475e+15
3.94172402108708e+15
3.92371428969044e+15
3.9073847175306e+15
3.89059415194029e+15
3.87544467194847e+15
3.85977617874127e+15
3.84571537075901e+15
3.83108640434424e+15
3.81803725476733e+15
3.80437546106695e+15
3.79227731485783e+15
3.77952216530219e+15
3.76832801081133e+15
3.7564232482954e+15
3.74609665561514e+15
3.73498884736023e+15
3.7255005241269e+15
3.71513846607659e+15
3.70646150749606e+15
3.6913096137764e+15
3.67664603452999e+15
3.66082102911921e+15
3.64695597327527e+15
3.63183435208993e+15
3.61872650242298e+15
3.6042608699827e+15
3.59187610159991e+15
3.57802267071849e+15
3.5663198071382e+15
3.55304490683546e+15
3.54198725841264e+15
3.5292565432638e+15
3.51881949991695e+15
3.50660350156361e+15
3.49675969045106e+15
3.48503754102563e+15
3.47576359701459e+15
3.46450847728832e+15
3.45577929854706e+15
3.44495689970666e+15
3.43674673458074e+15
3.42633408696605e+15
3.41862655924694e+15
3.4086031522413e+15
3.40137982355471e+15
3.39171049539153e+15
3.38493940697086e+15
3.37560696765107e+15
3.36926195360157e+15
3.36021807786371e+15
3.35426647588709e+15
3.34544757062291e+15
3.33895376196925e+15
3.32110364999399e+15
)
;

boundaryField
{
    electrode
    {
        type            driftDiffusionPositiveIonDensity;
        seec            0;
        fieldName       Arp1;
        value           uniform 6.60415455516427e+16;
    }
    ground
    {
        type            driftDiffusionPositiveIonDensity;
        seec            0;
        fieldName       Arp1;
        value           uniform 3.32110364999399e+15;
    }
    otherfaces
    {
        type            empty;
    }
}


// ************************************************************************* //
