/*--------------------------------*- C++ -*----------------------------------*\
| =========                 |                                                 |
| \\      /  F ield         | foam-extend: Open Source CFD                    |
|  \\    /   O peration     | Version:     4.0                                |
|   \\  /    A nd           | Web:         http://www.foam-extend.org         |
|    \\/     M anipulation  |                                                 |
\*---------------------------------------------------------------------------*/
FoamFile
{
    version     2.0;
    format      ascii;
    class       volScalarField;
    location    "7.9e-06";
    object      electron;
}
// * * * * * * * * * * * * * * * * * * * * * * * * * * * * * * * * * * * * * //

dimensions      [0 0 0 1 0 0 0];

internalField   nonuniform List<scalar> 
300
(
6.62362991795243e+16
6.62345360496434e+16
6.62299851484394e+16
6.62222564134795e+16
6.6211411220818e+16
6.61974252920918e+16
6.61802929033362e+16
6.61600133607351e+16
6.61365834215967e+16
6.61100003007624e+16
6.6080261016561e+16
6.60473623377782e+16
6.60113008480644e+16
6.59720729258166e+16
6.59296747464844e+16
6.58841022842588e+16
6.58353513123275e+16
6.5783417403835e+16
6.57282959328218e+16
6.56699820752391e+16
6.5608470810069e+16
6.5543756920517e+16
6.5475834995301e+16
6.54046994300289e+16
6.53303444286649e+16
6.52527640050936e+16
6.51719519847707e+16
6.50879020064704e+16
6.5000607524134e+16
6.49100618088098e+16
6.48162579506979e+16
6.47191888612908e+16
6.46188472756154e+16
6.45152257545808e+16
6.44083166874208e+16
6.42981122942542e+16
6.41846046287394e+16
6.40677855808373e+16
6.39476468796867e+16
6.38241800965805e+16
6.3697376648057e+16
6.35672277990934e+16
6.34337246664063e+16
6.3296858221868e+16
6.31566192960294e+16
6.30129985817477e+16
6.28659866379284e+16
6.27155738933743e+16
6.25617506507341e+16
6.24045070905681e+16
6.22438332755154e+16
6.20797191545609e+16
6.19121545674082e+16
6.17411292489553e+16
6.15666328338651e+16
6.13886548612332e+16
6.12071847793557e+16
6.1022211950581e+16
6.08337256562544e+16
6.06417151017503e+16
6.04461694215797e+16
6.02470776845829e+16
6.00444288991944e+16
5.9838212018777e+16
5.96284159470231e+16
5.94150295434169e+16
5.9198041628751e+16
5.89774409906941e+16
5.87532163894015e+16
5.85253565631642e+16
5.82938502340958e+16
5.80586861138377e+16
5.78198529092844e+16
5.75773393283183e+16
5.73311340855556e+16
5.70812259080791e+16
5.68276035411565e+16
5.6570255753945e+16
5.63091713451598e+16
5.60443391486986e+16
5.5775748039226e+16
5.55033869376866e+16
5.52272448167503e+16
5.49473107061783e+16
5.46635736980906e+16
5.43760229521235e+16
5.40846477004684e+16
5.37894372528096e+16
5.34903810011212e+16
5.3187468424168e+16
5.28806890915744e+16
5.25700326681321e+16
5.22554889197435e+16
5.19370477189301e+16
5.16146990403225e+16
5.12884329456522e+16
5.09582396077052e+16
5.06241094321658e+16
5.02860330789406e+16
4.99440008067235e+16
4.95980013950371e+16
4.92480220826146e+16
4.88940495473195e+16
4.85360705329479e+16
4.81740719610584e+16
4.78080409553519e+16
4.7437964844253e+16
4.70638311570651e+16
4.66856276182797e+16
4.63033421410538e+16
4.59169628200547e+16
4.55264779236748e+16
4.51318758855787e+16
4.47331452955306e+16
4.43302748894531e+16
4.39232535386465e+16
4.35120702381015e+16
4.30967140938271e+16
4.26771743091094e+16
4.22534401696199e+16
4.18255010272631e+16
4.13933462826559e+16
4.09569653661287e+16
4.05163477171065e+16
4.0071482761738e+16
3.96223598886177e+16
3.91689684224198e+16
3.87112975952691e+16
3.82493365156418e+16
3.77830741345649e+16
3.73124992088764e+16
3.68376002612666e+16
3.63583655368081e+16
3.58747829556455e+16
3.53868400614799e+16
3.48945239654618e+16
3.43978212850505e+16
3.38967180773714e+16
3.33911997665484e+16
3.28812510644482e+16
3.23668558842229e+16
3.18479972459828e+16
3.13246571738861e+16
3.07968165838925e+16
3.02644551613455e+16
2.9727551227603e+16
2.91860815947111e+16
2.86400214076153e+16
2.80893439724568e+16
2.7534020570936e+16
2.69740202598313e+16
2.64093096557572e+16
2.58398527027826e+16
2.5265610427641e+16
2.4686540696573e+16
2.41025978982927e+16
2.35137327664838e+16
2.29198919800283e+16
2.23210180911466e+16
2.17170487086127e+16
2.11079177030695e+16
2.04935511598356e+16
1.9873869704175e+16
1.92487811971933e+16
1.86181785514282e+16
1.79819051652852e+16
1.73395838190504e+16
1.66906184077816e+16
1.60344560468093e+16
1.53706822295275e+16
1.46989426165881e+16
1.40188445177161e+16
1.33299456605722e+16
1.26318308558428e+16
1.19242228131875e+16
1.12073835711588e+16
1.04822824811585e+16
9.75025434215685e+15
9.01321400690157e+15
8.2741400815809e+15
7.53687384632806e+15
6.80609259114652e+15
6.08750023972625e+15
5.38756471861191e+15
4.71332046178155e+15
4.07217149593274e+15
3.47121999081698e+15
2.91680349734732e+15
2.41418274863146e+15
1.96695297355392e+15
1.57676240820962e+15
1.24332930595409e+15
964473303522639
736335317097782
553739669163430
410593432336120
300812968935591
218199260653092
156958647734719
111440901120272
77117341794016.3
52227047644985.8
34517384252704.2
21840025379452.8
13264754042683.8
7931190901121.75
4869218196133.57
3193600603273.37
2283706285063.76
1780060263737.18
1493488305975.2
1326698387447.02
1228468408272.73
1170924642367.11
1138287479967.22
1121070224296
1113245314784.54
1110845498991.81
1111253148370.85
1113005280771.37
1114928708441.11
1116152200474.27
1116290222596.28
1114980039759.77
1112016899523.6
1107302279878.82
1100813519336.99
1092581015160.99
1082672607150.22
1071182783388.12
1058224570566.62
1043923257502.25
1028411462170.33
1011825231513.75
994300961357.688
975972943101.532
956971513401.344
937421083215.672
917439730929.864
897128633967.362
876579016656.807
855886008626.028
835141583762.874
814430678771.384
793830136172.607
773408212925.256
753224876581.163
733332193906.535
713774803476.278
694590418495.729
675810347158.352
657460024511.184
639559534414.466
622124243837.998
605165315663.316
588691894481.243
572706776940.475
557206221558.355
542188855009.685
527652407629.163
513590473058.404
499995123462.392
486857186714.666
474166547357.586
461912299345.932
450083104073.302
438667527963.445
427654000285.623
417030707591.065
406785528614.724
396905817257.068
387375489205.996
378169646019.285
369268044849.606
360660816731.425
352339130753.296
344295222769.72
336521888582.855
329012548738.51
321761298239.292
314762953472.345
308013169817.165
301507592157.86
295241907877.295
289191747767.504
283326224558.434
277642992924.78
272156420965.312
266883124754.636
261839696843.605
256991057219.141
252319180876.411
247880952675.113
243701253965.918
239801527069.482
236273578788.654
233251989986.339
231013342065.164
230056960990.863
231217488252.662
)
;

boundaryField
{
    electrode
    {
        type            driftDiffusionElectronDensity;
        seec            0.05;
        Edepend         1;
        field_emission  0;
        field_enhancement_factor 55;
        work_function   5;
        value           uniform 6.62362991795243e+16;
    }
    ground
    {
        type            driftDiffusionElectronDensity;
        seec            0.05;
        Edepend         1;
        field_emission  0;
        field_enhancement_factor 55;
        work_function   5;
        value           uniform 233458884409.262;
    }
    otherfaces
    {
        type            empty;
    }
}


// ************************************************************************* //
