/*--------------------------------*- C++ -*----------------------------------*\
| =========                 |                                                 |
| \\      /  F ield         | foam-extend: Open Source CFD                    |
|  \\    /   O peration     | Version:     4.0                                |
|   \\  /    A nd           | Web:         http://www.foam-extend.org         |
|    \\/     M anipulation  |                                                 |
\*---------------------------------------------------------------------------*/
FoamFile
{
    version     2.0;
    format      ascii;
    class       volVectorField;
    location    "7.9e-06";
    object      J_Arp1;
}
// * * * * * * * * * * * * * * * * * * * * * * * * * * * * * * * * * * * * * //

dimensions      [1 -1 -1 0 0 0 0];

internalField   nonuniform List<vector> 
300
(
(2.02977663224892e+16 -0 -0)
(7.26489923250699e+16 -0 -0)
(1.29581112087207e+17 -0 -0)
(1.80221517856585e+17 -0 -0)
(2.31561481672416e+17 -0 -0)
(2.83214419658818e+17 -0 -0)
(3.34733609503033e+17 -0 -0)
(3.86311572655326e+17 -0 -0)
(4.37919548129951e+17 -0 -0)
(4.89556980430761e+17 -0 -0)
(5.41231379676222e+17 -0 -0)
(5.92945047332098e+17 -0 -0)
(6.44701474863435e+17 -0 -0)
(6.96504128762921e+17 -0 -0)
(7.48356358520696e+17 -0 -0)
(8.00261526854751e+17 -0 -0)
(8.52222968713335e+17 -0 -0)
(9.0424399306082e+17 -0 -0)
(9.5632788396447e+17 -0 -0)
(1.00847789745645e+18 -0 -0)
(1.06069726058007e+18 -0 -0)
(1.11298916998609e+18 -0 -0)
(1.16535678996543e+18 -0 -0)
(1.21780325128659e+18 -0 -0)
(1.2703316492561e+18 -0 -0)
(1.32294504217641e+18 -0 -0)
(1.37564644988766e+18 -0 -0)
(1.42843885171011e+18 -0 -0)
(1.48132518493677e+18 -0 -0)
(1.5343083430776e+18 -0 -0)
(1.58739117377109e+18 -0 -0)
(1.64057647747045e+18 -0 -0)
(1.69386700505867e+18 -0 -0)
(1.74726545638677e+18 -0 -0)
(1.80077447826172e+18 -0 -0)
(1.85439666213771e+18 -0 -0)
(1.90813454292223e+18 -0 -0)
(1.96199059618378e+18 -0 -0)
(2.01596723675664e+18 -0 -0)
(2.07006681631421e+18 -0 -0)
(2.12429162146892e+18 -0 -0)
(2.17864387186411e+18 -0 -0)
(2.23312571793862e+18 -0 -0)
(2.28773923876002e+18 -0 -0)
(2.3424864400639e+18 -0 -0)
(2.39736925214582e+18 -0 -0)
(2.4523895274802e+18 -0 -0)
(2.50754903891323e+18 -0 -0)
(2.56284947744017e+18 -0 -0)
(2.61829244978167e+18 -0 -0)
(2.67387947664295e+18 -0 -0)
(2.7296119903792e+18 -0 -0)
(2.78549133289156e+18 -0 -0)
(2.84151875345606e+18 -0 -0)
(2.89769540678477e+18 -0 -0)
(2.95402235072373e+18 -0 -0)
(3.01050054423228e+18 -0 -0)
(3.06713084547517e+18 -0 -0)
(3.12391400952709e+18 -0 -0)
(3.18085068657515e+18 -0 -0)
(3.23794141991173e+18 -0 -0)
(3.29518664379564e+18 -0 -0)
(3.35258668182927e+18 -0 -0)
(3.41014174476804e+18 -0 -0)
(3.4678519289613e+18 -0 -0)
(3.52571721430231e+18 -0 -0)
(3.58373746268515e+18 -0 -0)
(3.64191241613498e+18 -0 -0)
(3.70024169538502e+18 -0 -0)
(3.75872479793789e+18 -0 -0)
(3.81736109673418e+18 -0 -0)
(3.87614983864904e+18 -0 -0)
(3.93509014305039e+18 -0 -0)
(3.99418100041724e+18 -0 -0)
(4.05342127081328e+18 -0 -0)
(4.11280968308349e+18 -0 -0)
(4.1723448333689e+18 -0 -0)
(4.23202518394218e+18 -0 -0)
(4.29184906237473e+18 -0 -0)
(4.35181466048037e+18 -0 -0)
(4.41192003315486e+18 -0 -0)
(4.47216309807107e+18 -0 -0)
(4.53254163432385e+18 -0 -0)
(4.59305328213287e+18 -0 -0)
(4.653695541947e+18 -0 -0)
(4.71446577442008e+18 -0 -0)
(4.77536119942715e+18 -0 -0)
(4.83637889455271e+18 -0 -0)
(4.89751579461209e+18 -0 -0)
(4.95876869763491e+18 -0 -0)
(5.02013427457604e+18 -0 -0)
(5.08160904503356e+18 -0 -0)
(5.14318929921978e+18 -0 -0)
(5.20487113738919e+18 -0 -0)
(5.26665091469525e+18 -0 -0)
(5.32852556356276e+18 -0 -0)
(5.39049059752609e+18 -0 -0)
(5.45253607871605e+18 -0 -0)
(5.51465248819858e+18 -0 -0)
(5.57685754760173e+18 -0 -0)
(5.63918671823406e+18 -0 -0)
(5.70165140173345e+18 -0 -0)
(5.76424641633792e+18 -0 -0)
(5.82696511324319e+18 -0 -0)
(5.88980065920642e+18 -0 -0)
(5.95274604208916e+18 -0 -0)
(6.01579415081782e+18 -0 -0)
(6.0789377874153e+18 -0 -0)
(6.14216966669634e+18 -0 -0)
(6.20548241424267e+18 -0 -0)
(6.26886856367895e+18 -0 -0)
(6.33232055385866e+18 -0 -0)
(6.39583072597992e+18 -0 -0)
(6.45939132043659e+18 -0 -0)
(6.52299447318192e+18 -0 -0)
(6.58663221263312e+18 -0 -0)
(6.65029645566683e+18 -0 -0)
(6.71397900409743e+18 -0 -0)
(6.77767154045769e+18 -0 -0)
(6.84136562373273e+18 -0 -0)
(6.90505268500737e+18 -0 -0)
(6.96872402282784e+18 -0 -0)
(7.03237079802392e+18 -0 -0)
(7.09598402889659e+18 -0 -0)
(7.15955458519142e+18 -0 -0)
(7.22307318263469e+18 -0 -0)
(7.28653037660549e+18 -0 -0)
(7.34991655550146e+18 -0 -0)
(7.41322193383888e+18 -0 -0)
(7.47643654480295e+18 -0 -0)
(7.53955023232295e+18 -0 -0)
(7.6025526429063e+18 -0 -0)
(7.66543321639496e+18 -0 -0)
(7.72818117691444e+18 -0 -0)
(7.79078552261264e+18 -0 -0)
(7.8532350150322e+18 -0 -0)
(7.91551816796792e+18 -0 -0)
(7.97762323529374e+18 -0 -0)
(8.03953819845811e+18 -0 -0)
(8.10125075293921e+18 -0 -0)
(8.16274829406391e+18 -0 -0)
(8.22401790199155e+18 -0 -0)
(8.28504632621853e+18 -0 -0)
(8.34581996742319e+18 -0 -0)
(8.40632486404832e+18 -0 -0)
(8.46654666357793e+18 -0 -0)
(8.52647063014795e+18 -0 -0)
(8.58608155858981e+18 -0 -0)
(8.64536389163603e+18 -0 -0)
(8.70430146539595e+18 -0 -0)
(8.76287782059889e+18 -0 -0)
(8.82107568853902e+18 -0 -0)
(8.87887785282886e+18 -0 -0)
(8.93626577305119e+18 -0 -0)
(8.99321956943447e+18 -0 -0)
(9.04972652486348e+18 -0 -0)
(9.1057484242963e+18 -0 -0)
(9.16130261820798e+18 -0 -0)
(9.21629352847551e+18 -0 -0)
(9.27086478923088e+18 -0 -0)
(9.32458981571838e+18 -0 -0)
(9.3783724460049e+18 -0 -0)
(9.43056061579828e+18 -0 -0)
(9.48401315265419e+18 -0 -0)
(9.53399188453264e+18 -0 -0)
(9.58686060948569e+18 -0 -0)
(9.63700713903393e+18 -0 -0)
(9.68705643302878e+18 -0 -0)
(9.7363685463365e+18 -0 -0)
(9.78535675431994e+18 -0 -0)
(9.83251568394159e+18 -0 -0)
(9.88182198723779e+18 -0 -0)
(9.92543667030274e+18 -0 -0)
(9.97567426261106e+18 -0 -0)
(1.00177744891389e+19 -0 -0)
(1.00615449964368e+19 -0 -0)
(1.0106492484578e+19 -0 -0)
(1.01494433467976e+19 -0 -0)
(1.01861649795918e+19 -0 -0)
(1.02292561744099e+19 -0 -0)
(1.02683740233545e+19 -0 -0)
(1.03000338710081e+19 -0 -0)
(1.03388261907323e+19 -0 -0)
(1.03735990956451e+19 -0 -0)
(1.0397175135056e+19 -0 -0)
(1.04369879312818e+19 -0 -0)
(1.04574417384459e+19 -0 -0)
(1.04861618817189e+19 -0 -0)
(1.05087921286683e+19 -0 -0)
(1.05395133914326e+19 -0 -0)
(1.05521050877499e+19 -0 -0)
(1.05871535227255e+19 -0 -0)
(1.06004046719181e+19 -0 -0)
(1.06417391430101e+19 -0 -0)
(1.06509139096866e+19 -0 -0)
(1.07099250437316e+19 -0 -0)
(1.07273931555851e+19 -0 -0)
(1.08125858711752e+19 -0 -0)
(1.08597886961223e+19 -0 -0)
(1.10051011134481e+19 -0 -0)
(1.11455078230484e+19 -0 -0)
(1.13907904510673e+19 -0 -0)
(1.16456690258021e+19 -0 -0)
(1.19430542015055e+19 -0 -0)
(1.2137548520442e+19 -0 -0)
(1.23544692198047e+19 -0 -0)
(1.25143075345924e+19 -0 -0)
(1.26260731452038e+19 -0 -0)
(1.27123013004652e+19 -0 -0)
(1.27818074829854e+19 -0 -0)
(1.2841418580774e+19 -0 -0)
(1.2894659252798e+19 -0 -0)
(1.29449369673332e+19 -0 -0)
(1.29912257967875e+19 -0 -0)
(1.30383746211822e+19 -0 -0)
(1.30834473706262e+19 -0 -0)
(1.31296890197495e+19 -0 -0)
(1.31745905804217e+19 -0 -0)
(1.32211209952449e+19 -0 -0)
(1.32664387296067e+19 -0 -0)
(1.33135266361903e+19 -0 -0)
(1.3359320512629e+19 -0 -0)
(1.34067748775268e+19 -0 -0)
(1.34527121678022e+19 -0 -0)
(1.35003433990095e+19 -0 -0)
(1.3545405130582e+19 -0 -0)
(1.35932734904729e+19 -0 -0)
(1.36377290672823e+19 -0 -0)
(1.36849721699015e+19 -0 -0)
(1.37285529601319e+19 -0 -0)
(1.37749323151348e+19 -0 -0)
(1.38174231108137e+19 -0 -0)
(1.38627454179132e+19 -0 -0)
(1.3903958578224e+19 -0 -0)
(1.39480389601082e+19 -0 -0)
(1.39877880524431e+19 -0 -0)
(1.40304431648874e+19 -0 -0)
(1.40685564076573e+19 -0 -0)
(1.41096299930069e+19 -0 -0)
(1.41459847117716e+19 -0 -0)
(1.41853989207336e+19 -0 -0)
(1.42198796411038e+19 -0 -0)
(1.42574011746358e+19 -0 -0)
(1.42903642106245e+19 -0 -0)
(1.43261111126837e+19 -0 -0)
(1.43572620847903e+19 -0 -0)
(1.43913162699686e+19 -0 -0)
(1.44206906722659e+19 -0 -0)
(1.44530960023584e+19 -0 -0)
(1.44807497340231e+19 -0 -0)
(1.4511557283931e+19 -0 -0)
(1.45375543765586e+19 -0 -0)
(1.45668220314688e+19 -0 -0)
(1.45912312189812e+19 -0 -0)
(1.46190249038964e+19 -0 -0)
(1.46419106719173e+19 -0 -0)
(1.46683191160813e+19 -0 -0)
(1.46897542929363e+19 -0 -0)
(1.47148852624111e+19 -0 -0)
(1.47349270106772e+19 -0 -0)
(1.47589004004497e+19 -0 -0)
(1.47775880479181e+19 -0 -0)
(1.48005262293484e+19 -0 -0)
(1.48178817785241e+19 -0 -0)
(1.48399296983499e+19 -0 -0)
(1.48558229847093e+19 -0 -0)
(1.48773023008141e+19 -0 -0)
(1.48920186245822e+19 -0 -0)
(1.49127100571054e+19 -0 -0)
(1.49263160588242e+19 -0 -0)
(1.49463030510605e+19 -0 -0)
(1.49588329676153e+19 -0 -0)
(1.49781983073353e+19 -0 -0)
(1.49896807893399e+19 -0 -0)
(1.50084587621721e+19 -0 -0)
(1.50189460597735e+19 -0 -0)
(1.50371719456449e+19 -0 -0)
(1.50466970967813e+19 -0 -0)
(1.5064441574991e+19 -0 -0)
(1.50730438054216e+19 -0 -0)
(1.50903520635476e+19 -0 -0)
(1.50980944662503e+19 -0 -0)
(1.51150164507525e+19 -0 -0)
(1.51219247731621e+19 -0 -0)
(1.51384910995915e+19 -0 -0)
(1.51445466210768e+19 -0 -0)
(1.51607734640841e+19 -0 -0)
(1.5165995993333e+19 -0 -0)
(1.51819308108695e+19 -0 -0)
(1.51863418420245e+19 -0 -0)
(1.52020142357023e+19 -0 -0)
(1.52055609599996e+19 -0 -0)
(1.52209305952312e+19 -0 -0)
(1.52236312685052e+19 -0 -0)
(1.52386751111411e+19 -0 -0)
(1.52403993352859e+19 -0 -0)
(1.52550558207962e+19 -0 -0)
(1.52555986225948e+19 -0 -0)
(1.52695862325465e+19 -0 -0)
(1.52461712110944e+19 -0 -0)
)
;

boundaryField
{
    electrode
    {
        type            calculated;
        value           uniform (-14166292923.6647 -0 -0);
    }
    ground
    {
        type            calculated;
        value           uniform (1.52749184959168e+19 -0 -0);
    }
    otherfaces
    {
        type            empty;
    }
}


// ************************************************************************* //
