/*--------------------------------*- C++ -*----------------------------------*\
| =========                 |                                                 |
| \\      /  F ield         | foam-extend: Open Source CFD                    |
|  \\    /   O peration     | Version:     4.0                                |
|   \\  /    A nd           | Web:         http://www.foam-extend.org         |
|    \\/     M anipulation  |                                                 |
\*---------------------------------------------------------------------------*/
FoamFile
{
    version     2.0;
    format      ascii;
    class       volScalarField;
    location    "7.9e-06";
    object      N_electronMean;
}
// * * * * * * * * * * * * * * * * * * * * * * * * * * * * * * * * * * * * * //

dimensions      [0 0 0 1 0 0 0];

internalField   nonuniform List<scalar> 
300
(
6.1382978235936e+16
6.13814543843534e+16
6.13773055577382e+16
6.1370078084143e+16
6.1359813770597e+16
6.13464789600845e+16
6.13300564963201e+16
6.13105373557862e+16
6.12879124602687e+16
6.1262175028218e+16
6.1233319959499e+16
6.12013436456494e+16
6.11662438782233e+16
6.11280197173276e+16
6.10866714063816e+16
6.10422002871026e+16
6.09946087267172e+16
6.09439000555584e+16
6.08900785063507e+16
6.08331491567229e+16
6.07731178783592e+16
6.07099912888337e+16
6.06437767051367e+16
6.05744820960822e+16
6.05021160474827e+16
6.04266877347606e+16
6.03482068730859e+16
6.02666836677805e+16
6.01821287738048e+16
6.00945532412696e+16
6.0003968480056e+16
5.99103862500284e+16
5.98138186114107e+16
5.97142778451758e+16
5.96117763957446e+16
5.9506326825053e+16
5.93979417673532e+16
5.928663388778e+16
5.91724158370943e+16
5.90553002057571e+16
5.89352994862035e+16
5.88124260344584e+16
5.86866920245826e+16
5.85581094070559e+16
5.84266898728502e+16
5.82924448184597e+16
5.81553853133645e+16
5.80155220710901e+16
5.78728654269796e+16
5.77274253224367e+16
5.75792113048396e+16
5.74282325282121e+16
5.72744977290806e+16
5.71180151814323e+16
5.69587926321801e+16
5.67968372347926e+16
5.66321554924878e+16
5.64647532138045e+16
5.62946354787298e+16
5.61218066059392e+16
5.59462701234661e+16
5.57680287415426e+16
5.5587084322456e+16
5.54034378742823e+16
5.52170895733897e+16
5.50280387360395e+16
5.48362837422606e+16
5.46418219908135e+16
5.44446498779471e+16
5.4244762775999e+16
5.4042155011907e+16
5.38368198583583e+16
5.36287495488178e+16
5.3417935267016e+16
5.32043671070042e+16
5.29880340762943e+16
5.27689241150892e+16
5.25470240771901e+16
5.23223196746799e+16
5.20947954443678e+16
5.18644347450292e+16
5.16312197002448e+16
5.13951311435034e+16
5.1156148600958e+16
5.0914250285005e+16
5.06694131060052e+16
5.04216126486135e+16
5.0170823119311e+16
4.9917017324839e+16
4.96601666730211e+16
4.94002411540167e+16
4.91372093558023e+16
4.88710384891825e+16
4.8601694322855e+16
4.83291411225949e+16
4.8053341638541e+16
4.77742570921247e+16
4.74918471631316e+16
4.72060699762337e+16
4.69168820995748e+16
4.66242385516064e+16
4.63280927957641e+16
4.60283967580029e+16
4.5725100854361e+16
4.54181539642483e+16
4.51075034146178e+16
4.4793094983714e+16
4.44748728939799e+16
4.41527798200764e+16
4.38267568737524e+16
4.34967435804337e+16
4.31626778765865e+16
4.28244961170821e+16
4.24821330978699e+16
4.21355220640632e+16
4.17845947181898e+16
4.14292812706889e+16
4.10695104651015e+16
4.07052095483615e+16
4.03363042491449e+16
3.99627188062534e+16
3.95843760135449e+16
3.92011972576224e+16
3.88131025642756e+16
3.84200105929348e+16
3.80218385945988e+16
3.76185024255962e+16
3.72099165843431e+16
3.67959942156849e+16
3.63766471240796e+16
3.59517858105731e+16
3.55213195087418e+16
3.50851562115687e+16
3.46432026957935e+16
3.41953646013964e+16
3.3741546526205e+16
3.32816520317601e+16
3.28155836098492e+16
3.23432426935008e+16
3.18645296988919e+16
3.13793440398214e+16
3.08875841359319e+16
3.03891474388e+16
2.98839304687517e+16
2.93718289015733e+16
2.88527376413603e+16
2.83265508129209e+16
2.77931617388818e+16
2.72524629127715e+16
2.67043460282279e+16
2.61487020671605e+16
2.55854213112901e+16
2.50143933661868e+16
2.443550724668e+16
2.38486513801464e+16
2.32537137088086e+16
2.26505818195106e+16
2.20391431961878e+16
2.14192851497864e+16
2.07908944734702e+16
2.01538550091989e+16
1.95080344678671e+16
1.88532647590032e+16
1.81893338439315e+16
1.75159850755472e+16
1.68329060512203e+16
1.61397278424935e+16
1.54360667327977e+16
1.4721567559659e+16
1.3995916636343e+16
1.32588702536023e+16
1.25103442892159e+16
1.17505540940338e+16
1.09801782418329e+16
1.02005952240309e+16
9.41411239216029e+15
8.62406365225082e+15
7.83495267078519e+15
7.0526125809373e+15
6.28410064073157e+15
5.53742765993228e+15
4.8212444238028e+15
4.14428067342294e+15
3.51464628777416e+15
2.93921393014619e+15
2.4230051451042e+15
1.96874635604873e+15
1.57676227631791e+15
1.24508738770161e+15
969798001564492
745541372921912
566114594649481
424999183316092
315817760082108
232318587425294
169180071736891
122043692760309
87215098261160.3
61637697878927
42814081626440.5
29222162382477.9
19661590784538.9
12986755939824.2
8468655551575.62
5595429178179.45
3884991276239.02
2913236326833.69
2367733412897.3
2055561654728.63
1870172539706.77
1755258520982.86
1680884845030.17
1630516222818.83
1594669341128.18
1567663989753.88
1545942565810.69
1527172459018.07
1509798361117.69
1492851594682.63
1475724801183.47
1457967792639.01
1439281151227.53
1419520674883.47
1398616554288.7
1376569705650.32
1353426288075.53
1329264387189.69
1304182259706.8
1278290713828.6
1251707459433.23
1224552877831.7
1196947412459.54
1169008542568.99
1140849267605.48
1112576999753
1084292292256.93
1056088129446.03
1028049997007.77
1000255043995.69
972771811156.452
945659373816.449
918968886054.067
892746577212.787
867033356078.51
841864455490.139
817269208087.657
793270461130.056
769885528114.119
747126730595.849
725002075822.066
703516604084.599
682672265036.101
662467743061.206
642898756817.692
623958685685.436
605640007784.467
587931965366.863
570819629042.274
554289232819.795
538328030041.3
522921669672.3
508054575530.463
493710735958.925
479873724277.967
466527015449.169
453654292399.893
441238591950.486
429262708898.474
417709861167.859
406563261077.931
395805720604.126
385419517503.006
375388369169.686
365699453564.814
356341717967.019
347304926149.087
338579499323.353
330156401560.565
322027355059.164
314184877476.499
306622184732.929
299332558943.007
292308616981.502
285533462100.906
278980652897.247
272638209638.63
266512544905.96
260613954862.071
254953513934.329
249521942099.045
244293610606.458
239278140621.389
234519380498.798
230020423775.776
225808691629.291
221966783497.251
218619827522.788
216026171978.633
214611032753.827
215131481617.657
)
;

boundaryField
{
    electrode
    {
        type            calculated;
        value           uniform 6.13829782360862e+16;
    }
    ground
    {
        type            calculated;
        value           uniform 216900935308.822;
    }
    otherfaces
    {
        type            empty;
    }
}


// ************************************************************************* //
