/*--------------------------------*- C++ -*----------------------------------*\
| =========                 |                                                 |
| \\      /  F ield         | foam-extend: Open Source CFD                    |
|  \\    /   O peration     | Version:     4.0                                |
|   \\  /    A nd           | Web:         http://www.foam-extend.org         |
|    \\/     M anipulation  |                                                 |
\*---------------------------------------------------------------------------*/
FoamFile
{
    version     2.0;
    format      ascii;
    class       volScalarField;
    location    "7.9e-06";
    object      Phi;
}
// * * * * * * * * * * * * * * * * * * * * * * * * * * * * * * * * * * * * * //

dimensions      [0 0 0 1 0 0 0];

internalField   nonuniform List<scalar> 
300
(
699.999928367929
699.999709608977
699.999195231773
699.998418011382
699.997386315375
699.996094760514
699.994544216024
699.992734248347
699.990664291802
699.988333854113
699.985742346467
699.982889127858
699.979773502778
699.976394717933
699.972751963106
699.968844370577
699.964671014672
699.96023091135
699.955523017724
699.950546231565
699.945299390771
699.939781272812
699.933990594145
699.927926009595
699.921586111705
699.914969430059
699.908074430571
699.900899514733
699.893443018843
699.885703213181
699.877678301169
699.869366418475
699.86076563209
699.851873939366
699.842689267008
699.833209470031
699.823432330669
699.813355557244
699.802976782987
699.792293564814
699.781303382053
699.770003635118
699.758391644132
699.746464647503
699.734219800431
699.721654173366
699.708764750406
699.695548427628
699.682002011353
699.66812221635
699.653905663962
699.639348880161
699.62444829353
699.609200233156
699.593600926452
699.577646496878
699.561332961583
699.544656228945
699.527612096015
699.510196245852
699.492404244757
699.474231539389
699.455673453757
699.436725186098
699.417381805613
699.397638249074
699.377489317282
699.356929671376
699.335953828981
699.314556160193
699.292730883384
699.27047206083
699.247773594133
699.224629219455
699.201032502522
699.176976833416
699.152455421114
699.127461287792
699.101987262851
699.076025976673
699.049569854077
699.022611107468
698.995141729652
698.967153486312
698.938637908112
698.909586282409
698.879989644562
698.849838768802
698.819124158652
698.787836036851
698.755964334691
698.723498680779
698.690428389538
698.656742449615
698.622429510454
698.58747786419
698.551875428129
698.515609749589
698.478668029971
698.441037048147
698.402702894185
698.363650929444
698.323866003881
698.283332471765
698.242034163995
698.199954363536
698.157075778988
698.113380516446
698.068850049648
698.023465188267
697.977206044218
697.930051995806
697.881981649572
697.832972799626
697.783002384292
697.732046439828
697.680080050987
697.627077298158
697.573011200789
697.517853656774
697.461575377465
697.4041458179
697.345533101829
697.285703941068
697.224623548644
697.162255545155
697.098561857694
697.03350261062
696.967036007354
696.899118202332
696.829703162078
696.758742514286
696.68618538365
696.611978213005
696.53606456819
696.458384924804
696.378876434831
696.297472670781
696.214103344735
696.128693999267
696.041165666815
695.951434493588
695.859411323492
695.765001236898
695.668103038317
695.568608686024
695.466402655774
695.361361229076
695.253351695875
695.142231457466
695.027847017928
694.910032842027
694.788610065592
694.663385022964
694.53414758694
694.4006692517
694.262700906239
694.119970490003
693.972179693452
693.81900133832
693.66007400682
693.495001147703
693.323335811716
693.1445932556
692.958208798512
692.763587982798
692.559962725363
692.346304089122
692.121524495296
691.884452392677
691.633752593636
691.367872549889
691.084899197941
690.782653552596
690.458467871392
690.109400014582
689.732566132695
689.324374736354
688.880538520689
688.396877294712
687.86873195899
687.290634325523
686.657401943255
685.963541813329
685.202887731491
684.370171376635
683.459869532385
682.466326331756
681.385140395766
680.212239005036
678.943530975507
677.576367791369
676.108714543646
674.539040056333
672.865823338084
671.08926836809
669.209507983437
667.227137972461
665.142277110704
662.955503630729
660.667113980161
658.277966454524
655.787504906556
653.194977634004
650.499503903781
647.70092510389
644.799462207318
641.795772477818
638.690777585075
635.485468361911
632.180829092523
628.777786566027
625.277190187405
621.679795961248
617.986599719007
614.198669057917
610.316989341811
606.342449452127
602.275867145876
598.11797510766
593.869445907984
589.530876683152
585.102814571551
580.585740251539
575.980092685101
571.286251559174
566.504855042007
561.63651329471
556.681815444427
551.641292881116
546.515462273466
541.304787368103
536.009722270883
530.630671958286
525.168036050039
519.622168117407
513.99342006824
508.282100268263
502.488518570137
496.612943251726
490.655646645026
484.616860995652
478.496882867564
472.296126045361
466.015008671624
459.653912996598
453.213227532
446.69330608606
440.094510354683
433.417168264654
426.661617013913
419.828160818316
412.917114332468
405.928759901574
398.863391297779
391.721270548227
384.502671986558
377.207838554931
369.837026376843
362.390460223334
354.868379152841
347.270990508414
339.598517344965
331.851150169666
324.029097061899
316.132532234408
308.161760086776
300.117075213148
291.99879556274
283.807199690835
275.542591419891
267.205234097592
258.795418370078
250.313393058758
241.759436516912
233.13378386741
224.436701841532
215.668412601851
206.829171949373
197.919189579896
188.938710955987
179.887933856782
170.767093824295
161.576377192315
152.316010123897
142.986168004628
133.587068308049
124.118875994421
114.581800300367
104.975996093669
95.3016647968157
85.5589515424414
75.7480506497453
65.8690981693461
55.9222816507067
45.9077285985198
35.8256207819409
25.6760778479689
15.4592770887649
5.17534843613577
)
;

boundaryField
{
    electrode
    {
        type            fixedValue;
        value           uniform 700;
    }
    ground
    {
        type            fixedValue;
        value           uniform 0;
    }
    otherfaces
    {
        type            empty;
    }
}


// ************************************************************************* //
