/*--------------------------------*- C++ -*----------------------------------*\
| =========                 |                                                 |
| \\      /  F ield         | foam-extend: Open Source CFD                    |
|  \\    /   O peration     | Version:     4.0                                |
|   \\  /    A nd           | Web:         http://www.foam-extend.org         |
|    \\/     M anipulation  |                                                 |
\*---------------------------------------------------------------------------*/
FoamFile
{
    version     2.0;
    format      ascii;
    class       volScalarField;
    location    "7.9e-06";
    object      TeMean;
}
// * * * * * * * * * * * * * * * * * * * * * * * * * * * * * * * * * * * * * //

dimensions      [0 0 0 1 0 0 0];

internalField   nonuniform List<scalar> 
300
(
36191.1012741053
36191.3938796746
36191.5307237314
36191.5478734216
36191.5914674754
36191.6399816405
36191.6963847681
36191.7632962522
36191.8406045749
36191.9288704408
36192.0285537977
36192.1400829162
36192.2638852343
36192.400362291
36192.5499046694
36192.7128908648
36192.8896861078
36193.0806462609
36193.286117454
36193.5064359373
36193.7419303435
36193.9929199984
36194.2597168669
36194.542624979
36194.8419401144
36195.157958729
36195.4909720597
36195.8412639998
36196.2091180764
36196.5948080647
36196.9985969621
36197.4207568706
36197.8615670473
36198.3212980432
36198.800216278
36199.2985808178
36199.8166499104
36200.3546881896
36200.912959658
36201.4917240768
36202.0912386069
36202.7117670351
36203.3535732229
36204.0169188829
36204.7020664845
36205.4092790905
36206.1388200478
36206.8909522992
36207.6659358433
36208.4640277286
36209.2854822925
36210.1305631416
36210.9995499482
36211.8927236881
36212.8103706282
36213.7527872514
36214.7202675377
36215.7131046789
36216.731601679
36217.7760663587
36218.8468102069
36219.9441558469
36221.06841755
36222.2199096529
36223.3989752855
36224.6059744933
36225.8412693651
36227.1052258053
36228.3982167194
36229.7206261606
36231.0728429904
36232.4552539958
36233.8682651261
36235.3122986679
36236.7877761498
36238.2951206073
36239.834779416
36241.4072306683
36243.0129523883
36244.652427692
36246.3261728981
36248.0347213874
36249.7786062244
36251.5583665747
36253.3745560074
36255.2277612446
36257.1185989027
36259.04769351
36261.015679906
36263.0232195493
36265.0709831488
36267.159660563
36269.2900005272
36271.4627617239
36273.678716651
36275.9386801085
36278.2434866131
36280.5939998674
36282.9911081926
36285.4357303272
36287.9288292684
36290.4713801267
36293.0643930316
36295.7089436293
36298.4061420977
36301.1571334094
36303.9631011288
36306.8252752347
36309.7449431992
36312.7234399666
36315.7621528566
36318.8625221546
36322.026038843
36325.2542714311
36328.5488439037
36331.9114362675
36335.3437958678
36338.8477626255
36342.4252734471
36346.0783168656
36349.8089646298
36353.6193926404
36357.5118716309
36361.4887920483
36365.5526758767
36369.7061505789
36373.9519503791
36378.2929605505
36382.7322234502
36387.272916735
36391.9183794762
36396.6721429626
36401.5379386422
36406.5196671111
36411.621439453
36416.847658054
36422.2029982269
36427.6924029224
36433.3211181979
36439.0947288625
36445.019188128
36451.100842406
36457.3464659
36463.7632949769
36470.3591084794
36477.1423076807
36484.1219580056
36491.3078649557
36498.7105993407
36506.3416236361
36514.2134785518
36522.3398368703
36530.7356569746
36539.4174461139
36548.4033394868
36557.7134452262
36567.370071723
36577.3984152959
36587.8270824719
36598.6902544557
36610.0366742465
36621.9285018933
36634.4253992711
36647.5875296221
36661.4947200954
36676.2331666883
36691.868196195
36708.4805374436
36726.2037572855
36745.1836840056
36765.5275986885
36787.3314608811
36810.717012036
36835.7214361832
36862.374330912
36890.9407336293
36921.6480797452
36954.6252230786
36990.4956153135
37030.3299986055
37075.5280230445
37128.7001707731
37194.0429387623
37277.5533219666
37388.623237147
37541.2697518214
37755.5315938721
38061.2098065079
38502.7485491593
39146.5829855938
40094.4738082808
41506.4409376584
43639.6790949451
46983.9142764431
52037.6619902394
59155.6105376736
69492.7598420958
83641.6414947118
102701.140049619
127022.675921907
156699.531806838
191465.885242433
230512.136052496
273095.176875419
318869.678594304
367380.367995969
417697.378127591
468184.317883387
516922.054573698
562329.125794575
603481.06430011
640112.916804004
672400.957202656
700770.89192995
725727.240558282
747752.711967533
767321.78366833
784851.402262187
800678.291069775
815076.714907755
828264.244840634
840420.768275929
851706.333788132
862252.824910787
872168.77905365
881542.52535741
890446.999113497
898942.124898699
907076.976673021
914891.590581228
922418.359556475
929683.169655712
936706.322263428
943503.231080666
950085.084272425
956459.417547705
962630.510832739
968599.773698615
974366.145821708
979926.38566037
985274.560544272
990402.782627309
995302.146586401
999962.444162689
1004372.24658555
1008518.9708056
1012388.8082278
1015967.02770535
1019238.19086617
1022185.94952304
1024793.69080532
1027044.42056965
1028920.43384592
1030403.61684728
1031475.18795164
1032116.13414853
1032301.61771386
1032023.17445109
1031259.37619697
1029988.17636172
1028189.33341116
1025842.53146828
1022927.35941512
1019423.1849506
1015309.1103266
1010564.24399607
1005167.085996
999095.620064067
992328.02766461
984841.960442205
976614.661868586
967622.079319183
957839.385779663
947241.738002369
935802.729591264
923494.270666455
910286.808134353
896149.128541917
881048.19447275
864948.871759065
847813.773130834
829603.083202946
810277.422811243
789793.389770022
768097.063417484
745132.927719624
720839.785539973
695142.474928016
667964.063452607
639218.954173799
608798.903151837
576580.212201096
542426.766882692
506155.173992661
467543.03758882
426310.966034824
382066.64219668
334267.572188516
282122.596828794
224589.043334156
)
;

boundaryField
{
    electrode
    {
        type            calculated;
        value           uniform 36191.1012741068;
    }
    ground
    {
        type            calculated;
        value           uniform 191962.464563033;
    }
    otherfaces
    {
        type            empty;
    }
}


// ************************************************************************* //
