/*--------------------------------*- C++ -*----------------------------------*\
| =========                 |                                                 |
| \\      /  F ield         | foam-extend: Open Source CFD                    |
|  \\    /   O peration     | Version:     4.0                                |
|   \\  /    A nd           | Web:         http://www.foam-extend.org         |
|    \\/     M anipulation  |                                                 |
\*---------------------------------------------------------------------------*/
FoamFile
{
    version     2.0;
    format      ascii;
    class       volScalarField;
    location    "4.2e-06";
    object      Ar;
}
// * * * * * * * * * * * * * * * * * * * * * * * * * * * * * * * * * * * * * //

dimensions      [0 0 0 1 0 0 0];

internalField   nonuniform List<scalar> 
300
(
3.2188034195335e+22
3.21880341537443e+22
3.21880341807843e+22
3.21880341913707e+22
3.21880342094217e+22
3.21880342346478e+22
3.21880342653977e+22
3.21880343022881e+22
3.21880343452022e+22
3.21880343940983e+22
3.21880344489738e+22
3.21880345098095e+22
3.21880345765914e+22
3.21880346493068e+22
3.21880347279437e+22
3.21880348124908e+22
3.21880349029403e+22
3.21880349992805e+22
3.21880351014998e+22
3.21880352095881e+22
3.21880353235359e+22
3.21880354433337e+22
3.21880355689721e+22
3.21880357004422e+22
3.21880358377511e+22
3.21880359808777e+22
3.21880361298149e+22
3.21880362845576e+22
3.21880364450893e+22
3.21880366114025e+22
3.21880367835084e+22
3.21880369613938e+22
3.21880371450389e+22
3.2188037334437e+22
3.21880375295823e+22
3.21880377304698e+22
3.21880379370997e+22
3.21880381494663e+22
3.21880383675643e+22
3.21880385913925e+22
3.21880388209504e+22
3.21880390562368e+22
3.21880392972524e+22
3.21880395439993e+22
3.21880397964806e+22
3.21880400547008e+22
3.21880403186674e+22
3.2188040588389e+22
3.21880408638842e+22
3.21880411451666e+22
3.21880414322621e+22
3.21880417251729e+22
3.21880420239204e+22
3.21880423285042e+22
3.2188042638935e+22
3.21880429552166e+22
3.21880432773675e+22
3.21880436054079e+22
3.21880439393601e+22
3.218804427925e+22
3.21880446251014e+22
3.21880449769419e+22
3.2188045334806e+22
3.21880456987449e+22
3.21880460687893e+22
3.21880464449503e+22
3.21880468272639e+22
3.21880472157684e+22
3.21880476105042e+22
3.21880480115134e+22
3.21880484188424e+22
3.21880488325457e+22
3.21880492526736e+22
3.21880496792697e+22
3.21880501124002e+22
3.21880505521182e+22
3.21880509984736e+22
3.21880514515284e+22
3.21880519113221e+22
3.21880523779465e+22
3.21880528514299e+22
3.21880533318344e+22
3.21880538192292e+22
3.21880543136795e+22
3.2188054815269e+22
3.21880553240602e+22
3.2188055840113e+22
3.21880563635e+22
3.21880568943071e+22
3.21880574326016e+22
3.21880579784657e+22
3.21880585320215e+22
3.21880590932917e+22
3.21880596623531e+22
3.2188060239285e+22
3.21880608241671e+22
3.21880614170798e+22
3.21880620181038e+22
3.21880626273308e+22
3.21880632448414e+22
3.21880638707099e+22
3.21880645050151e+22
3.21880651478687e+22
3.21880657993209e+22
3.21880664594594e+22
3.21880671283714e+22
3.21880678061186e+22
3.21880684927962e+22
3.21880691884682e+22
3.21880698932017e+22
3.21880706070697e+22
3.21880713301437e+22
3.21880720624987e+22
3.21880728042019e+22
3.21880735553179e+22
3.21880743159246e+22
3.21880750860979e+22
3.21880758658675e+22
3.21880766552835e+22
3.2188077454402e+22
3.21880782632937e+22
3.21880790819863e+22
3.21880799105457e+22
3.21880807489944e+22
3.21880815973495e+22
3.21880824556376e+22
3.21880833239066e+22
3.21880842021541e+22
3.21880850904013e+22
3.21880859886556e+22
3.21880868969328e+22
3.21880878152319e+22
3.21880887435475e+22
3.21880896818901e+22
3.21880906302748e+22
3.21880915886533e+22
3.21880925570255e+22
3.21880935352612e+22
3.21880945234256e+22
3.21880955214697e+22
3.21880965293552e+22
3.21880975470434e+22
3.21880985745059e+22
3.21880996117078e+22
3.21881006586006e+22
3.21881017150841e+22
3.21881027810862e+22
3.21881038565284e+22
3.21881049413393e+22
3.21881060354568e+22
3.21881071387445e+22
3.21881082511142e+22
3.21881093724306e+22
3.21881105026727e+22
3.21881116414323e+22
3.21881127889382e+22
3.2188113944725e+22
3.2188115108234e+22
3.21881162812687e+22
3.21881174584767e+22
3.21881186482704e+22
3.21881198419657e+22
3.21881210281161e+22
3.21881222247471e+22
3.21881234332419e+22
3.2188124647357e+22
3.21881258691532e+22
3.21881270871184e+22
3.21881283071352e+22
3.21881295266309e+22
3.2188130738286e+22
3.21881319628976e+22
3.21881332067567e+22
3.21881344036728e+22
3.21881355856478e+22
3.21881368181157e+22
3.21881379933872e+22
3.21881391041397e+22
3.21881402644279e+22
3.21881413559821e+22
3.21881423654009e+22
3.21881433888955e+22
3.21881443396685e+22
3.21881451902289e+22
3.21881460175179e+22
3.21881467736713e+22
3.21881474222276e+22
3.21881480198338e+22
3.21881485622619e+22
3.21881490264151e+22
3.21881493988069e+22
3.21881497376995e+22
3.21881500325417e+22
3.21881502766899e+22
3.21881504199892e+22
3.2188150496962e+22
3.21881505101074e+22
3.21881505562972e+22
3.21881505640864e+22
3.21881505711464e+22
3.21881505851151e+22
3.21881505838226e+22
3.21881506218783e+22
3.21881506696253e+22
3.21881507313954e+22
3.21881507974333e+22
3.21881508581672e+22
3.21881509158636e+22
3.21881509664691e+22
3.21881510132316e+22
3.21881510538964e+22
3.21881510915811e+22
3.21881511442893e+22
3.21881511952841e+22
3.21881512410522e+22
3.21881512845312e+22
3.21881513234221e+22
3.21881513606057e+22
3.21881513936333e+22
3.21881514254254e+22
3.21881514534334e+22
3.21881514806694e+22
3.21881515046188e+22
3.21881515284422e+22
3.21881515559928e+22
3.21881515912301e+22
3.21881516231993e+22
3.21881516555375e+22
3.21881516847108e+22
3.21881517144635e+22
3.21881517411139e+22
3.21881517685632e+22
3.21881517929207e+22
3.21881518182419e+22
3.21881518405077e+22
3.21881518638595e+22
3.21881518841962e+22
3.21881519057886e+22
3.21881519243696e+22
3.21881519443756e+22
3.21881519613573e+22
3.21881519798893e+22
3.21881520031793e+22
3.21881520294409e+22
3.21881520527609e+22
3.21881520774707e+22
3.21881520992129e+22
3.2188152122448e+22
3.21881521426819e+22
3.21881521645178e+22
3.21881521833515e+22
3.21881522038899e+22
3.21881522214049e+22
3.2188152240741e+22
3.21881522570304e+22
3.21881522752557e+22
3.21881522903966e+22
3.21881523075983e+22
3.21881523216724e+22
3.21881523378895e+22
3.21881523509199e+22
3.21881523661909e+22
3.21881523782178e+22
3.21881523925705e+22
3.21881524036302e+22
3.21881524171135e+22
3.21881524273011e+22
3.21881524448025e+22
3.21881524598831e+22
3.21881524778622e+22
3.2188152492081e+22
3.21881525093264e+22
3.21881525227201e+22
3.21881525392774e+22
3.21881525518923e+22
3.21881525678122e+22
3.21881525796895e+22
3.21881525949965e+22
3.21881526061654e+22
3.21881526208881e+22
3.21881526313884e+22
3.2188152645584e+22
3.21881526555952e+22
3.21881526694136e+22
3.21881526788289e+22
3.21881526921513e+22
3.21881527009744e+22
3.21881527138149e+22
3.21881527220769e+22
3.21881527347515e+22
3.2188152742819e+22
3.21881527551673e+22
3.21881527627436e+22
3.21881527751013e+22
3.21881527826425e+22
3.21881527948871e+22
3.21881528025062e+22
3.2188152815145e+22
3.21881528231974e+22
3.21881528392038e+22
)
;

boundaryField
{
    electrode
    {
        type            zeroGradient;
    }
    ground
    {
        type            zeroGradient;
    }
    otherfaces
    {
        type            empty;
    }
}


// ************************************************************************* //
