/*--------------------------------*- C++ -*----------------------------------*\
| =========                 |                                                 |
| \\      /  F ield         | foam-extend: Open Source CFD                    |
|  \\    /   O peration     | Version:     4.0                                |
|   \\  /    A nd           | Web:         http://www.foam-extend.org         |
|    \\/     M anipulation  |                                                 |
\*---------------------------------------------------------------------------*/
FoamFile
{
    version     2.0;
    format      ascii;
    class       volScalarField;
    location    "4.2e-06";
    object      Arm;
}
// * * * * * * * * * * * * * * * * * * * * * * * * * * * * * * * * * * * * * //

dimensions      [0 0 0 1 0 0 0];

internalField   nonuniform List<scalar> 
300
(
3.57414121631381e+15
3.57601868442286e+15
3.57796756272526e+15
3.57927351825794e+15
3.58008973207223e+15
3.58046824855555e+15
3.58045327582894e+15
3.58007625041438e+15
3.57936283017838e+15
3.57833500002044e+15
3.57700853261428e+15
3.57539751419445e+15
3.57351399782765e+15
3.5713685860498e+15
3.56897073583082e+15
3.56632899307653e+15
3.56344817819513e+15
3.56033687945386e+15
3.557003438982e+15
3.55345433566543e+15
3.54969577096478e+15
3.54573366657166e+15
3.54157371251221e+15
3.53722136223594e+15
3.53266592317921e+15
3.52792514926461e+15
3.52300273910142e+15
3.51790070293902e+15
3.51263264127893e+15
3.5072034391644e+15
3.50159932070036e+15
3.49583166744977e+15
3.48991859369556e+15
3.4838654777395e+15
3.47767740583957e+15
3.4713591812438e+15
3.46491097355429e+15
3.45833930126509e+15
3.45165123500365e+15
3.44485030882588e+15
3.43794002569925e+15
3.4309256630974e+15
3.42381110145735e+15
3.41660003237519e+15
3.40929595606445e+15
3.40190213705734e+15
3.39441951889036e+15
3.38684955364644e+15
3.37918447175843e+15
3.37142287009915e+15
3.36355213095932e+15
3.35558477667861e+15
3.3475153975386e+15
3.33936172572964e+15
3.33113188751641e+15
3.32284226241144e+15
3.31449614627062e+15
3.30609645524433e+15
3.29764576211535e+15
3.28914448241557e+15
3.28059693405382e+15
3.27200522947972e+15
3.26336602743344e+15
3.25466134983946e+15
3.24589517511928e+15
3.2370931078634e+15
3.22825723184244e+15
3.2193893867986e+15
3.21049115855824e+15
3.20156390749685e+15
3.19260678979705e+15
3.1836126491709e+15
3.1745799472983e+15
3.1655161429411e+15
3.15640767817977e+15
3.14725561579096e+15
3.13806630615521e+15
3.12883560406708e+15
3.11958352207823e+15
3.11027944885346e+15
3.10095801435588e+15
3.09162133281799e+15
3.08226631545378e+15
3.07289523274216e+15
3.06349324750073e+15
3.05406810987526e+15
3.04463153231848e+15
3.03518383552924e+15
3.02571309469551e+15
3.01622707907869e+15
3.00671978515261e+15
2.99714609539274e+15
2.98756135190873e+15
2.97796716972326e+15
2.96836357706848e+15
2.95875060017904e+15
2.94912802074296e+15
2.93949541078742e+15
2.92984182450064e+15
2.9201672028704e+15
2.91047781420049e+15
2.90077495104643e+15
2.89102680530078e+15
2.88126264946936e+15
2.87147324667383e+15
2.86164924056616e+15
2.85180568144845e+15
2.84192292639626e+15
2.83201141587848e+15
2.82207660266912e+15
2.8121166134953e+15
2.80212916416893e+15
2.79210650908585e+15
2.78204643854716e+15
2.77194673901869e+15
2.7617897517424e+15
2.75155656937342e+15
2.74127202299819e+15
2.73093697906313e+15
2.72054336214132e+15
2.71006475706716e+15
2.69951416369797e+15
2.68886255588636e+15
2.67812034559416e+15
2.66729897059647e+15
2.6563962357825e+15
2.64538399670761e+15
2.63427972249775e+15
2.62307256835309e+15
2.6117605035204e+15
2.60032787303852e+15
2.58877081286878e+15
2.57708433428237e+15
2.56524234530645e+15
2.55320835173363e+15
2.54100124105335e+15
2.52862494304801e+15
2.5160543983905e+15
2.50327073874768e+15
2.49028310959499e+15
2.4770755128012e+15
2.46363130000556e+15
2.44991831892285e+15
2.43590446742242e+15
2.42156511573854e+15
2.4069201002028e+15
2.39195453830102e+15
2.37665207191597e+15
2.36098216561539e+15
2.34489589284371e+15
2.3284057282617e+15
2.31148692378969e+15
2.29407716650987e+15
2.27617530434659e+15
2.25776308743859e+15
2.23879076912639e+15
2.21921508229163e+15
2.19903550332205e+15
2.17823288992384e+15
2.15676226578799e+15
2.13458801946315e+15
2.11169507967429e+15
2.0880451600333e+15
2.06365083889025e+15
2.03849912881384e+15
2.01253540701832e+15
1.98578051832132e+15
1.95827904963097e+15
1.93005995566233e+15
1.90116519940527e+15
1.87166341107353e+15
1.84158787437415e+15
1.81103096306361e+15
1.78016421439702e+15
1.74918159727737e+15
1.71825294423878e+15
1.68755743613445e+15
1.65729406348795e+15
1.62770168432475e+15
1.59893582976705e+15
1.57115077596158e+15
1.54449358698632e+15
1.51904556379559e+15
1.49492155532777e+15
1.47212138325066e+15
1.45055462576611e+15
1.43026105009008e+15
1.41118965457907e+15
1.39325350906645e+15
1.37636920680775e+15
1.36043513707103e+15
1.34548097118335e+15
1.33193230145561e+15
1.32466985726744e+15
1.34947460959309e+15
1.41225860925952e+15
1.48341120822133e+15
1.52877358735776e+15
1.54891048348467e+15
1.54741895023054e+15
1.52795687799158e+15
1.49935322796778e+15
1.46938867849297e+15
1.44286767434402e+15
1.42181731007365e+15
1.40602332943064e+15
1.3940969100329e+15
1.38540411078218e+15
1.37898639395896e+15
1.37416761056003e+15
1.36987397701994e+15
1.36598315830923e+15
1.36225627902976e+15
1.35840853629473e+15
1.35459150656356e+15
1.35068449800374e+15
1.3465854581588e+15
1.34227604273501e+15
1.33771062946843e+15
1.3328735180795e+15
1.32777277180688e+15
1.32239191200726e+15
1.31665946050414e+15
1.31051820294646e+15
1.30405960998608e+15
1.29744342223839e+15
1.29070816453958e+15
1.28387000262911e+15
1.27695941007458e+15
1.27001161440549e+15
1.26303811211134e+15
1.25606516360217e+15
1.24912277193746e+15
1.24222301855179e+15
1.23538030875493e+15
1.22862454921873e+15
1.22195145634409e+15
1.21539013621566e+15
1.20893787133275e+15
1.20261230557328e+15
1.1964196689512e+15
1.19035677465956e+15
1.18444195902538e+15
1.17866368174275e+15
1.17302976829676e+15
1.1675563684367e+15
1.16222944477549e+15
1.15705585913822e+15
1.1520368007287e+15
1.14716263295345e+15
1.14243865014248e+15
1.13785899154296e+15
1.1334190176325e+15
1.12912211461877e+15
1.12495988559472e+15
1.1209299486861e+15
1.11703075953623e+15
1.11324676326293e+15
1.10958667754818e+15
1.10604269204291e+15
1.10262059481413e+15
1.09930781064398e+15
1.09610726463002e+15
1.09301082088209e+15
1.09001638034702e+15
1.08712037867585e+15
1.08431538284201e+15
1.08159846351007e+15
1.07895930020145e+15
1.07640434854365e+15
1.07392652501138e+15
1.07153176817682e+15
1.06920746895655e+15
1.06695981206596e+15
1.06477707416681e+15
1.0626581403593e+15
1.06060156857482e+15
1.05860760532832e+15
1.05667842923956e+15
1.05480781364063e+15
1.05299472252212e+15
1.05119896070136e+15
1.04932701941244e+15
1.04747844218069e+15
1.04567872514957e+15
1.04391860325561e+15
1.0422056416147e+15
1.04054089417517e+15
1.03891357624909e+15
1.03706806092803e+15
1.03521582102955e+15
1.03341157109189e+15
1.03165685419049e+15
1.02958118992383e+15
1.02751509273312e+15
1.02533444469745e+15
1.02287541843364e+15
1.02012495227172e+15
1.01697377694058e+15
1.01315974918084e+15
)
;

boundaryField
{
    electrode
    {
        type            zeroGradient;
    }
    ground
    {
        type            zeroGradient;
    }
    otherfaces
    {
        type            empty;
    }
}


// ************************************************************************* //
