/*--------------------------------*- C++ -*----------------------------------*\
| =========                 |                                                 |
| \\      /  F ield         | foam-extend: Open Source CFD                    |
|  \\    /   O peration     | Version:     4.0                                |
|   \\  /    A nd           | Web:         http://www.foam-extend.org         |
|    \\/     M anipulation  |                                                 |
\*---------------------------------------------------------------------------*/
FoamFile
{
    version     2.0;
    format      ascii;
    class       volScalarField;
    location    "4.2e-06";
    object      Arp1;
}
// * * * * * * * * * * * * * * * * * * * * * * * * * * * * * * * * * * * * * //

dimensions      [0 0 0 1 0 0 0];

internalField   nonuniform List<scalar> 
300
(
5.95995033013972e+16
5.96407588861569e+16
5.96158186572436e+16
5.96108499100106e+16
5.96017235863683e+16
5.95886983723743e+16
5.9573384977982e+16
5.95551333057577e+16
5.9534034993815e+16
5.95101091619071e+16
5.94833418451932e+16
5.94537374850037e+16
5.94212970376236e+16
5.93860213879875e+16
5.93479119340602e+16
5.93069700769623e+16
5.92631973314245e+16
5.92165953107445e+16
5.9167165702668e+16
5.91149102579697e+16
5.90598307737375e+16
5.90019290772877e+16
5.89412070088774e+16
5.88776664038012e+16
5.88113090740671e+16
5.87421367897629e+16
5.86701512587565e+16
5.85953541072583e+16
5.85177468590715e+16
5.84373309142641e+16
5.83541075276782e+16
5.82680777873624e+16
5.81792425916163e+16
5.80876026264462e+16
5.79931583428836e+16
5.78959099328723e+16
5.77958573062384e+16
5.76930000667133e+16
5.75873374875998e+16
5.74788684877967e+16
5.73675916078202e+16
5.7253504984686e+16
5.71366063282498e+16
5.70168928966922e+16
5.68943614719402e+16
5.67690083359288e+16
5.66408292466494e+16
5.65098194140367e+16
5.63759734768766e+16
5.62392854798647e+16
5.60997488502983e+16
5.59573563763303e+16
5.58121001852735e+16
5.56639717218875e+16
5.5512961728291e+16
5.53590602240087e+16
5.52022564867154e+16
5.50425390339377e+16
5.48798956058267e+16
5.47143131484167e+16
5.45457777980704e+16
5.43742748675889e+16
5.41997888321811e+16
5.40223033178473e+16
5.38418010905953e+16
5.36582640466073e+16
5.34716732043835e+16
5.32820086982905e+16
5.30892497730599e+16
5.28933747805577e+16
5.26943611780942e+16
5.24921855279984e+16
5.22868234994835e+16
5.20782498723601e+16
5.18664385421869e+16
5.16513625278599e+16
5.14329939812968e+16
5.12113041987009e+16
5.09862636342823e+16
5.07578419166082e+16
5.05260078663312e+16
5.02907295167198e+16
5.00519741368738e+16
4.98097082565373e+16
4.95638976937945e+16
4.93145075856424e+16
4.90615024200323e+16
4.88048460714706e+16
4.85445018386801e+16
4.82804324848719e+16
4.80126002806381e+16
4.77409670498259e+16
4.74654942174839e+16
4.71861428606887e+16
4.69028737623603e+16
4.66156474671008e+16
4.63244243400318e+16
4.60291646284254e+16
4.57298285253684e+16
4.54263762364265e+16
4.51187680489744e+16
4.4806964403511e+16
4.4490925967726e+16
4.41706137132122e+16
4.38459889940823e+16
4.35170136279352e+16
4.3183649979486e+16
4.28458610457752e+16
4.25036105435052e+16
4.21568629988609e+16
4.18055838384882e+16
4.14497394824596e+16
4.10892974392901e+16
4.07242264018545e+16
4.03544963449397e+16
3.99800786243309e+16
3.96009460767671e+16
3.92170731206732e+16
3.88284358586189e+16
3.84350121794868e+16
3.80367818620244e+16
3.76337266787707e+16
3.72258305001019e+16
3.68130793989028e+16
3.63954617557057e+16
3.59729683635049e+16
3.55455925334593e+16
3.51133302007007e+16
3.4676180030577e+16
3.42341435260035e+16
3.37872251341579e+16
3.33354323548456e+16
3.28787758909035e+16
3.24172694179342e+16
3.1950930446238e+16
3.14797823196578e+16
3.10038128744913e+16
3.05231680430839e+16
3.00377919875153e+16
2.95477147507813e+16
2.90529789265797e+16
2.85536269451402e+16
2.80497048934699e+16
2.75412638219528e+16
2.70283602337069e+16
2.65110565046137e+16
2.59894213500385e+16
2.54635306608296e+16
2.49334676350618e+16
2.43993243160288e+16
2.38612063656016e+16
2.33192093650449e+16
2.2773514407647e+16
2.22241288840851e+16
2.16714661301461e+16
2.11153366700699e+16
2.05562400552442e+16
1.99947318277682e+16
1.94290231868048e+16
1.88645174355838e+16
1.8292856828858e+16
1.7722778293005e+16
1.71659786141743e+16
1.66048624961924e+16
1.60385050062082e+16
1.54735146741134e+16
1.49080325548161e+16
1.4353750744015e+16
1.38050449565531e+16
1.32647402745487e+16
1.27403191625542e+16
1.22109677901371e+16
1.16697243723182e+16
1.11815082490256e+16
1.07128151898116e+16
1.01960025759527e+16
9.73547468420399e+15
9.33474074612917e+15
8.87524688393376e+15
8.46981824406921e+15
8.12594503647866e+15
7.74127328730426e+15
7.39626519771987e+15
7.11240502985057e+15
6.8076644760573e+15
6.52588777373694e+15
6.30077781455665e+15
6.07466158740591e+15
5.85236305863976e+15
5.65909824276957e+15
5.51180977434659e+15
5.35689345357402e+15
5.20958583514716e+15
5.07675054347578e+15
4.98803793177914e+15
4.90803547590694e+15
4.8687839106408e+15
4.81182311898157e+15
4.80944998890126e+15
4.82223758909873e+15
4.84110543753407e+15
4.88037974474985e+15
4.87840704637826e+15
4.86087846118279e+15
4.8222706914878e+15
4.77320714002622e+15
4.72506396361867e+15
4.67644283251774e+15
4.63248054844622e+15
4.59067205962451e+15
4.55438246408999e+15
4.520637396177e+15
4.47168447538508e+15
4.42455310582371e+15
4.38260996462176e+15
4.34304141680246e+15
4.30825073007734e+15
4.27537677524392e+15
4.24691502452601e+15
4.21996111416766e+15
4.1970561617061e+15
4.17520490205923e+15
4.15699351245065e+15
4.13931876307246e+15
4.11823588363943e+15
4.08962555060004e+15
4.06440416082638e+15
4.03891808496827e+15
4.01667063770205e+15
3.99388245169148e+15
3.97422323810791e+15
3.95376555464422e+15
3.93637000108173e+15
3.91796875418583e+15
3.90256638858976e+15
3.8859915849807e+15
3.87234950531179e+15
3.85734006945598e+15
3.84523322487303e+15
3.83157452096401e+15
3.82080724872903e+15
3.80835976626961e+15
3.79100594704955e+15
3.77054378734434e+15
3.75287849414408e+15
3.7336625901291e+15
3.71726740052452e+15
3.69922555601222e+15
3.6840298931616e+15
3.66708696197979e+15
3.65299547346091e+15
3.63705450340844e+15
3.62399675194756e+15
3.60897422749866e+15
3.59686332066375e+15
3.58268370639649e+15
3.5714572254613e+15
3.5580541778685e+15
3.54765439432334e+15
3.53499505985309e+15
3.525400017061e+15
3.51345465520424e+15
3.50464064775466e+15
3.49339632536763e+15
3.48534255438332e+15
3.47476645403466e+15
3.46739449013191e+15
3.45262036277496e+15
3.44018894873068e+15
3.42477438313892e+15
3.41304274644432e+15
3.39820112648448e+15
3.38714042541653e+15
3.37283926368919e+15
3.36241522569404e+15
3.3486221457271e+15
3.33880893527235e+15
3.32550326167136e+15
3.3162706667565e+15
3.3034253625133e+15
3.29474474663391e+15
3.28235130188212e+15
3.27421816562278e+15
3.26225427847669e+15
3.25464453484129e+15
3.24308783648544e+15
3.23598305127727e+15
3.22481251017713e+15
3.21818283255068e+15
3.2073584870648e+15
3.20114795019855e+15
3.19060829335682e+15
3.18479094712103e+15
3.17451291141994e+15
3.16904145165922e+15
3.15898084642839e+15
3.15382366676408e+15
3.14393738052699e+15
3.13903703551319e+15
3.12684353097961e+15
)
;

boundaryField
{
    electrode
    {
        type            driftDiffusionPositiveIonDensity;
        seec            0;
        fieldName       Arp1;
        value           uniform 5.94253607350583e+16;
    }
    ground
    {
        type            driftDiffusionPositiveIonDensity;
        seec            0;
        fieldName       Arp1;
        value           uniform 3.12684353097961e+15;
    }
    otherfaces
    {
        type            empty;
    }
}


// ************************************************************************* //
