/*--------------------------------*- C++ -*----------------------------------*\
| =========                 |                                                 |
| \\      /  F ield         | foam-extend: Open Source CFD                    |
|  \\    /   O peration     | Version:     4.0                                |
|   \\  /    A nd           | Web:         http://www.foam-extend.org         |
|    \\/     M anipulation  |                                                 |
\*---------------------------------------------------------------------------*/
FoamFile
{
    version     2.0;
    format      ascii;
    class       volVectorField;
    location    "4.2e-06";
    object      E;
}
// * * * * * * * * * * * * * * * * * * * * * * * * * * * * * * * * * * * * * //

dimensions      [0 0 0 1 0 0 0];

internalField   nonuniform List<vector> 
300
(
(5.57002559908871 -0 -0)
(11.0860325419626 -0 -0)
(19.5609051581447 -0 -0)
(27.3928918589908 -0 -0)
(35.1727134959005 -0 -0)
(43.0188594038876 -0 -0)
(50.8518397931984 -0 -0)
(58.6929605833607 -0 -0)
(66.5422064949358 -0 -0)
(74.3988299176109 -0 -0)
(82.2641242959039 -0 -0)
(90.1387409171792 -0 -0)
(98.0234327624406 -0 -0)
(105.919017531762 -0 -0)
(113.826332526213 -0 -0)
(121.746257870926 -0 -0)
(129.679716019679 -0 -0)
(137.627673924003 -0 -0)
(145.591146155645 -0 -0)
(153.571197508692 -0 -0)
(161.568945718228 -0 -0)
(169.585564166465 -0 -0)
(177.622284559805 -0 -0)
(185.680399701628 -0 -0)
(193.761266140127 -0 -0)
(201.86630695362 -0 -0)
(209.99701449004 -0 -0)
(218.154953139651 -0 -0)
(226.34176205793 -0 -0)
(234.559158025785 -0 -0)
(242.808938205633 -0 -0)
(251.092982989037 -0 -0)
(259.413258840738 -0 -0)
(267.77182113305 -0 -0)
(276.170817065047 -0 -0)
(284.612488485355 -0 -0)
(293.099174880658 -0 -0)
(301.633316220012 -0 -0)
(310.217455969129 -0 -0)
(318.854244003884 -0 -0)
(327.54643962123 -0 -0)
(336.296914474378 -0 -0)
(345.108655681914 -0 -0)
(353.984768772173 -0 -0)
(362.928480751624 -0 -0)
(371.943143238946 -0 -0)
(381.032235455193 -0 -0)
(390.199367425497 -0 -0)
(399.448283071354 -0 -0)
(408.782863350805 -0 -0)
(418.207129497571 -0 -0)
(427.725246209028 -0 -0)
(437.341524911396 -0 -0)
(447.060427019631 -0 -0)
(456.886567283588 -0 -0)
(466.824717161493 -0 -0)
(476.879808188104 -0 -0)
(487.056935516476 -0 -0)
(497.361361316463 -0 -0)
(507.798518488472 -0 -0)
(518.374014263407 -0 -0)
(529.093633921844 -0 -0)
(539.963344632692 -0 -0)
(550.989299361091 -0 -0)
(562.177840879194 -0 -0)
(573.535505912826 -0 -0)
(585.06902941159 -0 -0)
(596.785348913488 -0 -0)
(608.691609128909 -0 -0)
(620.795166689283 -0 -0)
(633.103595023984 -0 -0)
(645.62468944797 -0 -0)
(658.366472601543 -0 -0)
(671.337199939368 -0 -0)
(684.545365646563 -0 -0)
(697.999708736195 -0 -0)
(711.709219570901 -0 -0)
(725.683146599111 -0 -0)
(739.931003634969 -0 -0)
(754.462577404036 -0 -0)
(769.28793560785 -0 -0)
(784.417435464948 -0 -0)
(799.861732814053 -0 -0)
(815.631791693884 -0 -0)
(831.738894682768 -0 -0)
(848.194653804526 -0 -0)
(865.011022215074 -0 -0)
(882.200306702527 -0 -0)
(899.775180999803 -0 -0)
(917.74870011061 -0 -0)
(936.134315557375 -0 -0)
(954.945891807983 -0 -0)
(974.197723853471 -0 -0)
(993.904556098698 -0 -0)
(1014.08160266111 -0 -0)
(1034.74456912011 -0 -0)
(1055.90967607883 -0 -0)
(1077.59368433413 -0 -0)
(1099.81392207175 -0 -0)
(1122.58831426887 -0 -0)
(1145.9354142177 -0 -0)
(1169.87443768575 -0 -0)
(1194.42529975405 -0 -0)
(1219.60865463431 -0 -0)
(1245.44593866778 -0 -0)
(1271.95941697645 -0 -0)
(1299.172233851 -0 -0)
(1327.10846736951 -0 -0)
(1355.79318875519 -0 -0)
(1385.25252661975 -0 -0)
(1415.51373681616 -0 -0)
(1446.60527847413 -0 -0)
(1478.55689656665 -0 -0)
(1511.39971190943 -0 -0)
(1545.16631934458 -0 -0)
(1579.89089473006 -0 -0)
(1615.6093119295 -0 -0)
(1652.35927065147 -0 -0)
(1690.180436471 -0 -0)
(1729.11459421933 -0 -0)
(1769.20581628651 -0 -0)
(1810.50064751128 -0 -0)
(1853.04830856867 -0 -0)
(1896.90091981937 -0 -0)
(1942.1137482874 -0 -0)
(1988.74548024302 -0 -0)
(2036.85852266395 -0 -0)
(2086.51933688257 -0 -0)
(2137.79880866454 -0 -0)
(2190.77265905001 -0 -0)
(2245.52190111842 -0 -0)
(2302.13334947735 -0 -0)
(2360.70018778984 -0 -0)
(2421.32257926665 -0 -0)
(2484.10851117097 -0 -0)
(2549.1742077057 -0 -0)
(2616.64408466536 -0 -0)
(2686.66472207526 -0 -0)
(2759.39892436963 -0 -0)
(2835.01140330515 -0 -0)
(2913.67856414978 -0 -0)
(2995.59353240419 -0 -0)
(3080.96774953241 -0 -0)
(3170.03292268255 -0 -0)
(3263.0434533307 -0 -0)
(3360.27925802106 -0 -0)
(3462.04900945231 -0 -0)
(3568.69387946634 -0 -0)
(3680.59179901224 -0 -0)
(3798.16252013867 -0 -0)
(3921.87345515981 -0 -0)
(4052.2454622152 -0 -0)
(4189.86455082882 -0 -0)
(4335.38065813021 -0 -0)
(4489.53952145777 -0 -0)
(4653.16464420182 -0 -0)
(4827.19500688913 -0 -0)
(5012.74398937893 -0 -0)
(5210.90530761406 -0 -0)
(5423.32546288803 -0 -0)
(5651.37596847423 -0 -0)
(5897.222637461 -0 -0)
(6166.67910990833 -0 -0)
(6464.80290088932 -0 -0)
(6793.48267139604 -0 -0)
(7155.3780047257 -0 -0)
(7554.78301172882 -0 -0)
(7998.56275552997 -0 -0)
(8495.29834806381 -0 -0)
(9053.80088573707 -0 -0)
(9684.74668516729 -0 -0)
(10395.6055864522 -0 -0)
(11189.0075067072 -0 -0)
(12079.7300460702 -0 -0)
(13087.7649568551 -0 -0)
(14211.6412450972 -0 -0)
(15456.6194696769 -0 -0)
(16848.9544338127 -0 -0)
(18388.4416430615 -0 -0)
(20070.5606842575 -0 -0)
(21914.5211322252 -0 -0)
(23914.9123153923 -0 -0)
(26056.8658110408 -0 -0)
(28346.7187323403 -0 -0)
(30772.9347419471 -0 -0)
(33310.8480547079 -0 -0)
(35954.0161737218 -0 -0)
(38688.7482216882 -0 -0)
(41486.4252975396 -0 -0)
(44326.6932755631 -0 -0)
(47204.2188182876 -0 -0)
(50105.5267070968 -0 -0)
(53006.7673222763 -0 -0)
(55895.5628166581 -0 -0)
(58773.251900352 -0 -0)
(61641.782684442 -0 -0)
(64509.787700178 -0 -0)
(67371.2405636073 -0 -0)
(70227.8235001955 -0 -0)
(73104.0226107336 -0 -0)
(76001.0034438036 -0 -0)
(78920.6168061548 -0 -0)
(81855.8422612332 -0 -0)
(84788.1548058756 -0 -0)
(87705.4266568829 -0 -0)
(90597.3798590973 -0 -0)
(93460.5882036011 -0 -0)
(96294.8935792516 -0 -0)
(99101.4206449914 -0 -0)
(101882.161575543 -0 -0)
(104639.401709021 -0 -0)
(107375.550575026 -0 -0)
(110086.777191011 -0 -0)
(112769.038522221 -0 -0)
(115424.442681204 -0 -0)
(118055.268307199 -0 -0)
(120663.670358028 -0 -0)
(123251.665782374 -0 -0)
(125821.162797261 -0 -0)
(128373.947592092 -0 -0)
(130911.696954052 -0 -0)
(133435.950222472 -0 -0)
(135948.123843507 -0 -0)
(138449.47869801 -0 -0)
(140939.149868835 -0 -0)
(143413.840469705 -0 -0)
(145872.303331423 -0 -0)
(148315.481598068 -0 -0)
(150744.273023517 -0 -0)
(153159.492034736 -0 -0)
(155561.919908136 -0 -0)
(157952.260110085 -0 -0)
(160331.195853925 -0 -0)
(162699.347785602 -0 -0)
(165057.317388835 -0 -0)
(167405.655793525 -0 -0)
(169744.89411785 -0 -0)
(172075.504626783 -0 -0)
(174397.950433601 -0 -0)
(176712.638953963 -0 -0)
(179019.974169029 -0 -0)
(181320.321268473 -0 -0)
(183611.693714399 -0 -0)
(185891.674225242 -0 -0)
(188160.168704806 -0 -0)
(190417.552786249 -0 -0)
(192664.209229334 -0 -0)
(194900.491875459 -0 -0)
(197126.762233227 -0 -0)
(199343.351438549 -0 -0)
(201550.592212065 -0 -0)
(203748.786433288 -0 -0)
(205938.245563844 -0 -0)
(208119.246289616 -0 -0)
(210292.073862128 -0 -0)
(212456.982285833 -0 -0)
(214614.23780016 -0 -0)
(216764.074368824 -0 -0)
(218906.741149678 -0 -0)
(221042.461998093 -0 -0)
(223171.479367957 -0 -0)
(225294.008292808 -0 -0)
(227410.28404295 -0 -0)
(229520.517774714 -0 -0)
(231624.938506207 -0 -0)
(233723.74754461 -0 -0)
(235817.150282986 -0 -0)
(237903.880270657 -0 -0)
(239982.41151319 -0 -0)
(242052.550762304 -0 -0)
(244114.508799899 -0 -0)
(246168.458254918 -0 -0)
(248214.601272312 -0 -0)
(250253.10067179 -0 -0)
(252284.148286067 -0 -0)
(254307.897178119 -0 -0)
(256324.531397051 -0 -0)
(258334.197782666 -0 -0)
(260337.071286285 -0 -0)
(262333.290599539 -0 -0)
(264323.022061103 -0 -0)
(266306.401750864 -0 -0)
(268283.594632166 -0 -0)
(270254.730201541 -0 -0)
(272219.966120117 -0 -0)
(274179.425072066 -0 -0)
(276133.259316672 -0 -0)
(278081.585146816 -0 -0)
(280024.545692437 -0 -0)
(281962.245315697 -0 -0)
(283894.8103212 -0 -0)
(285822.326379427 -0 -0)
(287744.911975299 -0 -0)
(289662.645888106 -0 -0)
(291575.632135899 -0 -0)
(293483.936073508 -0 -0)
(295387.651636044 -0 -0)
(297286.830842205 -0 -0)
(299181.555166185 -0 -0)
(301071.126456039 -0 -0)
)
;

boundaryField
{
    electrode
    {
        type            calculated;
        value           uniform (4.54546480796126 -0 -0);
    }
    ground
    {
        type            calculated;
        value           uniform (302014.072485088 -0 -0);
    }
    otherfaces
    {
        type            empty;
    }
}


// ************************************************************************* //
