/*--------------------------------*- C++ -*----------------------------------*\
| =========                 |                                                 |
| \\      /  F ield         | foam-extend: Open Source CFD                    |
|  \\    /   O peration     | Version:     4.0                                |
|   \\  /    A nd           | Web:         http://www.foam-extend.org         |
|    \\/     M anipulation  |                                                 |
\*---------------------------------------------------------------------------*/
FoamFile
{
    version     2.0;
    format      ascii;
    class       volScalarField;
    location    "4.2e-06";
    object      electron;
}
// * * * * * * * * * * * * * * * * * * * * * * * * * * * * * * * * * * * * * //

dimensions      [0 0 0 1 0 0 0];

internalField   nonuniform List<scalar> 
300
(
5.96106410683504e+16
5.96090987756374e+16
5.96050501170379e+16
5.9598126513105e+16
5.95883856489872e+16
5.95758062646097e+16
5.95603848388751e+16
5.95421231181913e+16
5.95210208302828e+16
5.94970784908613e+16
5.94702967947401e+16
5.94406765489995e+16
5.9408218725374e+16
5.93729244306532e+16
5.93347948967199e+16
5.92938314696283e+16
5.92500355962771e+16
5.9203408810891e+16
5.91539527206757e+16
5.91016689907203e+16
5.9046559328198e+16
5.8988625465873e+16
5.8927869144948e+16
5.8864292097265e+16
5.87978960268913e+16
5.87286825911161e+16
5.86566533808728e+16
5.85818099006187e+16
5.85041535477056e+16
5.84236855912601e+16
5.83404071506023e+16
5.82543191732403e+16
5.81654224124616e+16
5.80737174045626e+16
5.79792044457419e+16
5.78818835687003e+16
5.77817545189772e+16
5.76788167310634e+16
5.75730693043317e+16
5.74645109788178e+16
5.7353140110901e+16
5.72389546489292e+16
5.71219521088224e+16
5.70021295497066e+16
5.68794835496342e+16
5.67540101814203e+16
5.66257049886599e+16
5.64945629619747e+16
5.6360578515534e+16
5.62237454639179e+16
5.60840569993662e+16
5.59415056694685e+16
5.57960833553587e+16
5.56477812504717e+16
5.54965898399192e+16
5.53424988805424e+16
5.51854973817102e+16
5.50255735869154e+16
5.48627149562429e+16
5.46969081497653e+16
5.45281390119217e+16
5.43563925569613e+16
5.41816529555079e+16
5.40039035223072e+16
5.38231267052272e+16
5.36393040755733e+16
5.34524163197801e+16
5.32624432325525e+16
5.30693637115163e+16
5.28731557534352e+16
5.26737964520647e+16
5.24712619977115e+16
5.2265527678544e+16
5.20565678837192e+16
5.18443561083933e+16
5.16288649606642e+16
5.14100661705034e+16
5.11879306007344e+16
5.09624282601054e+16
5.07335283185035e+16
5.05011991243666e+16
5.02654082243301e+16
5.00261223851477e+16
4.97833076179314e+16
4.95369292047432e+16
4.92869517275647e+16
4.9033339099682e+16
4.87760545994993e+16
4.85150609068074e+16
4.82503201415153e+16
4.79817939048584e+16
4.7709443323088e+16
4.7433229093636e+16
4.71531115337517e+16
4.68690506315915e+16
4.65810060997509e+16
4.62889374311999e+16
4.59928039575895e+16
4.56925649098997e+16
4.53881794813572e+16
4.50796068925732e+16
4.47668064588388e+16
4.44497376594856e+16
4.41283602092299e+16
4.38026341314021e+16
4.34725198329417e+16
4.31379781810357e+16
4.27989705812711e+16
4.24554590571367e+16
4.2107406330711e+16
4.17547759043666e+16
4.13975321432718e+16
4.10356403584808e+16
4.06690668903854e+16
4.02977791922543e+16
3.99217459135904e+16
3.95409369830076e+16
3.91553236902947e+16
3.87648787673171e+16
3.83695764673736e+16
3.79693926426016e+16
3.75643048189912e+16
3.71542922685272e+16
3.6739336077959e+16
3.63194192136505e+16
3.5894526581924e+16
3.5464645084274e+16
3.50297636667905e+16
3.45898733630805e+16
3.41449673299293e+16
3.36950408749076e+16
3.32400914750682e+16
3.278011878557e+16
3.2315124638068e+16
3.18451130229137e+16
3.13700900305619e+16
3.08900638670576e+16
3.04050439787904e+16
2.99150397988005e+16
2.94200612772837e+16
2.89201198737353e+16
2.84152286464998e+16
2.79054021044644e+16
2.73906560324322e+16
2.6871007303373e+16
2.63464736719002e+16
2.58170735464074e+16
2.52828257383623e+16
2.47437491905856e+16
2.41998626863252e+16
2.36511845179283e+16
2.30977322178894e+16
2.253952206325e+16
2.19765689954964e+16
2.14088859490569e+16
2.08364835459091e+16
2.02593707581365e+16
1.96775512337061e+16
1.90910294527006e+16
1.84997994731446e+16
1.79038422762315e+16
1.73031201144851e+16
1.66974209832621e+16
1.60863021302053e+16
1.54693182628522e+16
1.48461590487982e+16
1.42166015036442e+16
1.35804213207305e+16
1.29373310065578e+16
1.22870362824995e+16
1.16293056002461e+16
1.09641222334581e+16
1.02920644513119e+16
9.61423187980662e+15
8.93193266578295e+15
8.24720540774195e+15
7.56315580516194e+15
6.88339814042453e+15
6.21219275347037e+15
5.55482829502579e+15
4.91706185298004e+15
4.304888911272e+15
3.72456358903353e+15
3.18197790484613e+15
2.68221938346543e+15
2.22939862478309e+15
1.82623484625505e+15
1.47380545709514e+15
1.17160164896107e+15
917587893744845
708410065624124
539380431633845
405388120211574
301332396384309
221936830838263
162179133623944
117130514786798
82537372852079.9
56982827684795.3
38625746378014.3
25250486522507.4
15871762512534.2
9752817066284.23
6055049776757.88
3942936561277.79
2762504938322.37
2098088497464.86
1715609051620.74
1490018496828.46
1354821883479.49
1273279722310.46
1224436193744.39
1196027076178.01
1180313828049.46
1172375031378.9
1168933542331.31
1167793779674.91
1167516231584.82
1167163580890.68
1166074528141.63
1163757856832.97
1159885574524.52
1154303352773.88
1146948351212.13
1137825191695.59
1126986874930.53
1114521703118.31
1100541730623.91
1085174420745.16
1068556678135.03
1050830196988.4
1032137835991.28
1012620779817.1
992416336164.527
971656255057.635
950465476118.604
928961233629.143
907252460157.523
885439433879.075
863613628631.539
841857740281.551
820245854518.107
798843936320.22
777710621232.401
756893359865.874
736427823736.883
716348352951.694
696688532005.902
677475889309.27
658732506955.979
640475226647.814
622716185052.345
605463323481.526
588720902866.728
572490311380.867
556771072413.578
541557285476.472
526839196663.698
512609687368.64
498860926022.023
485582188878.849
472761864917.152
460387547541.56
448446336286.996
436924981986.568
425810069584.622
415087720890.785
404744085117.015
394757142747.483
385105904771.578
375778565666.441
366763934487.825
358051721361.414
349632073419.969
341495637694.596
333633582087.022
326037647912.388
318700199132.451
311614283025.006
304773642149.223
298172820841.127
291806167732.306
285668270401.956
279731866206.82
273969308541.523
268382472490.577
262981805721.305
257779737428.58
252788807523.332
247987854349.765
243353057160.904
238910260577.498
234706332076.574
230734452363.153
227027974065.95
223677725743.675
220822605074.451
218742701000.955
217878023424.964
219047873814.633
)
;

boundaryField
{
    electrode
    {
        type            driftDiffusionElectronDensity;
        seec            0.05;
        Edepend         1;
        field_emission  0;
        field_enhancement_factor 55;
        work_function   5;
        value           uniform 5.96106410683504e+16;
    }
    ground
    {
        type            driftDiffusionElectronDensity;
        seec            0.05;
        Edepend         1;
        field_emission  0;
        field_enhancement_factor 55;
        work_function   5;
        value           uniform 221225728155.128;
    }
    otherfaces
    {
        type            empty;
    }
}


// ************************************************************************* //
