/*--------------------------------*- C++ -*----------------------------------*\
| =========                 |                                                 |
| \\      /  F ield         | foam-extend: Open Source CFD                    |
|  \\    /   O peration     | Version:     4.0                                |
|   \\  /    A nd           | Web:         http://www.foam-extend.org         |
|    \\/     M anipulation  |                                                 |
\*---------------------------------------------------------------------------*/
FoamFile
{
    version     2.0;
    format      ascii;
    class       volVectorField;
    location    "4.2e-06";
    object      J_Arp1;
}
// * * * * * * * * * * * * * * * * * * * * * * * * * * * * * * * * * * * * * //

dimensions      [1 -1 -1 0 0 0 0];

internalField   nonuniform List<vector> 
300
(
(1.82527936369641e+16 -0 -0)
(6.58347935357147e+16 -0 -0)
(1.17754663641156e+17 -0 -0)
(1.63737810408569e+17 -0 -0)
(2.10329434750619e+17 -0 -0)
(2.5719606406381e+17 -0 -0)
(3.03898833904655e+17 -0 -0)
(3.50614129209786e+17 -0 -0)
(3.97309569104881e+17 -0 -0)
(4.43978182643349e+17 -0 -0)
(4.90621366340217e+17 -0 -0)
(5.37235656208362e+17 -0 -0)
(5.83818861276426e+17 -0 -0)
(6.30368992661173e+17 -0 -0)
(6.76884151417091e+17 -0 -0)
(7.23362676805471e+17 -0 -0)
(7.69803121973711e+17 -0 -0)
(8.16204268315234e+17 -0 -0)
(8.62565139621162e+17 -0 -0)
(9.08885012794606e+17 -0 -0)
(9.55163429264393e+17 -0 -0)
(1.00140020576665e+18 -0 -0)
(1.04759544455984e+18 -0 -0)
(1.09374954371338e+18 -0 -0)
(1.13986320618005e+18 -0 -0)
(1.18593744923119e+18 -0 -0)
(1.2319736130405e+18 -0 -0)
(1.2779733689385e+18 -0 -0)
(1.32393872686231e+18 -0 -0)
(1.3698720429788e+18 -0 -0)
(1.41577602609168e+18 -0 -0)
(1.46165374401713e+18 -0 -0)
(1.50750862925506e+18 -0 -0)
(1.55334448391303e+18 -0 -0)
(1.59916548451158e+18 -0 -0)
(1.64497618545289e+18 -0 -0)
(1.69078152272823e+18 -0 -0)
(1.73658681608503e+18 -0 -0)
(1.78239777133477e+18 -0 -0)
(1.82822048128741e+18 -0 -0)
(1.87406142647989e+18 -0 -0)
(1.91992747453744e+18 -0 -0)
(1.96582587968176e+18 -0 -0)
(2.01176428044032e+18 -0 -0)
(2.0577506970614e+18 -0 -0)
(2.10379352837376e+18 -0 -0)
(2.14990154688628e+18 -0 -0)
(2.19608389400128e+18 -0 -0)
(2.24235007359234e+18 -0 -0)
(2.28870994483156e+18 -0 -0)
(2.33517371438096e+18 -0 -0)
(2.38175192719625e+18 -0 -0)
(2.4284554566366e+18 -0 -0)
(2.47529549326092e+18 -0 -0)
(2.52228353289946e+18 -0 -0)
(2.56943136361459e+18 -0 -0)
(2.61675105129001e+18 -0 -0)
(2.66425492480442e+18 -0 -0)
(2.71195555906755e+18 -0 -0)
(2.7598657582988e+18 -0 -0)
(2.80799853717198e+18 -0 -0)
(2.85636710115885e+18 -0 -0)
(2.90498482584216e+18 -0 -0)
(2.9538652349939e+18 -0 -0)
(3.00302197755472e+18 -0 -0)
(3.05246880352957e+18 -0 -0)
(3.1022195387501e+18 -0 -0)
(3.15228805831412e+18 -0 -0)
(3.20268825918245e+18 -0 -0)
(3.25343403165431e+18 -0 -0)
(3.30453922947711e+18 -0 -0)
(3.35601763885186e+18 -0 -0)
(3.4078829470321e+18 -0 -0)
(3.46014870890298e+18 -0 -0)
(3.51282831329116e+18 -0 -0)
(3.56593494770819e+18 -0 -0)
(3.61948156268286e+18 -0 -0)
(3.67348083442664e+18 -0 -0)
(3.72794512738676e+18 -0 -0)
(3.78288645525969e+18 -0 -0)
(3.83831644144715e+18 -0 -0)
(3.89424627864393e+18 -0 -0)
(3.95068668790499e+18 -0 -0)
(4.00764787646622e+18 -0 -0)
(4.06513949556125e+18 -0 -0)
(4.12317059720003e+18 -0 -0)
(4.18174959053605e+18 -0 -0)
(4.24088419791242e+18 -0 -0)
(4.30058141027215e+18 -0 -0)
(4.36084744259581e+18 -0 -0)
(4.4216876886535e+18 -0 -0)
(4.48310667602592e+18 -0 -0)
(4.54510802081909e+18 -0 -0)
(4.60769438248442e+18 -0 -0)
(4.67086741885527e+18 -0 -0)
(4.73462774103655e+18 -0 -0)
(4.79897486936133e+18 -0 -0)
(4.86390718902856e+18 -0 -0)
(4.92942190660482e+18 -0 -0)
(4.99551500764019e+18 -0 -0)
(5.06218121438351e+18 -0 -0)
(5.12941394499486e+18 -0 -0)
(5.19720527367205e+18 -0 -0)
(5.26554589214782e+18 -0 -0)
(5.3344250723433e+18 -0 -0)
(5.40383063109334e+18 -0 -0)
(5.47374889621356e+18 -0 -0)
(5.54416467453356e+18 -0 -0)
(5.61506122254457e+18 -0 -0)
(5.68642021879981e+18 -0 -0)
(5.75822173906888e+18 -0 -0)
(5.83044423463399e+18 -0 -0)
(5.90306451306016e+18 -0 -0)
(5.97605772243127e+18 -0 -0)
(6.04939733937223e+18 -0 -0)
(6.12305516036473e+18 -0 -0)
(6.19700129755171e+18 -0 -0)
(6.27120417850707e+18 -0 -0)
(6.34563055110961e+18 -0 -0)
(6.42024549302306e+18 -0 -0)
(6.49501242658576e+18 -0 -0)
(6.56989313939923e+18 -0 -0)
(6.64484781096916e+18 -0 -0)
(6.71983504529302e+18 -0 -0)
(6.79481191070574e+18 -0 -0)
(6.86973398630859e+18 -0 -0)
(6.9445554161918e+18 -0 -0)
(7.01922897102834e+18 -0 -0)
(7.09370611820004e+18 -0 -0)
(7.16793710024014e+18 -0 -0)
(7.24187102133203e+18 -0 -0)
(7.3154559435505e+18 -0 -0)
(7.3886390129563e+18 -0 -0)
(7.46136640154757e+18 -0 -0)
(7.53358390475733e+18 -0 -0)
(7.60523798634018e+18 -0 -0)
(7.67625625723748e+18 -0 -0)
(7.74664212403194e+18 -0 -0)
(7.81636136027574e+18 -0 -0)
(7.88536010598012e+18 -0 -0)
(7.95358250582669e+18 -0 -0)
(8.0209737883629e+18 -0 -0)
(8.08747992703742e+18 -0 -0)
(8.15304763923808e+18 -0 -0)
(8.2176245480241e+18 -0 -0)
(8.2811593735137e+18 -0 -0)
(8.34360211097713e+18 -0 -0)
(8.40490435612482e+18 -0 -0)
(8.46501920819407e+18 -0 -0)
(8.52390171126075e+18 -0 -0)
(8.58151141989624e+18 -0 -0)
(8.63779858074332e+18 -0 -0)
(8.6927546440354e+18 -0 -0)
(8.74627776659065e+18 -0 -0)
(8.798460192838e+18 -0 -0)
(8.8491103425675e+18 -0 -0)
(8.89829622487966e+18 -0 -0)
(8.9462973579024e+18 -0 -0)
(8.99181435106207e+18 -0 -0)
(9.03779926932581e+18 -0 -0)
(9.07966689164131e+18 -0 -0)
(9.12115622887362e+18 -0 -0)
(9.16399302359419e+18 -0 -0)
(9.20354289671681e+18 -0 -0)
(9.24130202622947e+18 -0 -0)
(9.27836255005766e+18 -0 -0)
(9.31187723593773e+18 -0 -0)
(9.34715158673176e+18 -0 -0)
(9.37968735250327e+18 -0 -0)
(9.41098982005735e+18 -0 -0)
(9.4441698788951e+18 -0 -0)
(9.47244780424291e+18 -0 -0)
(9.49417088527406e+18 -0 -0)
(9.53107001395337e+18 -0 -0)
(9.55615868819642e+18 -0 -0)
(9.57178560433298e+18 -0 -0)
(9.59636774223939e+18 -0 -0)
(9.63207458672447e+18 -0 -0)
(9.63989283860626e+18 -0 -0)
(9.6612132402789e+18 -0 -0)
(9.68712513835124e+18 -0 -0)
(9.69989271114396e+18 -0 -0)
(9.71105121539154e+18 -0 -0)
(9.72830996928536e+18 -0 -0)
(9.74285637093882e+18 -0 -0)
(9.75129820747562e+18 -0 -0)
(9.77354591471477e+18 -0 -0)
(9.77293108615703e+18 -0 -0)
(9.79317077404818e+18 -0 -0)
(9.79976719000381e+18 -0 -0)
(9.83053156161305e+18 -0 -0)
(9.8388145084135e+18 -0 -0)
(9.8782408677795e+18 -0 -0)
(9.90082824122377e+18 -0 -0)
(9.97134452804371e+18 -0 -0)
(1.00257323665101e+19 -0 -0)
(1.01610185526777e+19 -0 -0)
(1.02951576068141e+19 -0 -0)
(1.05258923771209e+19 -0 -0)
(1.07761075832853e+19 -0 -0)
(1.10261832318406e+19 -0 -0)
(1.1310285380245e+19 -0 -0)
(1.14843657843615e+19 -0 -0)
(1.16601889556087e+19 -0 -0)
(1.17926609282082e+19 -0 -0)
(1.18820459283829e+19 -0 -0)
(1.19563614906337e+19 -0 -0)
(1.20129102107601e+19 -0 -0)
(1.20658033066333e+19 -0 -0)
(1.21097031020593e+19 -0 -0)
(1.21545120832745e+19 -0 -0)
(1.21935454827671e+19 -0 -0)
(1.22357980637142e+19 -0 -0)
(1.22744512340471e+19 -0 -0)
(1.2316546324901e+19 -0 -0)
(1.23551732746567e+19 -0 -0)
(1.23979642627165e+19 -0 -0)
(1.24374788852478e+19 -0 -0)
(1.24816034268882e+19 -0 -0)
(1.252243848042e+19 -0 -0)
(1.2568014276315e+19 -0 -0)
(1.26098639107379e+19 -0 -0)
(1.26561685579151e+19 -0 -0)
(1.26979222075132e+19 -0 -0)
(1.27436297272428e+19 -0 -0)
(1.27839559302038e+19 -0 -0)
(1.2829107587373e+19 -0 -0)
(1.28680003325675e+19 -0 -0)
(1.29120463315638e+19 -0 -0)
(1.29494218314909e+19 -0 -0)
(1.29922262793315e+19 -0 -0)
(1.30278982267413e+19 -0 -0)
(1.30693194083639e+19 -0 -0)
(1.31032251734659e+19 -0 -0)
(1.31431371584296e+19 -0 -0)
(1.31752173174637e+19 -0 -0)
(1.32134874823776e+19 -0 -0)
(1.32434555127929e+19 -0 -0)
(1.3279862904469e+19 -0 -0)
(1.33074832755878e+19 -0 -0)
(1.3341811704747e+19 -0 -0)
(1.33670825604772e+19 -0 -0)
(1.33991520900862e+19 -0 -0)
(1.34228281404083e+19 -0 -0)
(1.34533133298747e+19 -0 -0)
(1.34752086299312e+19 -0 -0)
(1.35043537871852e+19 -0 -0)
(1.35246802778273e+19 -0 -0)
(1.35526673464913e+19 -0 -0)
(1.35715660102052e+19 -0 -0)
(1.35984385388876e+19 -0 -0)
(1.36159225679829e+19 -0 -0)
(1.3641770587128e+19 -0 -0)
(1.36578602092447e+19 -0 -0)
(1.36826722563141e+19 -0 -0)
(1.36973789430756e+19 -0 -0)
(1.37212000846937e+19 -0 -0)
(1.37345373735453e+19 -0 -0)
(1.37574000522419e+19 -0 -0)
(1.37694826217729e+19 -0 -0)
(1.37915332854244e+19 -0 -0)
(1.38024668819746e+19 -0 -0)
(1.38238251761974e+19 -0 -0)
(1.38337624832422e+19 -0 -0)
(1.38545415786414e+19 -0 -0)
(1.38635397975622e+19 -0 -0)
(1.38836359093023e+19 -0 -0)
(1.38915670516013e+19 -0 -0)
(1.39120844372007e+19 -0 -0)
(1.3918811142949e+19 -0 -0)
(1.39388329519757e+19 -0 -0)
(1.39445204753937e+19 -0 -0)
(1.39641325258957e+19 -0 -0)
(1.39688313669666e+19 -0 -0)
(1.39880733022918e+19 -0 -0)
(1.39918191510353e+19 -0 -0)
(1.4010750821681e+19 -0 -0)
(1.40136149421221e+19 -0 -0)
(1.40322650770551e+19 -0 -0)
(1.40342799942986e+19 -0 -0)
(1.40526711524848e+19 -0 -0)
(1.40539370146715e+19 -0 -0)
(1.40721847158127e+19 -0 -0)
(1.40727344601801e+19 -0 -0)
(1.40908612223625e+19 -0 -0)
(1.40907175184767e+19 -0 -0)
(1.41087605998348e+19 -0 -0)
(1.41079430094288e+19 -0 -0)
(1.41258809341389e+19 -0 -0)
(1.41243168812146e+19 -0 -0)
(1.41420026512464e+19 -0 -0)
(1.41395126115178e+19 -0 -0)
(1.41569197777471e+19 -0 -0)
(1.41534845282277e+19 -0 -0)
(1.41704837856482e+19 -0 -0)
(1.41659816330782e+19 -0 -0)
(1.41825044432903e+19 -0 -0)
(1.41768102625363e+19 -0 -0)
(1.41926780165759e+19 -0 -0)
(1.41745627413706e+19 -0 -0)
)
;

boundaryField
{
    electrode
    {
        type            calculated;
        value           uniform (-3815976061.76814 -0 -0);
    }
    ground
    {
        type            calculated;
        value           uniform (1.41927323915939e+19 -0 -0);
    }
    otherfaces
    {
        type            empty;
    }
}


// ************************************************************************* //
