/*--------------------------------*- C++ -*----------------------------------*\
| =========                 |                                                 |
| \\      /  F ield         | foam-extend: Open Source CFD                    |
|  \\    /   O peration     | Version:     4.0                                |
|   \\  /    A nd           | Web:         http://www.foam-extend.org         |
|    \\/     M anipulation  |                                                 |
\*---------------------------------------------------------------------------*/
FoamFile
{
    version     2.0;
    format      ascii;
    class       volVectorField;
    location    "4.2e-06";
    object      J_electron;
}
// * * * * * * * * * * * * * * * * * * * * * * * * * * * * * * * * * * * * * //

dimensions      [1 -1 -1 0 0 0 0];

internalField   nonuniform List<vector> 
300
(
(-1.26028806447751e+19 0 0)
(-1.29281123648583e+19 0 0)
(-1.52646794045102e+19 0 0)
(-1.48067614315683e+19 0 0)
(-1.48051462027237e+19 0 0)
(-1.47947084377286e+19 0 0)
(-1.47354137203305e+19 0 0)
(-1.46912828534219e+19 0 0)
(-1.46450170037798e+19 0 0)
(-1.45981123422714e+19 0 0)
(-1.45515859892672e+19 0 0)
(-1.4504977675997e+19 0 0)
(-1.44583726890259e+19 0 0)
(-1.44117807650488e+19 0 0)
(-1.43651915027851e+19 0 0)
(-1.4318607526895e+19 0 0)
(-1.42720282268634e+19 0 0)
(-1.42254528392422e+19 0 0)
(-1.41788806017057e+19 0 0)
(-1.4132310459294e+19 0 0)
(-1.40857411532037e+19 0 0)
(-1.40391712047767e+19 0 0)
(-1.39925988401851e+19 0 0)
(-1.39460221296876e+19 0 0)
(-1.38994387674536e+19 0 0)
(-1.3852846246795e+19 0 0)
(-1.3806241757017e+19 0 0)
(-1.37596222473149e+19 0 0)
(-1.37129842894559e+19 0 0)
(-1.36663242473174e+19 0 0)
(-1.36196381287506e+19 0 0)
(-1.35729216534032e+19 0 0)
(-1.35261702460846e+19 0 0)
(-1.34793789658852e+19 0 0)
(-1.34325426584547e+19 0 0)
(-1.33856557293833e+19 0 0)
(-1.33387123946923e+19 0 0)
(-1.32917064435271e+19 0 0)
(-1.32446314331042e+19 0 0)
(-1.31974805380546e+19 0 0)
(-1.31502467114133e+19 0 0)
(-1.3102922462085e+19 0 0)
(-1.30555001337453e+19 0 0)
(-1.30079716893527e+19 0 0)
(-1.29603287547314e+19 0 0)
(-1.29125627934186e+19 0 0)
(-1.28646648378821e+19 0 0)
(-1.28166257493903e+19 0 0)
(-1.27684360896963e+19 0 0)
(-1.27200861091248e+19 0 0)
(-1.26715658671368e+19 0 0)
(-1.26228651410803e+19 0 0)
(-1.25739735221789e+19 0 0)
(-1.25248803337058e+19 0 0)
(-1.24755747021814e+19 0 0)
(-1.24260456132371e+19 0 0)
(-1.23762817736303e+19 0 0)
(-1.23262718831336e+19 0 0)
(-1.22760043017433e+19 0 0)
(-1.22254673938059e+19 0 0)
(-1.21746493895798e+19 0 0)
(-1.21235383945286e+19 0 0)
(-1.20721224612192e+19 0 0)
(-1.20203895922114e+19 0 0)
(-1.19683277292521e+19 0 0)
(-1.19159248184628e+19 0 0)
(-1.18631688492268e+19 0 0)
(-1.18100477876702e+19 0 0)
(-1.1756549673855e+19 0 0)
(-1.17026626634753e+19 0 0)
(-1.16483750145706e+19 0 0)
(-1.15936750331628e+19 0 0)
(-1.15385513164839e+19 0 0)
(-1.14829925318496e+19 0 0)
(-1.14269876523452e+19 0 0)
(-1.1370525799669e+19 0 0)
(-1.13135964624548e+19 0 0)
(-1.12561893210451e+19 0 0)
(-1.11982944701949e+19 0 0)
(-1.11399023113106e+19 0 0)
(-1.1081003642065e+19 0 0)
(-1.10215896444109e+19 0 0)
(-1.09616520095877e+19 0 0)
(-1.09011828022295e+19 0 0)
(-1.08401746634644e+19 0 0)
(-1.07786207305649e+19 0 0)
(-1.07165146771122e+19 0 0)
(-1.06538507904701e+19 0 0)
(-1.05906239198027e+19 0 0)
(-1.05268296005336e+19 0 0)
(-1.04624639676923e+19 0 0)
(-1.03975238728082e+19 0 0)
(-1.033200684989e+19 0 0)
(-1.02659111508446e+19 0 0)
(-1.01992358164876e+19 0 0)
(-1.01319805352207e+19 0 0)
(-1.00641458857983e+19 0 0)
(-9.99573317950059e+18 0 0)
(-9.92674446108367e+18 0 0)
(-9.85718268015883e+18 0 0)
(-9.787051500351e+18 0 0)
(-9.71635541796402e+18 0 0)
(-9.64509971549258e+18 0 0)
(-9.57329048240023e+18 0 0)
(-9.50093450486428e+18 0 0)
(-9.42803939262097e+18 0 0)
(-9.35461345245895e+18 0 0)
(-9.28066560945973e+18 0 0)
(-9.20620553229671e+18 0 0)
(-9.13124343086055e+18 0 0)
(-9.05579000789624e+18 0 0)
(-8.97985651640789e+18 0 0)
(-8.90345454720778e+18 0 0)
(-8.82659594999274e+18 0 0)
(-8.74929283247846e+18 0 0)
(-8.67155731077608e+18 0 0)
(-8.59340147998694e+18 0 0)
(-8.51483716213906e+18 0 0)
(-8.43587582846095e+18 0 0)
(-8.35652836210088e+18 0 0)
(-8.27680483360847e+18 0 0)
(-8.19671425717109e+18 0 0)
(-8.11626440722481e+18 0 0)
(-8.03546138018893e+18 0 0)
(-7.95430938867296e+18 0 0)
(-7.87281031361253e+18 0 0)
(-7.7909633953096e+18 0 0)
(-7.70876465585114e+18 0 0)
(-7.62620651075849e+18 0 0)
(-7.54327716697997e+18 0 0)
(-7.4599600035028e+18 0 0)
(-7.37623170914032e+18 0 0)
(-7.29206752270038e+18 0 0)
(-7.20740811578435e+18 0 0)
(-7.12210471302621e+18 0 0)
(-7.03661046416592e+18 0 0)
(-6.94634559903787e+18 0 0)
(-6.85395747454897e+18 0 0)
(-6.76474002790783e+18 0 0)
(-6.67551027430425e+18 0 0)
(-6.58520316993811e+18 0 0)
(-6.49363036112001e+18 0 0)
(-6.40066268095631e+18 0 0)
(-6.3061345047224e+18 0 0)
(-6.20984676324685e+18 0 0)
(-6.11157115297124e+18 0 0)
(-6.01104301474343e+18 0 0)
(-5.90797442334379e+18 0 0)
(-5.80203085218238e+18 0 0)
(-5.69273628989954e+18 0 0)
(-5.58011686532835e+18 0 0)
(-5.46227060232054e+18 0 0)
(-5.34195259119239e+18 0 0)
(-5.21264333704292e+18 0 0)
(-5.08098709165074e+18 0 0)
(-4.94335600385589e+18 0 0)
(-4.78172114115153e+18 0 0)
(-4.65591279233899e+18 0 0)
(-4.42652762757818e+18 0 0)
(-4.26346879896466e+18 0 0)
(-3.98403418111187e+18 0 0)
(-3.07500564655007e+18 0 0)
(-2.4502798132571e+18 0 0)
(-2.50074053118788e+18 0 0)
(-2.46037105996831e+18 0 0)
(-2.23780000621081e+18 0 0)
(-1.71390001172552e+18 0 0)
(-1.08897037005829e+18 0 0)
(-6.68366723795124e+17 0 0)
(-1.97302997133296e+17 0 0)
(-2.65488975718777e+17 0 0)
(-1.34365317758032e+18 0 0)
(-1.02431163074531e+18 0 0)
(-4.45496493378372e+17 0 0)
(-2.18316252384539e+18 0 0)
(-3.15940118743587e+18 0 0)
(-2.3601499888985e+18 0 0)
(-3.6913259187043e+18 0 0)
(-4.81186076647175e+18 0 0)
(-3.96859349079163e+18 0 0)
(-4.16612830878368e+18 0 0)
(-3.97070542735357e+18 0 0)
(-2.13666664807504e+18 0 0)
(-5.07526865465377e+17 0 0)
(1.31091290053096e+18 0 0)
(3.91037507831962e+18 0 0)
(6.22402006440529e+18 0 0)
(8.00181645851073e+18 0 0)
(9.52279579605651e+18 0 0)
(1.01442600280004e+19 0 0)
(1.15654098371632e+19 0 0)
(9.24768580168581e+18 0 0)
(8.23107267818501e+18 0 0)
(7.18717939540715e+18 0 0)
(5.25650572290281e+18 0 0)
(5.34698649180288e+18 0 0)
(3.0928883619241e+18 0 0)
(-3.97854764643982e+18 0 0)
(1.29004752713151e+18 0 0)
(-1.61127680392262e+18 0 0)
(-2.47090884039804e+18 0 0)
(-2.38148879372645e+18 0 0)
(-2.30908828412984e+18 0 0)
(-2.40127755487989e+18 0 0)
(-2.61575117834241e+18 0 0)
(-2.82477118392277e+18 0 0)
(-2.95407779000546e+18 0 0)
(-3.01790408996193e+18 0 0)
(-3.03314057167757e+18 0 0)
(-3.01870764688608e+18 0 0)
(-2.99341242269697e+18 0 0)
(-2.95808297139813e+18 0 0)
(-2.91643178549343e+18 0 0)
(-2.87509175796929e+18 0 0)
(-2.83066168923087e+18 0 0)
(-2.78406225227595e+18 0 0)
(-2.73609488751992e+18 0 0)
(-2.68762443513335e+18 0 0)
(-2.63900827663567e+18 0 0)
(-2.58945486828631e+18 0 0)
(-2.54069767625394e+18 0 0)
(-2.49127896936448e+18 0 0)
(-2.44191549832339e+18 0 0)
(-2.3926682994964e+18 0 0)
(-2.34367380302719e+18 0 0)
(-2.29500782127304e+18 0 0)
(-2.24675954243437e+18 0 0)
(-2.19901523012882e+18 0 0)
(-2.15184712594742e+18 0 0)
(-2.105320109532e+18 0 0)
(-2.05949178064309e+18 0 0)
(-2.01441233061538e+18 0 0)
(-1.97012540919086e+18 0 0)
(-1.92666776734465e+18 0 0)
(-1.88407011232576e+18 0 0)
(-1.84235698488366e+18 0 0)
(-1.80154757313704e+18 0 0)
(-1.7616556155118e+18 0 0)
(-1.72269034907927e+18 0 0)
(-1.68465647981948e+18 0 0)
(-1.64755487329439e+18 0 0)
(-1.6113850377762e+18 0 0)
(-1.57614131702381e+18 0 0)
(-1.54176156011975e+18 0 0)
(-1.50832060306169e+18 0 0)
(-1.47584610708936e+18 0 0)
(-1.44417564504743e+18 0 0)
(-1.41336944041493e+18 0 0)
(-1.3834005920914e+18 0 0)
(-1.35425460357579e+18 0 0)
(-1.32591122397365e+18 0 0)
(-1.29835033061812e+18 0 0)
(-1.27155091882788e+18 0 0)
(-1.24549543855947e+18 0 0)
(-1.22016160748678e+18 0 0)
(-1.19547617189094e+18 0 0)
(-1.17152653133291e+18 0 0)
(-1.14824370831093e+18 0 0)
(-1.12554152472505e+18 0 0)
(-1.10347600966538e+18 0 0)
(-1.08200076387304e+18 0 0)
(-1.06110036711494e+18 0 0)
(-1.04075428833487e+18 0 0)
(-1.02094380056313e+18 0 0)
(-1.00165168093313e+18 0 0)
(-9.82854410068225e+17 0 0)
(-9.64550115214255e+17 0 0)
(-9.46609627944978e+17 0 0)
(-9.29323051980595e+17 0 0)
(-9.12366399517988e+17 0 0)
(-8.9584202430203e+17 0 0)
(-8.79721108701816e+17 0 0)
(-8.63997611805825e+17 0 0)
(-8.48658107192367e+17 0 0)
(-8.33690985731969e+17 0 0)
(-8.19084433316384e+17 0 0)
(-8.04827196926877e+17 0 0)
(-7.90908318955269e+17 0 0)
(-7.77316573894336e+17 0 0)
(-7.64043046139998e+17 0 0)
(-7.5106519542162e+17 0 0)
(-7.38399589908446e+17 0 0)
(-7.25796107149571e+17 0 0)
(-7.13940680504547e+17 0 0)
(-7.02211150378399e+17 0 0)
(-6.90731128358911e+17 0 0)
(-6.79503484325277e+17 0 0)
(-6.68555107217889e+17 0 0)
(-6.57585598548841e+17 0 0)
(-6.47414625739929e+17 0 0)
(-6.37426052049597e+17 0 0)
(-6.27582800475058e+17 0 0)
(-6.17617271495571e+17 0 0)
(-6.08972519487021e+17 0 0)
(-5.99741250178615e+17 0 0)
(-5.91613194682002e+17 0 0)
(-5.83517099514186e+17 0 0)
(-5.77015623860441e+17 0 0)
(-5.70905153155743e+17 0 0)
(-5.60981678568327e+17 0 0)
)
;

boundaryField
{
    electrode
    {
        type            calculated;
        value           uniform (-1.50432703299091e+19 0 0);
    }
    ground
    {
        type            calculated;
        value           uniform (-5.58438452970028e+17 0 0);
    }
    otherfaces
    {
        type            empty;
    }
}


// ************************************************************************* //
