/*--------------------------------*- C++ -*----------------------------------*\
| =========                 |                                                 |
| \\      /  F ield         | foam-extend: Open Source CFD                    |
|  \\    /   O peration     | Version:     4.0                                |
|   \\  /    A nd           | Web:         http://www.foam-extend.org         |
|    \\/     M anipulation  |                                                 |
\*---------------------------------------------------------------------------*/
FoamFile
{
    version     2.0;
    format      ascii;
    class       volScalarField;
    location    "4.2e-06";
    object      PhiMean;
}
// * * * * * * * * * * * * * * * * * * * * * * * * * * * * * * * * * * * * * //

dimensions      [0 0 0 1 0 0 0];

internalField   nonuniform List<scalar> 
300
(
699.982494709838
699.98082065505
699.978887652803
699.976714069441
699.974309547514
699.97166674534
699.968784438968
699.965661177057
699.96229557182
699.958686594199
699.95483339706
699.950735338474
699.9463919386
699.941802867273
699.936967929658
699.93188705201
699.926560270185
699.920987722076
699.915169638002
699.909106331652
699.902798193862
699.896245686115
699.88944933453
699.882409723811
699.875127490368
699.867603330513
699.859837985964
699.851832238517
699.84358690896
699.835102846237
699.826380919615
699.817422034921
699.808227124268
699.798797126104
699.78913298106
699.779235626905
699.769105992598
699.758744995823
699.748153536935
699.737332491987
699.726282709788
699.715005009233
699.703500170401
699.691768930166
699.679811977616
699.667629949634
699.655223426289
699.642592927837
699.629738911384
699.616661772472
699.603361844786
699.589839414021
699.576094705435
699.562127885566
699.547939039955
699.533528164282
699.51889514868
699.504039771192
699.488961691923
699.473660446003
699.45813543828
699.442385937368
699.426411068444
699.410209805929
699.393780994727
699.377123342203
699.360235383978
699.343115478192
699.325761799335
699.308172330857
699.290344857662
699.272276956842
699.253966006196
699.23540918163
699.216603429465
699.197545470113
699.17823180813
699.158658714496
699.138822214948
699.11871805412
699.098341726966
699.07768842843
699.0567530389
699.035530117066
699.014013882425
698.992198225235
698.970076686349
698.94764242647
698.924888210651
698.901806405738
698.878388958277
698.854627375852
698.830512760361
698.806035737546
698.781186433675
698.755954459127
698.730328885524
698.704298226902
698.677850412093
698.650972767068
698.623651992989
698.595874133165
698.567624538976
698.538887878731
698.509648074062
698.479888271007
698.449590818107
698.418737211559
698.38730808045
698.355283130947
698.322641094414
698.289359685418
698.255415549324
698.2207842228
698.185440081365
698.149356267103
698.112504656968
698.074855807203
698.036378853987
697.99704142911
697.956809577622
697.915647701035
697.873518443987
697.830382632997
697.786199145489
697.740924763254
697.694514042145
697.646919198943
697.598089932573
697.547973264782
697.496513362966
697.443651351904
697.389325096936
697.33346896253
697.27601356638
697.216885558143
697.156007271914
697.093296357798
697.028665401633
696.962021541702
696.893265976746
696.822293440182
696.748991626091
696.673240544085
696.594911818582
696.513867909229
696.429961141356
696.343032658205
696.25291120074
696.159411739678
696.062334010129
695.961460692974
695.856555349645
695.747360142237
695.633593029485
695.514944539076
695.391074277828
695.261606101182
695.126123942071
694.984163763812
694.835208998723
694.678674241731
694.513868198138
694.339988647143
694.156127065213
693.96124089629
693.754119158485
693.533332012354
693.297186384096
693.043673147574
692.770412920789
692.474646975583
692.153230805367
691.802453683882
691.418028652736
690.995284083425
690.528950126363
690.01313664682
689.441766600694
688.808363563661
688.106171215708
687.328658035794
686.469505913208
685.522600260018
684.482807096443
683.345714291372
682.107642328425
680.766074294297
679.319550492992
677.76729903396
676.109201331105
674.345796054444
672.478259574487
670.508068234361
668.436463855161
666.264460144936
663.992809607331
661.62203794774
659.15259008017
656.584770952343
653.918953357802
651.15557014685
648.295181002263
645.338667617364
642.287130865573
639.141662325599
635.903310163585
632.573036821773
629.15174534581
625.640247189982
622.039299481364
618.349573188408
614.571820519721
610.706923180944
606.755711958054
602.718942199935
598.597329991942
594.39152504097
590.10214808081
585.729760870134
581.274905037938
576.738069461961
572.119730618822
567.420318216927
562.640257798146
557.780041481434
552.840263386556
547.821471298215
542.724209423097
537.548978305007
532.296279399966
526.966572378382
521.560323123575
516.077960668377
510.519924373196
504.886615722087
499.178449169868
493.395801614058
487.53906577749
481.608597207352
475.604770257402
469.527923124595
463.378419229416
457.156663043646
450.863140017363
444.498287338692
438.062568707984
431.556398913669
424.980221685829
418.334430940055
411.61945202975
404.835659263578
397.983461039294
391.063213103697
384.075308143706
377.020084282147
369.897919536378
362.70913527867
355.454095723994
348.133106351314
340.746518290609
333.2946219086
325.777755983524
318.196196260069
310.550269862409
302.840243414865
295.066446248562
287.229146297778
279.328710066866
271.365467899305
263.339824255455
255.252096194234
247.102677555173
238.891871027082
230.620060500806
222.287534739595
213.894668312062
205.441736531546
196.929105216979
188.357036705948
179.725888604712
171.035910651908
162.287452790807
153.480752531062
144.616152827931
135.693879386477
126.714268716982
117.677535013168
108.584008831876
99.4338931291164
90.2275129260878
80.9650604603891
71.6468559197032
62.2730811040029
52.8440517274915
43.3599397968856
33.821057415123
24.2275672576287
14.5797789462729
4.87784671457566
)
;

boundaryField
{
    electrode
    {
        type            calculated;
        value           uniform 700.00000000049;
    }
    ground
    {
        type            calculated;
        value           uniform 0;
    }
    otherfaces
    {
        type            empty;
    }
}


// ************************************************************************* //
