/*--------------------------------*- C++ -*----------------------------------*\
| =========                 |                                                 |
| \\      /  F ield         | foam-extend: Open Source CFD                    |
|  \\    /   O peration     | Version:     4.0                                |
|   \\  /    A nd           | Web:         http://www.foam-extend.org         |
|    \\/     M anipulation  |                                                 |
\*---------------------------------------------------------------------------*/
FoamFile
{
    version     2.0;
    format      ascii;
    class       volScalarField;
    location    "4.2e-06";
    object      Sy_electron;
}
// * * * * * * * * * * * * * * * * * * * * * * * * * * * * * * * * * * * * * //

dimensions      [1 -3 -1 0 0 0 0];

internalField   nonuniform List<scalar> 
300
(
3.48746853015183e-09
3.48844717559043e-09
3.48887215701482e-09
3.488881613084e-09
3.48895704416094e-09
3.48900546215771e-09
3.48903826413036e-09
3.48906225357045e-09
3.48907454772046e-09
3.48907554306912e-09
3.48906512946735e-09
3.48904308647041e-09
3.48900927744153e-09
3.48896355139715e-09
3.48890576199547e-09
3.48883576831113e-09
3.48875343198152e-09
3.48865861707795e-09
3.48855118923762e-09
3.48843101477093e-09
3.48829795978892e-09
3.48815188924735e-09
3.48799266597812e-09
3.48782014967603e-09
3.48763419579745e-09
3.48743465455008e-09
3.48722136968966e-09
3.48699417734404e-09
3.48675290483433e-09
3.48649736938353e-09
3.48622737680151e-09
3.48594272023661e-09
3.48564317876604e-09
3.4853285159569e-09
3.48499847844063e-09
3.48465279444029e-09
3.48429117223514e-09
3.48391329863405e-09
3.48351883738154e-09
3.48310742751502e-09
3.48267868172343e-09
3.48223218467055e-09
3.48176749125596e-09
3.48128412487159e-09
3.48078157562531e-09
3.48025929852806e-09
3.47971671165319e-09
3.47915319428579e-09
3.47856808501066e-09
3.47796067982642e-09
3.47733023019343e-09
3.4766759411238e-09
3.4759969691458e-09
3.47529242038276e-09
3.4745613484806e-09
3.47380275262085e-09
3.47301557545435e-09
3.47219870106798e-09
3.47135095294288e-09
3.47047109188555e-09
3.46955781396928e-09
3.4686097484618e-09
3.46762545574694e-09
3.46660342525319e-09
3.46554207344409e-09
3.4644397417591e-09
3.46329469450926e-09
3.46210511686559e-09
3.46086911285019e-09
3.45958470332861e-09
3.45824982401227e-09
3.45686232350277e-09
3.4554199613685e-09
3.45392040622334e-09
3.45236123380999e-09
3.45073992520147e-09
3.44905386495352e-09
3.44730033931808e-09
3.44547653454668e-09
3.44357953506664e-09
3.44160632200811e-09
3.43955377144405e-09
3.43741865286415e-09
3.43519762767853e-09
3.43288724772301e-09
3.43048395391047e-09
3.42798407485241e-09
3.42538382553666e-09
3.42267930609294e-09
3.41986650066416e-09
3.41694127622612e-09
3.41389938150317e-09
3.41073644617041e-09
3.40744797968667e-09
3.40402937049428e-09
3.40047588520131e-09
3.39678266781363e-09
3.39294473902152e-09
3.38895699553514e-09
3.38481420950077e-09
3.38051102792032e-09
3.37604197211816e-09
3.37140143721142e-09
3.36658369177162e-09
3.36158287724007e-09
3.35639300755822e-09
3.3510079687599e-09
3.34542151844833e-09
3.33962728543372e-09
3.33361876916482e-09
3.32738933918477e-09
3.32093223452301e-09
3.31424056295584e-09
3.30730730020535e-09
3.30012528896064e-09
3.29268723771178e-09
3.28498571944929e-09
3.27701317014368e-09
3.26876188681493e-09
3.26022402540561e-09
3.25139159823595e-09
3.24225647114396e-09
3.23281035996176e-09
3.2230448266641e-09
3.21295127474105e-09
3.20252094390672e-09
3.19174490403303e-09
3.18061404829626e-09
3.16911908515116e-09
3.15725052932345e-09
3.14499869150087e-09
3.13235366708031e-09
3.11930532171535e-09
3.10584328401641e-09
3.09195696607194e-09
3.07763536033038e-09
3.06286856365624e-09
3.04916759072551e-09
3.03527708464194e-09
3.02092677351167e-09
3.00610339560965e-09
2.99079360106575e-09
2.97498353997046e-09
2.95865878858847e-09
2.94180430573321e-09
2.92440437930316e-09
2.90644256565527e-09
2.8879016173e-09
2.86876340448065e-09
2.84900887765552e-09
2.82861777444639e-09
2.80756911337896e-09
2.78583979489563e-09
2.76340653306233e-09
2.74024391506817e-09
2.71632263018707e-09
2.69162153792446e-09
2.66609573454985e-09
2.6397373978094e-09
2.61252125164629e-09
2.58442279998124e-09
2.55580028895762e-09
2.52679422666254e-09
2.49675045530452e-09
2.46302690555531e-09
2.42601734816106e-09
2.38757040012931e-09
2.34779756041855e-09
2.3064874866741e-09
2.26336364687557e-09
2.21790280550246e-09
2.16879114172049e-09
2.11604571939732e-09
2.0608196138664e-09
2.00150467941111e-09
1.93669523313565e-09
1.86022004726575e-09
1.77955191667518e-09
1.69458167124583e-09
1.60796663040174e-09
1.52191056143568e-09
1.43729261598666e-09
1.34686407983476e-09
1.26031000578925e-09
1.18690494093822e-09
1.12607161099512e-09
1.07226209689532e-09
1.0445139183497e-09
1.03369818847372e-09
1.04935476755032e-09
1.10387253320018e-09
1.2104302357897e-09
1.37279356802303e-09
1.65162026296876e-09
2.1005975294877e-09
2.85690640620779e-09
4.03546015134505e-09
5.24480453042774e-09
6.35996093614841e-09
7.37857861285932e-09
7.39477619336684e-09
6.58602455601809e-09
5.36692318443829e-09
4.13278522306345e-09
3.17735393772436e-09
2.49950945801762e-09
2.05228312760805e-09
1.76645674877419e-09
1.58677182211683e-09
1.48245628992315e-09
1.41374725280187e-09
1.37652594402521e-09
1.35927341605469e-09
1.35003921570665e-09
1.34705308478282e-09
1.34847241426663e-09
1.35193824183357e-09
1.35590330708325e-09
1.35936264208784e-09
1.36160945871658e-09
1.36211465851886e-09
1.36015605940777e-09
1.35489590929467e-09
1.347453532405e-09
1.33784287539281e-09
1.3261330571125e-09
1.31243350540826e-09
1.29688067068337e-09
1.27962844700088e-09
1.26084133036571e-09
1.24068906909024e-09
1.21934249123021e-09
1.19697023200519e-09
1.17373619250849e-09
1.14979759863501e-09
1.1253035547603e-09
1.10039401001473e-09
1.07519907155381e-09
1.04983859879911e-09
1.02442203396966e-09
9.9904843691413e-10
9.73806682516463e-10
9.48776039889514e-10
9.2402718581657e-10
8.99617488806124e-10
8.75590151634142e-10
8.51986998003282e-10
8.288491134597e-10
8.06210299932955e-10
7.84097902287772e-10
7.6253303227164e-10
7.41531204829611e-10
7.21102936792999e-10
7.01254349590517e-10
6.8198812616857e-10
6.63304613223931e-10
6.45197585377367e-10
6.27657221533644e-10
6.10675460382558e-10
5.94243928638673e-10
5.78350698492604e-10
5.62982782396033e-10
5.48126203208155e-10
5.3376635925247e-10
5.19888192784398e-10
5.06476415302506e-10
4.93515134240952e-10
4.80988579706814e-10
4.68871026914467e-10
4.57137965844044e-10
4.45775997565469e-10
4.34772261866124e-10
4.24114937176576e-10
4.13792666974014e-10
4.03794641251564e-10
3.94110617639233e-10
3.84730980141629e-10
3.75646792810564e-10
3.66849865948968e-10
3.58332761316408e-10
3.50088923510857e-10
3.42111466017047e-10
3.33822771043014e-10
3.25746585297282e-10
3.1785740670257e-10
3.10157165495161e-10
3.02656756294293e-10
2.95368690235593e-10
2.88305606289327e-10
2.8048410635311e-10
2.72626676134512e-10
2.64954919233133e-10
2.57513886195296e-10
2.48608185016816e-10
2.39638483098937e-10
2.29995463086457e-10
2.18656220668274e-10
2.05218098981061e-10
1.88400865915784e-10
1.64817621171544e-10
)
;

boundaryField
{
    electrode
    {
        type            zeroGradient;
    }
    ground
    {
        type            zeroGradient;
    }
    otherfaces
    {
        type            empty;
    }
}


// ************************************************************************* //
