/*--------------------------------*- C++ -*----------------------------------*\
| =========                 |                                                 |
| \\      /  F ield         | foam-extend: Open Source CFD                    |
|  \\    /   O peration     | Version:     4.0                                |
|   \\  /    A nd           | Web:         http://www.foam-extend.org         |
|    \\/     M anipulation  |                                                 |
\*---------------------------------------------------------------------------*/
FoamFile
{
    version     2.0;
    format      ascii;
    class       volVectorField;
    location    "7e-10";
    object      E;
}
// * * * * * * * * * * * * * * * * * * * * * * * * * * * * * * * * * * * * * //

dimensions      [0 0 0 1 0 0 0];

internalField   nonuniform List<vector> 
250
(
(-0 15864.5825446641 -0)
(-0 10576.7984272167 -0)
(-0 10576.798171194 -0)
(-0 10576.7979642398 -0)
(-0 10576.7980728174 -0)
(-0 10576.7981585785 -0)
(-0 10576.7981279326 -0)
(-0 10576.7982883826 -0)
(-0 10576.7982550057 -0)
(-0 10576.7980604517 -0)
(-0 10576.7981649749 -0)
(-0 10576.7982959398 -0)
(-0 10576.7983814461 -0)
(-0 10576.7984455315 -0)
(-0 10576.7985339592 -0)
(-0 10576.7986171399 -0)
(-0 10576.7988370518 -0)
(-0 10576.7989668084 -0)
(-0 10576.7989304571 -0)
(-0 10576.7990360514 -0)
(-0 10576.7992622407 -0)
(-0 10576.7994160732 -0)
(-0 10576.7993230953 -0)
(-0 10576.7992494899 -0)
(-0 10576.7992680058 -0)
(-0 10576.7992129533 -0)
(-0 10576.7991450763 -0)
(-0 10576.7991501157 -0)
(-0 10576.7991102475 -0)
(-0 10576.7990630024 -0)
(-0 10576.7989923491 -0)
(-0 10576.7989463964 -0)
(-0 10576.7990328289 -0)
(-0 10576.7990319412 -0)
(-0 10576.7989326489 -0)
(-0 10576.7988590735 -0)
(-0 10576.7989329607 -0)
(-0 10576.7990963328 -0)
(-0 10576.7991040516 -0)
(-0 10576.7991818329 -0)
(-0 10576.7993723725 -0)
(-0 10576.7994622796 -0)
(-0 10576.799432017 -0)
(-0 10576.7994156928 -0)
(-0 10576.7994240832 -0)
(-0 10576.7994019385 -0)
(-0 10576.7994164551 -0)
(-0 10576.7993690344 -0)
(-0 10576.7992897504 -0)
(-0 10576.7993333969 -0)
(-0 10576.7993503062 -0)
(-0 10576.7993914076 -0)
(-0 10576.7995345939 -0)
(-0 10576.7994565216 -0)
(-0 10576.7994367697 -0)
(-0 10576.7995348828 -0)
(-0 10576.7994954251 -0)
(-0 10576.7994792194 -0)
(-0 10576.7995738073 -0)
(-0 10576.7996236177 -0)
(-0 10576.7997482447 -0)
(-0 10576.7998794324 -0)
(-0 10576.7998619447 -0)
(-0 10576.7998409066 -0)
(-0 10576.7997811333 -0)
(-0 10576.7996933647 -0)
(-0 10576.799685245 -0)
(-0 10576.7997905179 -0)
(-0 10576.7997932238 -0)
(-0 10576.7997620928 -0)
(-0 10576.7997364581 -0)
(-0 10576.7996436591 -0)
(-0 10576.7997772847 -0)
(-0 10576.7998716252 -0)
(-0 10576.7998480766 -0)
(-0 10576.799836738 -0)
(-0 10576.7997574808 -0)
(-0 10576.7996999556 -0)
(-0 10576.7997945653 -0)
(-0 10576.7999227342 -0)
(-0 10576.8000653066 -0)
(-0 10576.8002377306 -0)
(-0 10576.8003450873 -0)
(-0 10576.800463338 -0)
(-0 10576.8004837763 -0)
(-0 10576.8006430196 -0)
(-0 10576.8009483187 -0)
(-0 10576.8009429691 -0)
(-0 10576.8007682778 -0)
(-0 10576.8008548601 -0)
(-0 10576.8010069063 -0)
(-0 10576.8009900345 -0)
(-0 10576.8009537795 -0)
(-0 10576.8009790807 -0)
(-0 10576.800956154 -0)
(-0 10576.8009129129 -0)
(-0 10576.8009902711 -0)
(-0 10576.8010325941 -0)
(-0 10576.8010101343 -0)
(-0 10576.8010041616 -0)
(-0 10576.8010661713 -0)
(-0 10576.8012339299 -0)
(-0 10576.8012505437 -0)
(-0 10576.8011389406 -0)
(-0 10576.8012162768 -0)
(-0 10576.8012807352 -0)
(-0 10576.8012371203 -0)
(-0 10576.8012485674 -0)
(-0 10576.8012332002 -0)
(-0 10576.8012796191 -0)
(-0 10576.8013844453 -0)
(-0 10576.8014976516 -0)
(-0 10576.8015611294 -0)
(-0 10576.8015147114 -0)
(-0 10576.8013705128 -0)
(-0 10576.8013186085 -0)
(-0 10576.8013762537 -0)
(-0 10576.8014144674 -0)
(-0 10576.8014387022 -0)
(-0 10576.8013981624 -0)
(-0 10576.8013721259 -0)
(-0 10576.8013640765 -0)
(-0 10576.8012963691 -0)
(-0 10576.8012861456 -0)
(-0 10576.801428812 -0)
(-0 10576.8016027358 -0)
(-0 10576.8016877173 -0)
(-0 10576.8017181907 -0)
(-0 10576.801733315 -0)
(-0 10576.8017458831 -0)
(-0 10576.8016442765 -0)
(-0 10576.801514302 -0)
(-0 10576.8015654672 -0)
(-0 10576.8016346931 -0)
(-0 10576.8016003763 -0)
(-0 10576.8016196884 -0)
(-0 10576.8016421675 -0)
(-0 10576.8015899101 -0)
(-0 10576.8015332523 -0)
(-0 10576.8015217626 -0)
(-0 10576.8016089347 -0)
(-0 10576.801674114 -0)
(-0 10576.8017202564 -0)
(-0 10576.8017692932 -0)
(-0 10576.8018127929 -0)
(-0 10576.8017655415 -0)
(-0 10576.8017161778 -0)
(-0 10576.8017484772 -0)
(-0 10576.801727438 -0)
(-0 10576.801686819 -0)
(-0 10576.8016620162 -0)
(-0 10576.8016368239 -0)
(-0 10576.80163343 -0)
(-0 10576.8017151806 -0)
(-0 10576.8018249428 -0)
(-0 10576.8018678356 -0)
(-0 10576.8018608108 -0)
(-0 10576.8018220292 -0)
(-0 10576.8018210486 -0)
(-0 10576.8018502495 -0)
(-0 10576.8018699747 -0)
(-0 10576.8019087769 -0)
(-0 10576.8018952206 -0)
(-0 10576.8018470912 -0)
(-0 10576.8018689726 -0)
(-0 10576.8018853703 -0)
(-0 10576.8018951367 -0)
(-0 10576.8018871159 -0)
(-0 10576.8018646873 -0)
(-0 10576.801902143 -0)
(-0 10576.8019407376 -0)
(-0 10576.8019930319 -0)
(-0 10576.8020235648 -0)
(-0 10576.8020352764 -0)
(-0 10576.8020740033 -0)
(-0 10576.8020863824 -0)
(-0 10576.8020843813 -0)
(-0 10576.8020845644 -0)
(-0 10576.8021017093 -0)
(-0 10576.8021460326 -0)
(-0 10576.8021265942 -0)
(-0 10576.8020935972 -0)
(-0 10576.8020719145 -0)
(-0 10576.8020852245 -0)
(-0 10576.8021859332 -0)
(-0 10576.8022330888 -0)
(-0 10576.8022116888 -0)
(-0 10576.8022144733 -0)
(-0 10576.8022135819 -0)
(-0 10576.8022303148 -0)
(-0 10576.8022461309 -0)
(-0 10576.8022299401 -0)
(-0 10576.8022211129 -0)
(-0 10576.8021988773 -0)
(-0 10576.8022089987 -0)
(-0 10576.8022105287 -0)
(-0 10576.8021684359 -0)
(-0 10576.8021615613 -0)
(-0 10576.802173012 -0)
(-0 10576.8021688764 -0)
(-0 10576.8022096552 -0)
(-0 10576.8022422172 -0)
(-0 10576.802247461 -0)
(-0 10576.8023073518 -0)
(-0 10576.802337394 -0)
(-0 10576.8023384555 -0)
(-0 10576.8023329737 -0)
(-0 10576.8023294938 -0)
(-0 10576.8023317205 -0)
(-0 10576.8023372049 -0)
(-0 10576.8023560095 -0)
(-0 10576.8023486868 -0)
(-0 10576.802346927 -0)
(-0 10576.8023473282 -0)
(-0 10576.8023663431 -0)
(-0 10576.8023823347 -0)
(-0 10576.8023801995 -0)
(-0 10576.8023932608 -0)
(-0 10576.8024243946 -0)
(-0 10576.8024649405 -0)
(-0 10576.8024774937 -0)
(-0 10576.802496063 -0)
(-0 10576.8025385053 -0)
(-0 10576.8025661953 -0)
(-0 10576.8025708257 -0)
(-0 10576.8025993383 -0)
(-0 10576.802650505 -0)
(-0 10576.8026877031 -0)
(-0 10576.8027008292 -0)
(-0 10576.8027064028 -0)
(-0 10576.8027133776 -0)
(-0 10576.8027203379 -0)
(-0 10576.8027286917 -0)
(-0 10576.8027322828 -0)
(-0 10576.8027356966 -0)
(-0 10576.8027430712 -0)
(-0 10576.802757267 -0)
(-0 10576.802783088 -0)
(-0 10576.802792353 -0)
(-0 10576.8027967772 -0)
(-0 10576.8028178897 -0)
(-0 10576.8028362805 -0)
(-0 10576.8028529464 -0)
(-0 10576.8028732093 -0)
(-0 10576.802883457 -0)
(-0 10576.8028992256 -0)
(-0 10576.8029358126 -0)
(-0 10576.8029554375 -0)
(-0 10576.8030668952 -0)
(-0 15865.1621710425 -0)
)
;

boundaryField
{
    dielectric_2
    {
        type            calculated;
        value           nonuniform 0();
    }
    dielectric_1
    {
        type            calculated;
        value           nonuniform 0();
    }
    otherfaces
    {
        type            empty;
    }
    procBoundary2to0
    {
        type            processor;
        value           uniform (-0 15863.9172743741 -0);
    }
    procBoundary2to3
    {
        type            processor;
        value           uniform (-0 15865.5344566854 -0);
    }
}


// ************************************************************************* //
