/*--------------------------------*- C++ -*----------------------------------*\
| =========                 |                                                 |
| \\      /  F ield         | foam-extend: Open Source CFD                    |
|  \\    /   O peration     | Version:     4.0                                |
|   \\  /    A nd           | Web:         http://www.foam-extend.org         |
|    \\/     M anipulation  |                                                 |
\*---------------------------------------------------------------------------*/
FoamFile
{
    version     2.0;
    format      ascii;
    class       volVectorField;
    location    "7e-10";
    object      E;
}
// * * * * * * * * * * * * * * * * * * * * * * * * * * * * * * * * * * * * * //

dimensions      [0 0 0 1 0 0 0];

internalField   nonuniform List<vector> 
249
(
(-0 15865.5344566854 -0)
(-0 10577.5476641419 -0)
(-0 10577.5475773224 -0)
(-0 10577.5475708898 -0)
(-0 10577.5475746801 -0)
(-0 10577.5476054524 -0)
(-0 10577.5476401347 -0)
(-0 10577.5476524271 -0)
(-0 10577.5476558644 -0)
(-0 10577.547661818 -0)
(-0 10577.5476700669 -0)
(-0 10577.5476818043 -0)
(-0 10577.5476926897 -0)
(-0 10577.547697757 -0)
(-0 10577.5477096498 -0)
(-0 10577.54773086 -0)
(-0 10577.5477424723 -0)
(-0 10577.5477554483 -0)
(-0 10577.5477750385 -0)
(-0 10577.5477765206 -0)
(-0 10577.547775792 -0)
(-0 10577.547793246 -0)
(-0 10577.5478191164 -0)
(-0 10577.5478480114 -0)
(-0 10577.5478742509 -0)
(-0 10577.5478951545 -0)
(-0 10577.5479095812 -0)
(-0 10577.5479171629 -0)
(-0 10577.5479268045 -0)
(-0 10577.5479403087 -0)
(-0 10577.5479477454 -0)
(-0 10577.5479580236 -0)
(-0 10577.5479757184 -0)
(-0 10577.5479960469 -0)
(-0 10577.5480216173 -0)
(-0 10577.548037717 -0)
(-0 10577.5480537942 -0)
(-0 10577.5480671909 -0)
(-0 10577.5480745043 -0)
(-0 10577.548088199 -0)
(-0 10577.5481010613 -0)
(-0 10577.5481158645 -0)
(-0 10577.5481248994 -0)
(-0 10577.5481341495 -0)
(-0 10577.5481511338 -0)
(-0 10577.548153445 -0)
(-0 10577.5481566338 -0)
(-0 10577.5481745074 -0)
(-0 10577.5481878214 -0)
(-0 10577.5482049926 -0)
(-0 10577.5482288793 -0)
(-0 10577.5482492169 -0)
(-0 10577.5482710903 -0)
(-0 10577.5482879843 -0)
(-0 10577.5483013075 -0)
(-0 10577.5483194833 -0)
(-0 10577.5483330387 -0)
(-0 10577.5483431257 -0)
(-0 10577.5483636048 -0)
(-0 10577.5483942633 -0)
(-0 10577.5484143297 -0)
(-0 10577.5484290164 -0)
(-0 10577.5484371865 -0)
(-0 10577.5484450666 -0)
(-0 10577.5484689376 -0)
(-0 10577.5484977781 -0)
(-0 10577.5485148699 -0)
(-0 10577.548530524 -0)
(-0 10577.5485493808 -0)
(-0 10577.5485706541 -0)
(-0 10577.5485892951 -0)
(-0 10577.5486038856 -0)
(-0 10577.5486235503 -0)
(-0 10577.5486415664 -0)
(-0 10577.5486567599 -0)
(-0 10577.5486789901 -0)
(-0 10577.548699142 -0)
(-0 10577.5487175053 -0)
(-0 10577.5487364286 -0)
(-0 10577.5487577144 -0)
(-0 10577.5487818678 -0)
(-0 10577.5487999441 -0)
(-0 10577.5488238394 -0)
(-0 10577.5488513676 -0)
(-0 10577.5488790692 -0)
(-0 10577.5489056231 -0)
(-0 10577.5489346558 -0)
(-0 10577.548956022 -0)
(-0 10577.5489753842 -0)
(-0 10577.5489993985 -0)
(-0 10577.5490178231 -0)
(-0 10577.5490341814 -0)
(-0 10577.5490547266 -0)
(-0 10577.5490765164 -0)
(-0 10577.5491074795 -0)
(-0 10577.5491416535 -0)
(-0 10577.549164257 -0)
(-0 10577.5491850027 -0)
(-0 10577.5492046871 -0)
(-0 10577.549219554 -0)
(-0 10577.5492357837 -0)
(-0 10577.5492554568 -0)
(-0 10577.5492805762 -0)
(-0 10577.54930241 -0)
(-0 10577.5493265331 -0)
(-0 10577.5493472534 -0)
(-0 10577.5493631486 -0)
(-0 10577.5493854864 -0)
(-0 10577.5494024117 -0)
(-0 10577.5494197854 -0)
(-0 10577.5494425279 -0)
(-0 10577.5494627615 -0)
(-0 10577.5494824606 -0)
(-0 10577.5494998231 -0)
(-0 10577.5495133931 -0)
(-0 10577.5495333823 -0)
(-0 10577.5495608417 -0)
(-0 10577.5495865772 -0)
(-0 10577.5496013885 -0)
(-0 10577.5496216605 -0)
(-0 10577.5496531077 -0)
(-0 10577.5496768505 -0)
(-0 10577.5497010604 -0)
(-0 10577.5497260994 -0)
(-0 10577.5497397749 -0)
(-0 10577.5497553787 -0)
(-0 10577.5497788996 -0)
(-0 10577.5498008782 -0)
(-0 10577.5498248384 -0)
(-0 10577.5498472712 -0)
(-0 10577.5498643386 -0)
(-0 10577.5498844245 -0)
(-0 10577.5499097576 -0)
(-0 10577.5499368613 -0)
(-0 10577.5499586337 -0)
(-0 10577.5499791652 -0)
(-0 10577.5499990538 -0)
(-0 10577.5500151107 -0)
(-0 10577.5500338543 -0)
(-0 10577.5500581193 -0)
(-0 10577.5500810346 -0)
(-0 10577.5501020885 -0)
(-0 10577.5501253449 -0)
(-0 10577.5501506321 -0)
(-0 10577.5501722017 -0)
(-0 10577.5501907419 -0)
(-0 10577.550213087 -0)
(-0 10577.5502397594 -0)
(-0 10577.5502628376 -0)
(-0 10577.5502800696 -0)
(-0 10577.5503039192 -0)
(-0 10577.5503315495 -0)
(-0 10577.5503515041 -0)
(-0 10577.5503728514 -0)
(-0 10577.550395252 -0)
(-0 10577.5504211442 -0)
(-0 10577.5504449211 -0)
(-0 10577.5504650881 -0)
(-0 10577.5504863105 -0)
(-0 10577.5505014471 -0)
(-0 10577.5505238729 -0)
(-0 10577.5505547433 -0)
(-0 10577.5505807891 -0)
(-0 10577.5506023252 -0)
(-0 10577.5506263519 -0)
(-0 10577.5506555002 -0)
(-0 10577.5506813364 -0)
(-0 10577.5507028105 -0)
(-0 10577.5507249996 -0)
(-0 10577.5507454397 -0)
(-0 10577.5507677242 -0)
(-0 10577.55079623 -0)
(-0 10577.5508246131 -0)
(-0 10577.550847299 -0)
(-0 10577.5508682196 -0)
(-0 10577.5508902765 -0)
(-0 10577.550911133 -0)
(-0 10577.5509320193 -0)
(-0 10577.5509591122 -0)
(-0 10577.5509883132 -0)
(-0 10577.5510128145 -0)
(-0 10577.5510333252 -0)
(-0 10577.551056119 -0)
(-0 10577.5510829008 -0)
(-0 10577.5511116483 -0)
(-0 10577.5511401353 -0)
(-0 10577.551168123 -0)
(-0 10577.5511943615 -0)
(-0 10577.5512180233 -0)
(-0 10577.5512402533 -0)
(-0 10577.5512651875 -0)
(-0 10577.551289368 -0)
(-0 10577.551312966 -0)
(-0 10577.5513389881 -0)
(-0 10577.5513660667 -0)
(-0 10577.5513949965 -0)
(-0 10577.5514232221 -0)
(-0 10577.5514496573 -0)
(-0 10577.5514775537 -0)
(-0 10577.5515092872 -0)
(-0 10577.5515398856 -0)
(-0 10577.5515662074 -0)
(-0 10577.551594574 -0)
(-0 10577.5516236268 -0)
(-0 10577.551651764 -0)
(-0 10577.5516830412 -0)
(-0 10577.5517146285 -0)
(-0 10577.5517451654 -0)
(-0 10577.5517733425 -0)
(-0 10577.5518008814 -0)
(-0 10577.5518285791 -0)
(-0 10577.5518575106 -0)
(-0 10577.5518862227 -0)
(-0 10577.5519132371 -0)
(-0 10577.5519407317 -0)
(-0 10577.5519698596 -0)
(-0 10577.5520005968 -0)
(-0 10577.5520301186 -0)
(-0 10577.5520602043 -0)
(-0 10577.5520894065 -0)
(-0 10577.5521178345 -0)
(-0 10577.5521452786 -0)
(-0 10577.5521725506 -0)
(-0 10577.552203164 -0)
(-0 10577.552234122 -0)
(-0 10577.5522635015 -0)
(-0 10577.552293511 -0)
(-0 10577.5523226975 -0)
(-0 10577.552351155 -0)
(-0 10577.5523820999 -0)
(-0 10577.55241266 -0)
(-0 10577.5524423528 -0)
(-0 10577.5524717893 -0)
(-0 10577.5525013638 -0)
(-0 10577.5525311988 -0)
(-0 10577.5525594562 -0)
(-0 10577.5525874474 -0)
(-0 10577.5526161181 -0)
(-0 10577.5526458758 -0)
(-0 10577.5526762465 -0)
(-0 10577.5527065042 -0)
(-0 10577.5527376271 -0)
(-0 10577.5527689866 -0)
(-0 10577.5527994942 -0)
(-0 10577.5528297914 -0)
(-0 10577.552860872 -0)
(-0 10577.5528913447 -0)
(-0 10577.5529210838 -0)
(-0 10577.6767515887 -0)
)
;

boundaryField
{
    dielectric_2
    {
        type            calculated;
        value           uniform (-0 10577.8005671422 -0);
    }
    dielectric_1
    {
        type            calculated;
        value           nonuniform 0();
    }
    otherfaces
    {
        type            empty;
    }
    procBoundary3to2
    {
        type            processor;
        value           uniform (-0 15865.1621710425 -0);
    }
}


// ************************************************************************* //
