/*--------------------------------*- C++ -*----------------------------------*\
| =========                 |                                                 |
| \\      /  F ield         | foam-extend: Open Source CFD                    |
|  \\    /   O peration     | Version:     4.0                                |
|   \\  /    A nd           | Web:         http://www.foam-extend.org         |
|    \\/     M anipulation  |                                                 |
\*---------------------------------------------------------------------------*/
FoamFile
{
    version     2.0;
    format      ascii;
    class       volScalarField;
    location    "9.4e-06";
    object      Ar;
}
// * * * * * * * * * * * * * * * * * * * * * * * * * * * * * * * * * * * * * //

dimensions      [0 0 0 1 0 0 0];

internalField   nonuniform List<scalar> 
300
(
3.21880164697814e+22
3.21880164272944e+22
3.21880164575655e+22
3.21880164705514e+22
3.21880164921666e+22
3.21880165220012e+22
3.2188016558268e+22
3.21880166016564e+22
3.21880166520416e+22
3.21880167093879e+22
3.21880167737011e+22
3.21880168449689e+22
3.21880169231857e+22
3.21880170083477e+22
3.21880171004523e+22
3.21880171994982e+22
3.21880173054883e+22
3.21880174184217e+22
3.21880175382985e+22
3.21880176651208e+22
3.21880177988911e+22
3.21880179396128e+22
3.21880180872898e+22
3.21880182419264e+22
3.21880184035435e+22
3.21880185721337e+22
3.21880187477042e+22
3.21880189302639e+22
3.21880191198106e+22
3.21880193163512e+22
3.21880195199112e+22
3.21880197304914e+22
3.21880199480864e+22
3.21880201727035e+22
3.21880204043505e+22
3.21880206430361e+22
3.21880208887735e+22
3.218802114157e+22
3.21880214014327e+22
3.21880216683722e+22
3.21880219423996e+22
3.21880222235244e+22
3.21880225117576e+22
3.21880228071107e+22
3.21880231095956e+22
3.21880234192247e+22
3.21880237360128e+22
3.21880240599745e+22
3.21880243911336e+22
3.2188024729508e+22
3.21880250751267e+22
3.21880254279939e+22
3.21880257881318e+22
3.21880261555397e+22
3.21880265302264e+22
3.21880269121931e+22
3.21880273014537e+22
3.21880276980227e+22
3.21880281019152e+22
3.21880285131484e+22
3.21880289317358e+22
3.21880293576932e+22
3.21880297910419e+22
3.21880302318177e+22
3.21880306800347e+22
3.21880311356856e+22
3.21880315987864e+22
3.21880320693534e+22
3.21880325474032e+22
3.21880330329528e+22
3.21880335260211e+22
3.21880340266336e+22
3.218803453481e+22
3.21880350505611e+22
3.21880355739186e+22
3.21880361048996e+22
3.21880366435159e+22
3.21880371897894e+22
3.21880377437185e+22
3.21880383053514e+22
3.21880388746715e+22
3.21880394516943e+22
3.21880400364406e+22
3.21880406289258e+22
3.21880412291819e+22
3.21880418372187e+22
3.21880424530416e+22
3.21880430766674e+22
3.21880437081249e+22
3.21880443474231e+22
3.21880449945848e+22
3.21880456496711e+22
3.21880463126435e+22
3.21880469835161e+22
3.2188047662305e+22
3.2188048349026e+22
3.21880490436946e+22
3.21880497463267e+22
3.21880504569485e+22
3.21880511755748e+22
3.21880519022141e+22
3.21880526368797e+22
3.21880533796175e+22
3.21880541304126e+22
3.21880548892877e+22
3.21880556562659e+22
3.21880564313456e+22
3.21880572145593e+22
3.21880580059097e+22
3.21880588054038e+22
3.21880596130559e+22
3.2188060428881e+22
3.21880612528984e+22
3.21880620851197e+22
3.21880629255594e+22
3.21880637742593e+22
3.2188064631252e+22
3.2188065496462e+22
3.2188066369932e+22
3.21880672517176e+22
3.21880681418573e+22
3.21880690403574e+22
3.21880699472662e+22
3.21880708625929e+22
3.21880717863452e+22
3.21880727185442e+22
3.21880736592365e+22
3.21880746084231e+22
3.2188075566133e+22
3.21880765323861e+22
3.21880775072158e+22
3.21880784906434e+22
3.21880794826915e+22
3.21880804834033e+22
3.21880814928322e+22
3.21880825109765e+22
3.21880835378493e+22
3.21880845734924e+22
3.21880856179411e+22
3.21880866712033e+22
3.21880877333114e+22
3.21880888042984e+22
3.21880898842126e+22
3.21880909731023e+22
3.21880920710077e+22
3.21880931779245e+22
3.21880942938823e+22
3.21880954189115e+22
3.2188096553056e+22
3.21880976963762e+22
3.21880988488704e+22
3.21881000105706e+22
3.21881011815461e+22
3.21881023617958e+22
3.2188103551343e+22
3.21881047502133e+22
3.21881059584613e+22
3.21881071760109e+22
3.2188108402932e+22
3.21881096390636e+22
3.21881108846193e+22
3.21881121391181e+22
3.21881134031014e+22
3.21881146755042e+22
3.21881159575555e+22
3.21881172482792e+22
3.2188118537181e+22
3.21881198304724e+22
3.21881211387994e+22
3.21881224556594e+22
3.21881237807325e+22
3.2188125105984e+22
3.21881264348842e+22
3.21881277609777e+22
3.21881290867678e+22
3.21881304271794e+22
3.21881317777001e+22
3.21881330883749e+22
3.21881343954192e+22
3.21881357334667e+22
3.2188137003845e+22
3.21881382471568e+22
3.21881395085856e+22
3.21881406742424e+22
3.2188141807058e+22
3.21881429079793e+22
3.21881439066482e+22
3.21881448438009e+22
3.21881457332326e+22
3.21881464990905e+22
3.21881471894513e+22
3.2188147830044e+22
3.21881483691641e+22
3.21881488039628e+22
3.21881491654001e+22
3.21881494332808e+22
3.21881496226753e+22
3.21881497616949e+22
3.21881498549762e+22
3.2188149928908e+22
3.21881499461595e+22
3.21881499163134e+22
3.21881498594354e+22
3.21881498340532e+22
3.21881498671878e+22
3.21881499506226e+22
3.21881500545702e+22
3.21881501622761e+22
3.21881502565935e+22
3.21881503369635e+22
3.21881504036024e+22
3.21881504593131e+22
3.21881505056643e+22
3.21881505564693e+22
3.21881506132042e+22
3.21881506655255e+22
3.21881507119755e+22
3.21881507546373e+22
3.21881507930032e+22
3.21881508288325e+22
3.21881508612884e+22
3.21881508926053e+22
3.21881509215987e+22
3.21881509495003e+22
3.21881509750777e+22
3.21881510133178e+22
3.21881510518138e+22
3.21881510899102e+22
3.21881511255058e+22
3.21881511609241e+22
3.21881511939707e+22
3.21881512270173e+22
3.21881512577543e+22
3.21881512886124e+22
3.21881513172098e+22
3.21881513460125e+22
3.21881513725712e+22
3.21881513994125e+22
3.21881514240016e+22
3.21881514489428e+22
3.21881514716133e+22
3.21881514982116e+22
3.21881515298254e+22
3.21881515617735e+22
3.21881515915038e+22
3.21881516216367e+22
3.21881516495445e+22
3.21881516779622e+22
3.21881517041192e+22
3.21881517309024e+22
3.21881517553898e+22
3.21881517806098e+22
3.21881518035302e+22
3.21881518272877e+22
3.21881518486873e+22
3.21881518710132e+22
3.21881518909287e+22
3.21881519118829e+22
3.21881519303872e+22
3.21881519500275e+22
3.2188151967178e+22
3.21881519855817e+22
3.21881520014783e+22
3.21881520187368e+22
3.21881520336225e+22
3.21881520571279e+22
3.21881520768769e+22
3.21881520996058e+22
3.21881521182018e+22
3.2188152139903e+22
3.21881521574082e+22
3.21881521781381e+22
3.21881521946142e+22
3.21881522144392e+22
3.21881522299481e+22
3.2188152248933e+22
3.2188152263532e+22
3.21881522817194e+22
3.21881522954404e+22
3.21881523128665e+22
3.21881523257545e+22
3.21881523425013e+22
3.21881523548111e+22
3.21881523713079e+22
3.21881523831737e+22
3.21881523991108e+22
3.21881524102836e+22
3.21881524256216e+22
3.2188152436113e+22
3.21881524512867e+22
3.21881524619596e+22
3.21881524770209e+22
3.218815248703e+22
3.21881525022441e+22
3.21881525127088e+22
3.21881525279658e+22
3.21881525391068e+22
3.21881525559329e+22
3.21881525710672e+22
3.21881525993329e+22
)
;

boundaryField
{
    electrode
    {
        type            zeroGradient;
    }
    ground
    {
        type            zeroGradient;
    }
    otherfaces
    {
        type            empty;
    }
}


// ************************************************************************* //
