/*--------------------------------*- C++ -*----------------------------------*\
| =========                 |                                                 |
| \\      /  F ield         | foam-extend: Open Source CFD                    |
|  \\    /   O peration     | Version:     4.0                                |
|   \\  /    A nd           | Web:         http://www.foam-extend.org         |
|    \\/     M anipulation  |                                                 |
\*---------------------------------------------------------------------------*/
FoamFile
{
    version     2.0;
    format      ascii;
    class       volScalarField;
    location    "9.4e-06";
    object      Arm;
}
// * * * * * * * * * * * * * * * * * * * * * * * * * * * * * * * * * * * * * //

dimensions      [0 0 0 1 0 0 0];

internalField   nonuniform List<scalar> 
300
(
3.57410165175527e+15
3.57597447871941e+15
3.5779215030645e+15
3.57922783422015e+15
3.58004417518139e+15
3.58042280502961e+15
3.58040791898211e+15
3.58003097102791e+15
3.57931762417037e+15
3.57828985650341e+15
3.57696345204815e+15
3.57535249606923e+15
3.57346904289082e+15
3.57132369569715e+15
3.56892591200116e+15
3.56628423035148e+15
3.56340349023116e+15
3.56029226960775e+15
3.55695890631493e+15
3.55340988318327e+15
3.54965140166358e+15
3.5456893833935e+15
3.54152951833446e+15
3.53717721934683e+15
3.53262190771118e+15
3.52788122870776e+15
3.52295891245159e+15
3.51785700300678e+15
3.51258904882568e+15
3.50715990958838e+15
3.50155592138548e+15
3.49578841869926e+15
3.48987546575562e+15
3.48382247251952e+15
3.47763452526468e+15
3.47131641604391e+15
3.46486834252632e+15
3.45829680830483e+15
3.45160887343193e+15
3.44480808091042e+15
3.43789793824507e+15
3.43088371473001e+15
3.42376929386429e+15
3.41655836714891e+15
3.40925443464819e+15
3.40186075551875e+15
3.39437828045367e+15
3.38680843673287e+15
3.37914349460304e+15
3.37138200620305e+15
3.36351144666323e+15
3.35554422836765e+15
3.34747504632947e+15
3.33932154904803e+15
3.33109190815009e+15
3.32280244847758e+15
3.31445649828935e+15
3.30605697377352e+15
3.29760644307838e+15
3.2891053371992e+15
3.28055795836002e+15
3.27196641063471e+15
3.26332732944207e+15
3.25462283039712e+15
3.24585689099712e+15
3.23705500021404e+15
3.22821930111669e+15
3.21935163349263e+15
3.21045358320024e+15
3.2015265055064e+15
3.19256954612247e+15
3.18357557937443e+15
3.17454307548874e+15
3.16547941656271e+15
3.15637113577739e+15
3.14721927212658e+15
3.13803013559852e+15
3.12879966936448e+15
3.11954769504513e+15
3.11024389725259e+15
3.10092265614035e+15
3.09158615543607e+15
3.08223133340573e+15
3.07286040324389e+15
3.06345862922503e+15
3.05403371389461e+15
3.04459733024034e+15
3.03514979684044e+15
3.0256792705233e+15
3.01619343494778e+15
3.00668622221518e+15
2.99711287146117e+15
2.98752833068111e+15
2.97793434766209e+15
2.96833095483317e+15
2.95871817783495e+15
2.94909579837717e+15
2.93946336222174e+15
2.92980997831093e+15
2.92013557602188e+15
2.91044639456974e+15
2.90074365490678e+15
2.8909957895268e+15
2.88123181649864e+15
2.87144259693248e+15
2.86161883718032e+15
2.85177543660539e+15
2.84189291773379e+15
2.83198163147637e+15
2.82204702448164e+15
2.81208724114112e+15
2.80209998441154e+15
2.79207753683055e+15
2.78201767454052e+15
2.77191814458116e+15
2.76176132474839e+15
2.75152842269214e+15
2.74124409633429e+15
2.73090925029598e+15
2.72051578540047e+15
2.71003743406708e+15
2.69948698828847e+15
2.68883563000532e+15
2.67809367312729e+15
2.6672725176084e+15
2.65636993708686e+15
2.64535796997306e+15
2.63425389662088e+15
2.62304696685854e+15
2.61173509282503e+15
2.60030268449051e+15
2.58874584484769e+15
2.57705953412189e+15
2.56521768802795e+15
2.55318398063528e+15
2.54097711958514e+15
2.52860099863909e+15
2.51603064858052e+15
2.50324725692729e+15
2.4902598333182e+15
2.47705244210414e+15
2.46360839719795e+15
2.4498955862788e+15
2.43588192659732e+15
2.42154288286116e+15
2.40689808899404e+15
2.39193274722888e+15
2.37663046717454e+15
2.36096070300556e+15
2.34487473216489e+15
2.32838477728063e+15
2.31146608954722e+15
2.29405660858581e+15
2.27615498245428e+15
2.25774292446938e+15
2.23877078537852e+15
2.2191953909647e+15
2.19901606076723e+15
2.17821363399871e+15
2.1567432246205e+15
2.1345692498661e+15
2.11167652693525e+15
2.0880269586001e+15
2.06363292788304e+15
2.03848140646372e+15
2.01251807094589e+15
1.98576363403009e+15
1.95826258158764e+15
1.93004394127414e+15
1.90114971073201e+15
1.87164836167798e+15
1.84157341906683e+15
1.81101730765493e+15
1.78015141890691e+15
1.74916960200898e+15
1.71824177462302e+15
1.68754714402166e+15
1.65728475101811e+15
1.62769313885653e+15
1.59892804974703e+15
1.57114374900124e+15
1.54448715985494e+15
1.51903985114379e+15
1.49491631076725e+15
1.47211647082783e+15
1.45055058644737e+15
1.43025805251381e+15
1.41118851041525e+15
1.39325625417029e+15
1.3763808099982e+15
1.36046884898289e+15
1.34557272590922e+15
1.33218963709731e+15
1.32541425314399e+15
1.35141565735552e+15
1.41743184428412e+15
1.49762119922988e+15
1.56460683539888e+15
1.62748107360432e+15
1.69995048641659e+15
1.78275189480521e+15
1.86976897976173e+15
1.9393324874708e+15
1.95335124383726e+15
1.91704400636145e+15
1.85204778408083e+15
1.78252588055715e+15
1.72352604125279e+15
1.68028308988446e+15
1.65104604785742e+15
1.63198946071547e+15
1.62056298441201e+15
1.61321136667581e+15
1.60977392533691e+15
1.60783697726021e+15
1.60615198393428e+15
1.60528238702181e+15
1.60463348719503e+15
1.60378484106124e+15
1.60250026720464e+15
1.60060206468235e+15
1.59738555124305e+15
1.59296993543081e+15
1.58763316684982e+15
1.5814434906101e+15
1.57455627593903e+15
1.5670202148587e+15
1.55887124187707e+15
1.55016620660973e+15
1.54097136118376e+15
1.53133251085791e+15
1.52131197466238e+15
1.51097667943737e+15
1.50037584789212e+15
1.48956049906846e+15
1.47859599405708e+15
1.46751242947397e+15
1.45637123884786e+15
1.4452004373699e+15
1.43404490878409e+15
1.42293550941459e+15
1.41189276832515e+15
1.40095730030307e+15
1.39013869472623e+15
1.3794640034337e+15
1.36896667109385e+15
1.35864830535054e+15
1.34852927095441e+15
1.33862247016309e+15
1.32892833515654e+15
1.31946050384378e+15
1.31021807977167e+15
1.30118240677686e+15
1.29237317077659e+15
1.28379818105596e+15
1.27546385255372e+15
1.26737281980707e+15
1.25951125718971e+15
1.25188708149933e+15
1.24449013715872e+15
1.23732043322451e+15
1.23035570910585e+15
1.22358017988162e+15
1.21699391829019e+15
1.21060247559378e+15
1.20440001350359e+15
1.19837679729443e+15
1.1925275089348e+15
1.18683937075464e+15
1.18131589420079e+15
1.17594677983694e+15
1.17073393280189e+15
1.16566016522693e+15
1.16072818855345e+15
1.15592450888177e+15
1.15124626543193e+15
1.14669046900342e+15
1.14225590795331e+15
1.13794338211734e+15
1.13374546033684e+15
1.12965987164814e+15
1.12564525959471e+15
1.1215580818957e+15
1.11732302879536e+15
1.11312905442014e+15
1.10901487141864e+15
1.10498925927113e+15
1.10105631632735e+15
1.09720743422902e+15
1.09303965764684e+15
1.08852292248964e+15
1.08410762172917e+15
1.07980482524917e+15
1.07489242639579e+15
1.06970810052545e+15
1.06445712369277e+15
1.05820306963724e+15
1.05139878015928e+15
1.04351576061545e+15
1.03386862333496e+15
)
;

boundaryField
{
    electrode
    {
        type            zeroGradient;
    }
    ground
    {
        type            zeroGradient;
    }
    otherfaces
    {
        type            empty;
    }
}


// ************************************************************************* //
