/*--------------------------------*- C++ -*----------------------------------*\
| =========                 |                                                 |
| \\      /  F ield         | foam-extend: Open Source CFD                    |
|  \\    /   O peration     | Version:     4.0                                |
|   \\  /    A nd           | Web:         http://www.foam-extend.org         |
|    \\/     M anipulation  |                                                 |
\*---------------------------------------------------------------------------*/
FoamFile
{
    version     2.0;
    format      ascii;
    class       volVectorField;
    location    "9.4e-06";
    object      E;
}
// * * * * * * * * * * * * * * * * * * * * * * * * * * * * * * * * * * * * * //

dimensions      [0 0 0 1 0 0 0];

internalField   nonuniform List<vector> 
300
(
(5.4627590367895 -0 -0)
(11.2547397360107 -0 -0)
(19.7806175897264 -0 -0)
(27.6998048373559 -0 -0)
(35.5755568753883 -0 -0)
(43.519624857991 -0 -0)
(51.4570141454956 -0 -0)
(59.4090777780708 -0 -0)
(67.3767690431711 -0 -0)
(75.3603421624345 -0 -0)
(83.3619817258697 -0 -0)
(91.3832373231069 -0 -0)
(99.4257389794205 -0 -0)
(107.491154031911 -0 -0)
(115.58114458854 -0 -0)
(123.697387516276 -0 -0)
(131.841571922306 -0 -0)
(140.015399537065 -0 -0)
(148.220585917404 -0 -0)
(156.45886116272 -0 -0)
(164.731970760114 -0 -0)
(173.041676425347 -0 -0)
(181.389757014646 -0 -0)
(189.778009374033 -0 -0)
(198.208249334311 -0 -0)
(206.682312589575 -0 -0)
(215.202055667276 -0 -0)
(223.769356989814 -0 -0)
(232.386117852973 -0 -0)
(241.054263495913 -0 -0)
(249.775744166928 -0 -0)
(258.552536318238 -0 -0)
(267.386643672289 -0 -0)
(276.280098490706 -0 -0)
(285.234962757395 -0 -0)
(294.253329490043 -0 -0)
(303.337324054939 -0 -0)
(312.48910550418 -0 -0)
(321.710868032876 -0 -0)
(331.004842393822 -0 -0)
(340.373297459604 -0 -0)
(349.818541750571 -0 -0)
(359.342925107566 -0 -0)
(368.948840349864 -0 -0)
(378.638725061256 -0 -0)
(388.415063379318 -0 -0)
(398.280387915648 -0 -0)
(408.237281737706 -0 -0)
(418.288380378593 -0 -0)
(428.436374015543 -0 -0)
(438.684009634917 -0 -0)
(449.03409344159 -0 -0)
(459.489493154128 -0 -0)
(470.053140598551 -0 -0)
(480.728034271729 -0 -0)
(491.517242123722 -0 -0)
(502.423904372211 -0 -0)
(513.451236502978 -0 -0)
(524.602532381187 -0 -0)
(535.881167461391 -0 -0)
(547.29060224584 -0 -0)
(558.834385783078 -0 -0)
(570.516159385866 -0 -0)
(582.339660572308 -0 -0)
(594.308727085038 -0 -0)
(606.427301158622 -0 -0)
(618.699434051866 -0 -0)
(631.129290633176 -0 -0)
(643.721154368397 -0 -0)
(656.479432448237 -0 -0)
(669.408661189842 -0 -0)
(682.513511769753 -0 -0)
(695.798796100723 -0 -0)
(709.26947319513 -0 -0)
(722.930655722227 -0 -0)
(736.78761692987 -0 -0)
(750.845797982264 -0 -0)
(765.11081561627 -0 -0)
(779.5884702664 -0 -0)
(794.2847546098 -0 -0)
(809.205862513463 -0 -0)
(824.358198595138 -0 -0)
(839.748388192619 -0 -0)
(855.383287971884 -0 -0)
(871.26999712009 -0 -0)
(887.415869142522 -0 -0)
(903.828524369365 -0 -0)
(920.515863209271 -0 -0)
(937.486080136529 -0 -0)
(954.747678529137 -0 -0)
(972.309486437049 -0 -0)
(990.180673242166 -0 -0)
(1008.37076736508 -0 -0)
(1026.88967513902 -0 -0)
(1045.74770072148 -0 -0)
(1064.9555673815 -0 -0)
(1084.52444015789 -0 -0)
(1104.46594988855 -0 -0)
(1124.79221891098 -0 -0)
(1145.51588840395 -0 -0)
(1166.65014758382 -0 -0)
(1188.2087648797 -0 -0)
(1210.20612123696 -0 -0)
(1232.65724570446 -0 -0)
(1255.57785369974 -0 -0)
(1278.98438789393 -0 -0)
(1302.89406133886 -0 -0)
(1327.32490363009 -0 -0)
(1352.29581484805 -0 -0)
(1377.82662545077 -0 -0)
(1403.93813668357 -0 -0)
(1430.65214569682 -0 -0)
(1457.99160058383 -0 -0)
(1485.98090343886 -0 -0)
(1514.64558310625 -0 -0)
(1544.01100253107 -0 -0)
(1574.10425234444 -0 -0)
(1604.96167962446 -0 -0)
(1636.62555890504 -0 -0)
(1669.1341014759 -0 -0)
(1702.52319175603 -0 -0)
(1736.83049216437 -0 -0)
(1772.09598159353 -0 -0)
(1808.36205271478 -0 -0)
(1845.67370849588 -0 -0)
(1884.07876730877 -0 -0)
(1923.6280865616 -0 -0)
(1964.37580815379 -0 -0)
(2006.37962835557 -0 -0)
(2049.70109484471 -0 -0)
(2094.40593404955 -0 -0)
(2140.56441252709 -0 -0)
(2188.25173664171 -0 -0)
(2237.54849518292 -0 -0)
(2288.54115048191 -0 -0)
(2341.32258434706 -0 -0)
(2395.99270593034 -0 -0)
(2452.6591299967 -0 -0)
(2511.43793505743 -0 -0)
(2572.45451259717 -0 -0)
(2635.84452034499 -0 -0)
(2701.75495447225 -0 -0)
(2770.34535839049 -0 -0)
(2841.78918860154 -0 -0)
(2916.27536152277 -0 -0)
(2994.01000996508 -0 -0)
(3075.21848112616 -0 -0)
(3160.14761968132 -0 -0)
(3249.06837180862 -0 -0)
(3342.27879078028 -0 -0)
(3440.10745477917 -0 -0)
(3542.91749442634 -0 -0)
(3651.11107778655 -0 -0)
(3765.13496851593 -0 -0)
(3885.48630153093 -0 -0)
(4012.72066171312 -0 -0)
(4147.45902404292 -0 -0)
(4290.40059550024 -0 -0)
(4442.3294616185 -0 -0)
(4604.13734353261 -0 -0)
(4776.82566053559 -0 -0)
(4961.54870889049 -0 -0)
(5159.60272704283 -0 -0)
(5372.51731747455 -0 -0)
(5602.00966660047 -0 -0)
(5850.40361951499 -0 -0)
(6122.48871507558 -0 -0)
(6424.10189097907 -0 -0)
(6758.66827153717 -0 -0)
(7129.06983209583 -0 -0)
(7540.08360190407 -0 -0)
(7999.0233022016 -0 -0)
(8515.04658237989 -0 -0)
(9098.73735192949 -0 -0)
(9761.43407306986 -0 -0)
(10510.9280118537 -0 -0)
(11353.5263025763 -0 -0)
(12306.0348727193 -0 -0)
(13386.3198855267 -0 -0)
(14596.7596443681 -0 -0)
(15949.8668112938 -0 -0)
(17466.1451706799 -0 -0)
(19144.0510278529 -0 -0)
(20990.2511414319 -0 -0)
(23016.0025110584 -0 -0)
(25211.1463800051 -0 -0)
(27573.009916104 -0 -0)
(30098.691448991 -0 -0)
(32764.7067346276 -0 -0)
(35557.2797052201 -0 -0)
(38466.0618780274 -0 -0)
(41458.8600090829 -0 -0)
(44510.7258000527 -0 -0)
(47613.0289692022 -0 -0)
(50745.8094073205 -0 -0)
(53882.4945743971 -0 -0)
(57009.3813370412 -0 -0)
(60125.257933146 -0 -0)
(63229.0403783512 -0 -0)
(66319.1897290368 -0 -0)
(69390.8700570417 -0 -0)
(72447.7446787472 -0 -0)
(75515.4304614592 -0 -0)
(78606.7489857451 -0 -0)
(81714.8972577674 -0 -0)
(84827.62871559 -0 -0)
(87930.5045454956 -0 -0)
(91011.981215066 -0 -0)
(94065.4020523553 -0 -0)
(97089.0199627879 -0 -0)
(100083.377293026 -0 -0)
(103050.303099713 -0 -0)
(105992.268430869 -0 -0)
(108908.27892506 -0 -0)
(111793.531602467 -0 -0)
(114647.018379844 -0 -0)
(117471.505625661 -0 -0)
(120269.5873629 -0 -0)
(123043.685594792 -0 -0)
(125796.046920658 -0 -0)
(128528.772756147 -0 -0)
(131243.80597658 -0 -0)
(133942.949604376 -0 -0)
(136627.875405995 -0 -0)
(139300.151336706 -0 -0)
(141957.128410673 -0 -0)
(144595.318864642 -0 -0)
(147215.148573529 -0 -0)
(149817.846885523 -0 -0)
(152404.538892882 -0 -0)
(154976.276832391 -0 -0)
(157534.026718957 -0 -0)
(160078.696731957 -0 -0)
(162611.123345779 -0 -0)
(165132.097877007 -0 -0)
(167642.3509958 -0 -0)
(170142.579366954 -0 -0)
(172633.428575245 -0 -0)
(175115.519628419 -0 -0)
(177589.430462554 -0 -0)
(180055.72145383 -0 -0)
(182513.85909026 -0 -0)
(184961.094001823 -0 -0)
(187395.745191345 -0 -0)
(189818.302006719 -0 -0)
(192229.214829735 -0 -0)
(194628.925612155 -0 -0)
(197017.837254201 -0 -0)
(199396.353287571 -0 -0)
(201764.838118729 -0 -0)
(204123.662415613 -0 -0)
(206473.160885148 -0 -0)
(208813.675259767 -0 -0)
(211145.51545129 -0 -0)
(213469.000538025 -0 -0)
(215784.418659445 -0 -0)
(218092.070649715 -0 -0)
(220392.227049671 -0 -0)
(222685.17226176 -0 -0)
(224971.161654047 -0 -0)
(227250.465949919 -0 -0)
(229523.32713164 -0 -0)
(231790.003962463 -0 -0)
(234050.727111472 -0 -0)
(236305.685634949 -0 -0)
(238552.878169498 -0 -0)
(240790.726437102 -0 -0)
(243019.358776052 -0 -0)
(245239.020772915 -0 -0)
(247449.923683767 -0 -0)
(249652.299784511 -0 -0)
(251846.347901195 -0 -0)
(254032.288951062 -0 -0)
(256210.310673526 -0 -0)
(258380.622967044 -0 -0)
(260543.40233172 -0 -0)
(262698.848052977 -0 -0)
(264847.12686106 -0 -0)
(266988.429842737 -0 -0)
(269122.914901291 -0 -0)
(271250.764524444 -0 -0)
(273372.128012 -0 -0)
(275487.179875958 -0 -0)
(277596.061678771 -0 -0)
(279698.939302273 -0 -0)
(281795.9448133 -0 -0)
(283887.236182687 -0 -0)
(285972.939287963 -0 -0)
(288053.206018605 -0 -0)
(290128.156428038 -0 -0)
(292197.937070834 -0 -0)
(294262.656168674 -0 -0)
(296322.449070866 -0 -0)
(298377.419399634 -0 -0)
(300427.695156479 -0 -0)
(302473.364980455 -0 -0)
(304514.547006107 -0 -0)
(306551.234311895 -0 -0)
(308582.720976022 -0 -0)
(310606.405434549 -0 -0)
)
;

boundaryField
{
    electrode
    {
        type            calculated;
        value           uniform (4.17471000446313 -0 -0);
    }
    ground
    {
        type            calculated;
        value           uniform (311615.435632383 -0 -0);
    }
    otherfaces
    {
        type            empty;
    }
}


// ************************************************************************* //
