/*--------------------------------*- C++ -*----------------------------------*\
| =========                 |                                                 |
| \\      /  F ield         | foam-extend: Open Source CFD                    |
|  \\    /   O peration     | Version:     4.0                                |
|   \\  /    A nd           | Web:         http://www.foam-extend.org         |
|    \\/     M anipulation  |                                                 |
\*---------------------------------------------------------------------------*/
FoamFile
{
    version     2.0;
    format      ascii;
    class       volVectorField;
    location    "9.4e-06";
    object      J_Arp1;
}
// * * * * * * * * * * * * * * * * * * * * * * * * * * * * * * * * * * * * * //

dimensions      [1 -1 -1 0 0 0 0];

internalField   nonuniform List<vector> 
300
(
(2.16904308952596e+16 -0 -0)
(7.69098575074024e+16 -0 -0)
(1.36704425088148e+17 -0 -0)
(1.90202844244513e+17 -0 -0)
(2.44375121101519e+17 -0 -0)
(2.98876041950577e+17 -0 -0)
(3.53233964230809e+17 -0 -0)
(4.07647738378361e+17 -0 -0)
(4.62087652430198e+17 -0 -0)
(5.16552099380455e+17 -0 -0)
(5.71048243145061e+17 -0 -0)
(6.25577778934358e+17 -0 -0)
(6.80143623267718e+17 -0 -0)
(7.34748676018524e+17 -0 -0)
(7.89395710552021e+17 -0 -0)
(8.44087512290632e+17 -0 -0)
(8.98826836186391e+17 -0 -0)
(9.5361640839634e+17 -0 -0)
(1.0084589269156e+18 -0 -0)
(1.06335705916184e+18 -0 -0)
(1.11831344066372e+18 -0 -0)
(1.17333067343514e+18 -0 -0)
(1.22841132475838e+18 -0 -0)
(1.28355792535132e+18 -0 -0)
(1.33877296836609e+18 -0 -0)
(1.39405890749639e+18 -0 -0)
(1.4494181554635e+18 -0 -0)
(1.50485308295184e+18 -0 -0)
(1.56036601684253e+18 -0 -0)
(1.61595923881402e+18 -0 -0)
(1.67163498369464e+18 -0 -0)
(1.72739543851445e+18 -0 -0)
(1.78324274043298e+18 -0 -0)
(1.83917897574081e+18 -0 -0)
(1.895206178114e+18 -0 -0)
(1.95132632739264e+18 -0 -0)
(2.00754134809571e+18 -0 -0)
(2.0638531078544e+18 -0 -0)
(2.1202634162575e+18 -0 -0)
(2.17677402310641e+18 -0 -0)
(2.23338661735347e+18 -0 -0)
(2.29010282539066e+18 -0 -0)
(2.34692420992816e+18 -0 -0)
(2.40385226843428e+18 -0 -0)
(2.46088843192783e+18 -0 -0)
(2.51803406338279e+18 -0 -0)
(2.57529045657869e+18 -0 -0)
(2.63265883479454e+18 -0 -0)
(2.69014034921468e+18 -0 -0)
(2.747736077949e+18 -0 -0)
(2.80544702432936e+18 -0 -0)
(2.86327411622886e+18 -0 -0)
(2.92121820409285e+18 -0 -0)
(2.97928006016033e+18 -0 -0)
(3.03746037684704e+18 -0 -0)
(3.09575976584959e+18 -0 -0)
(3.15417875667443e+18 -0 -0)
(3.21271779553909e+18 -0 -0)
(3.27137724423051e+18 -0 -0)
(3.33015737864673e+18 -0 -0)
(3.38905838799034e+18 -0 -0)
(3.44808037332999e+18 -0 -0)
(3.50722334643582e+18 -0 -0)
(3.56648722895856e+18 -0 -0)
(3.62587185103782e+18 -0 -0)
(3.68537695017867e+18 -0 -0)
(3.74500217053765e+18 -0 -0)
(3.80474706129473e+18 -0 -0)
(3.86461107600154e+18 -0 -0)
(3.92459357135937e+18 -0 -0)
(3.98469380617451e+18 -0 -0)
(4.04491094059536e+18 -0 -0)
(4.1052440345566e+18 -0 -0)
(4.16569204734833e+18 -0 -0)
(4.22625383634569e+18 -0 -0)
(4.28692815594111e+18 -0 -0)
(4.34771365680115e+18 -0 -0)
(4.40860888468503e+18 -0 -0)
(4.46961227961458e+18 -0 -0)
(4.5307221750068e+18 -0 -0)
(4.59193679640442e+18 -0 -0)
(4.65325426086705e+18 -0 -0)
(4.71467257577503e+18 -0 -0)
(4.77618963799818e+18 -0 -0)
(4.83780323298344e+18 -0 -0)
(4.89951103371496e+18 -0 -0)
(4.96131059975293e+18 -0 -0)
(5.02319937637238e+18 -0 -0)
(5.08517469350496e+18 -0 -0)
(5.14723376469331e+18 -0 -0)
(5.20937368625682e+18 -0 -0)
(5.27159143614201e+18 -0 -0)
(5.33388387284156e+18 -0 -0)
(5.39624773460741e+18 -0 -0)
(5.45867963800662e+18 -0 -0)
(5.52117607692799e+18 -0 -0)
(5.58373342161248e+18 -0 -0)
(5.64634791722959e+18 -0 -0)
(5.7090156828127e+18 -0 -0)
(5.77173270987774e+18 -0 -0)
(5.83449486115885e+18 -0 -0)
(5.89729786923869e+18 -0 -0)
(5.96013733500582e+18 -0 -0)
(6.02300872603231e+18 -0 -0)
(6.08590737582784e+18 -0 -0)
(6.14882848258237e+18 -0 -0)
(6.21176710405628e+18 -0 -0)
(6.27471814986903e+18 -0 -0)
(6.33767639926086e+18 -0 -0)
(6.40063653753018e+18 -0 -0)
(6.4635930570389e+18 -0 -0)
(6.5265400110587e+18 -0 -0)
(6.58947147927331e+18 -0 -0)
(6.65238299536368e+18 -0 -0)
(6.71526945661692e+18 -0 -0)
(6.77811680973089e+18 -0 -0)
(6.84091082619799e+18 -0 -0)
(6.9036829834054e+18 -0 -0)
(6.96646945960573e+18 -0 -0)
(7.02927525464292e+18 -0 -0)
(7.0920929538765e+18 -0 -0)
(7.15491404528487e+18 -0 -0)
(7.21772972143499e+18 -0 -0)
(7.28053093067579e+18 -0 -0)
(7.34330845036089e+18 -0 -0)
(7.406052892419e+18 -0 -0)
(7.46875469924405e+18 -0 -0)
(7.53140413693038e+18 -0 -0)
(7.59399128802107e+18 -0 -0)
(7.65650604389744e+18 -0 -0)
(7.71893809653038e+18 -0 -0)
(7.78127692972273e+18 -0 -0)
(7.84351181017496e+18 -0 -0)
(7.90563177784036e+18 -0 -0)
(7.96762563570996e+18 -0 -0)
(8.02948193923639e+18 -0 -0)
(8.09118898496662e+18 -0 -0)
(8.15273479871547e+18 -0 -0)
(8.21410712289544e+18 -0 -0)
(8.27529340320631e+18 -0 -0)
(8.33628077469699e+18 -0 -0)
(8.39705604679434e+18 -0 -0)
(8.45760568758796e+18 -0 -0)
(8.51791580770992e+18 -0 -0)
(8.57797214108964e+18 -0 -0)
(8.63776003196678e+18 -0 -0)
(8.69726440004635e+18 -0 -0)
(8.75646975931951e+18 -0 -0)
(8.81536010270344e+18 -0 -0)
(8.87391909228078e+18 -0 -0)
(8.93212956999092e+18 -0 -0)
(8.98997452351029e+18 -0 -0)
(9.04743500823703e+18 -0 -0)
(9.10449427121566e+18 -0 -0)
(9.1611295258525e+18 -0 -0)
(9.21732779518309e+18 -0 -0)
(9.27305573461507e+18 -0 -0)
(9.32831578964881e+18 -0 -0)
(9.3830439060933e+18 -0 -0)
(9.43729048567e+18 -0 -0)
(9.49091006652168e+18 -0 -0)
(9.54407704799372e+18 -0 -0)
(9.59645353093844e+18 -0 -0)
(9.64849377131866e+18 -0 -0)
(9.6994913794359e+18 -0 -0)
(9.74984466062613e+18 -0 -0)
(9.80068795918618e+18 -0 -0)
(9.84943761177783e+18 -0 -0)
(9.89780441627429e+18 -0 -0)
(9.94602708154692e+18 -0 -0)
(9.99253861214408e+18 -0 -0)
(1.00400322952669e+19 -0 -0)
(1.00845211962299e+19 -0 -0)
(1.01310020430454e+19 -0 -0)
(1.01742277302847e+19 -0 -0)
(1.02173599484045e+19 -0 -0)
(1.02571778081939e+19 -0 -0)
(1.03042509760836e+19 -0 -0)
(1.03386051425021e+19 -0 -0)
(1.03763556470853e+19 -0 -0)
(1.04203364510816e+19 -0 -0)
(1.04505660287719e+19 -0 -0)
(1.04829658133627e+19 -0 -0)
(1.05239830160194e+19 -0 -0)
(1.05448484685642e+19 -0 -0)
(1.05792159611447e+19 -0 -0)
(1.06056437543614e+19 -0 -0)
(1.06314073070913e+19 -0 -0)
(1.06513483861795e+19 -0 -0)
(1.06831516951378e+19 -0 -0)
(1.06973551915074e+19 -0 -0)
(1.07240056714005e+19 -0 -0)
(1.07455542772873e+19 -0 -0)
(1.07743007259198e+19 -0 -0)
(1.07959501682196e+19 -0 -0)
(1.08320883466504e+19 -0 -0)
(1.0866778615494e+19 -0 -0)
(1.09193153607166e+19 -0 -0)
(1.09819752329477e+19 -0 -0)
(1.10774133009804e+19 -0 -0)
(1.12260741901139e+19 -0 -0)
(1.1419495206806e+19 -0 -0)
(1.16731097748887e+19 -0 -0)
(1.19520046322833e+19 -0 -0)
(1.21843925594806e+19 -0 -0)
(1.23987179703971e+19 -0 -0)
(1.25794084759863e+19 -0 -0)
(1.27016911008832e+19 -0 -0)
(1.27956810959346e+19 -0 -0)
(1.2868843522341e+19 -0 -0)
(1.29320646617432e+19 -0 -0)
(1.29862591525162e+19 -0 -0)
(1.30382170918623e+19 -0 -0)
(1.30848032070244e+19 -0 -0)
(1.31326808126659e+19 -0 -0)
(1.31780477707329e+19 -0 -0)
(1.32247896484352e+19 -0 -0)
(1.32698382581908e+19 -0 -0)
(1.3316837637832e+19 -0 -0)
(1.33622604651219e+19 -0 -0)
(1.3409843138738e+19 -0 -0)
(1.34557457424927e+19 -0 -0)
(1.3503740852277e+19 -0 -0)
(1.35498048658632e+19 -0 -0)
(1.35980501702156e+19 -0 -0)
(1.36433592103407e+19 -0 -0)
(1.36919272024078e+19 -0 -0)
(1.37367989013188e+19 -0 -0)
(1.37848892346642e+19 -0 -0)
(1.38289696706903e+19 -0 -0)
(1.38763107272823e+19 -0 -0)
(1.39193251678087e+19 -0 -0)
(1.39656524563555e+19 -0 -0)
(1.40073608480174e+19 -0 -0)
(1.40524533325113e+19 -0 -0)
(1.40926516045726e+19 -0 -0)
(1.41363337974667e+19 -0 -0)
(1.41748706723229e+19 -0 -0)
(1.42170200095276e+19 -0 -0)
(1.42537972391943e+19 -0 -0)
(1.42943626191252e+19 -0 -0)
(1.43292426765178e+19 -0 -0)
(1.43680157636553e+19 -0 -0)
(1.44013321295146e+19 -0 -0)
(1.44384016631434e+19 -0 -0)
(1.44698432936846e+19 -0 -0)
(1.45052920160595e+19 -0 -0)
(1.45348425564828e+19 -0 -0)
(1.45687274501169e+19 -0 -0)
(1.45964053226722e+19 -0 -0)
(1.46287849568896e+19 -0 -0)
(1.46546554634216e+19 -0 -0)
(1.46855809184212e+19 -0 -0)
(1.47097192299556e+19 -0 -0)
(1.47392730555845e+19 -0 -0)
(1.47617466438741e+19 -0 -0)
(1.47900285968416e+19 -0 -0)
(1.48109251285694e+19 -0 -0)
(1.48380145609928e+19 -0 -0)
(1.48574207999509e+19 -0 -0)
(1.48834101270794e+19 -0 -0)
(1.49014021146964e+19 -0 -0)
(1.49263774443856e+19 -0 -0)
(1.49430363494229e+19 -0 -0)
(1.49671115263722e+19 -0 -0)
(1.49809940565667e+19 -0 -0)
(1.50071232552541e+19 -0 -0)
(1.50183855748885e+19 -0 -0)
(1.5043798341958e+19 -0 -0)
(1.50538451241151e+19 -0 -0)
(1.50786007001398e+19 -0 -0)
(1.50874955201137e+19 -0 -0)
(1.51116625503164e+19 -0 -0)
(1.51194679815614e+19 -0 -0)
(1.51431027334471e+19 -0 -0)
(1.51498589501421e+19 -0 -0)
(1.51730047569014e+19 -0 -0)
(1.51787576038807e+19 -0 -0)
(1.52014757478586e+19 -0 -0)
(1.52062690419114e+19 -0 -0)
(1.52286011074823e+19 -0 -0)
(1.52324679985652e+19 -0 -0)
(1.52544514620439e+19 -0 -0)
(1.52574259041372e+19 -0 -0)
(1.52790751095755e+19 -0 -0)
(1.52811525321949e+19 -0 -0)
(1.53024827068879e+19 -0 -0)
(1.53036947133721e+19 -0 -0)
(1.53247366250334e+19 -0 -0)
(1.53251148554757e+19 -0 -0)
(1.53458985177421e+19 -0 -0)
(1.53453746310069e+19 -0 -0)
(1.53658380733347e+19 -0 -0)
(1.53644385112812e+19 -0 -0)
(1.53845677139819e+19 -0 -0)
(1.53821618663115e+19 -0 -0)
(1.54018949952612e+19 -0 -0)
(1.53971532196498e+19 -0 -0)
(1.54184907876437e+19 -0 -0)
(1.5391969548778e+19 -0 -0)
)
;

boundaryField
{
    electrode
    {
        type            calculated;
        value           uniform (-13599883652.9944 -0 -0);
    }
    ground
    {
        type            calculated;
        value           uniform (1.54210005643568e+19 -0 -0);
    }
    otherfaces
    {
        type            empty;
    }
}


// ************************************************************************* //
