/*--------------------------------*- C++ -*----------------------------------*\
| =========                 |                                                 |
| \\      /  F ield         | foam-extend: Open Source CFD                    |
|  \\    /   O peration     | Version:     4.0                                |
|   \\  /    A nd           | Web:         http://www.foam-extend.org         |
|    \\/     M anipulation  |                                                 |
\*---------------------------------------------------------------------------*/
FoamFile
{
    version     2.0;
    format      ascii;
    class       volVectorField;
    location    "9.4e-06";
    object      J_electron;
}
// * * * * * * * * * * * * * * * * * * * * * * * * * * * * * * * * * * * * * //

dimensions      [1 -1 -1 0 0 0 0];

internalField   nonuniform List<vector> 
300
(
(-1.34305811285122e+19 0 0)
(-1.37865537153824e+19 0 0)
(-1.6302407654162e+19 0 0)
(-1.57921327402252e+19 0 0)
(-1.57848689858075e+19 0 0)
(-1.57700736787519e+19 0 0)
(-1.57007163696715e+19 0 0)
(-1.56483190575286e+19 0 0)
(-1.55934918661053e+19 0 0)
(-1.55379313181409e+19 0 0)
(-1.54827545792517e+19 0 0)
(-1.54274433770315e+19 0 0)
(-1.53720938712943e+19 0 0)
(-1.53167116514062e+19 0 0)
(-1.52612829550402e+19 0 0)
(-1.52058082039187e+19 0 0)
(-1.51502843197221e+19 0 0)
(-1.5094708344815e+19 0 0)
(-1.50390775853346e+19 0 0)
(-1.49833892785076e+19 0 0)
(-1.49276407198053e+19 0 0)
(-1.48718291837767e+19 0 0)
(-1.481595205319e+19 0 0)
(-1.47600066296776e+19 0 0)
(-1.47039903704229e+19 0 0)
(-1.46479007072046e+19 0 0)
(-1.45917350567979e+19 0 0)
(-1.45354909568429e+19 0 0)
(-1.44791659246183e+19 0 0)
(-1.44227575547207e+19 0 0)
(-1.43662633893552e+19 0 0)
(-1.43096811714164e+19 0 0)
(-1.42530085098724e+19 0 0)
(-1.41962431743429e+19 0 0)
(-1.41393829101301e+19 0 0)
(-1.40824255294848e+19 0 0)
(-1.40253689140833e+19 0 0)
(-1.39682109284741e+19 0 0)
(-1.39109495518898e+19 0 0)
(-1.38535827354029e+19 0 0)
(-1.3796108563371e+19 0 0)
(-1.37385250693657e+19 0 0)
(-1.3680830416176e+19 0 0)
(-1.36230227670723e+19 0 0)
(-1.35651003768586e+19 0 0)
(-1.35070615012751e+19 0 0)
(-1.344890447055e+19 0 0)
(-1.33906277038123e+19 0 0)
(-1.33322295887596e+19 0 0)
(-1.32737086580552e+19 0 0)
(-1.32150633661171e+19 0 0)
(-1.31562924047647e+19 0 0)
(-1.30973943406644e+19 0 0)
(-1.30383679223046e+19 0 0)
(-1.29792118527235e+19 0 0)
(-1.29199249643875e+19 0 0)
(-1.28605060854278e+19 0 0)
(-1.28009541192253e+19 0 0)
(-1.27412680692259e+19 0 0)
(-1.26814468823956e+19 0 0)
(-1.26214896634844e+19 0 0)
(-1.25613955384641e+19 0 0)
(-1.2501163618778e+19 0 0)
(-1.24407931538983e+19 0 0)
(-1.23802834127762e+19 0 0)
(-1.23196336564766e+19 0 0)
(-1.22588433230104e+19 0 0)
(-1.21979117476365e+19 0 0)
(-1.21368384063527e+19 0 0)
(-1.20756227991612e+19 0 0)
(-1.20142644097843e+19 0 0)
(-1.1952762893512e+19 0 0)
(-1.18911177872116e+19 0 0)
(-1.18293287610223e+19 0 0)
(-1.17673955077013e+19 0 0)
(-1.17053177098215e+19 0 0)
(-1.16430951310416e+19 0 0)
(-1.15807275044732e+19 0 0)
(-1.1518214601165e+19 0 0)
(-1.14555562672547e+19 0 0)
(-1.13927522600149e+19 0 0)
(-1.13298024381321e+19 0 0)
(-1.12667066095575e+19 0 0)
(-1.1203464589782e+19 0 0)
(-1.11400762090874e+19 0 0)
(-1.10765412679292e+19 0 0)
(-1.10128595380118e+19 0 0)
(-1.09490307902682e+19 0 0)
(-1.08850547566266e+19 0 0)
(-1.0820931101298e+19 0 0)
(-1.07566594802408e+19 0 0)
(-1.06922394761854e+19 0 0)
(-1.062767055379e+19 0 0)
(-1.05629522006549e+19 0 0)
(-1.04980837260339e+19 0 0)
(-1.04330643289297e+19 0 0)
(-1.03678931607036e+19 0 0)
(-1.03025691716642e+19 0 0)
(-1.02370912002045e+19 0 0)
(-1.01714579037319e+19 0 0)
(-1.01056677500708e+19 0 0)
(-1.00397189997165e+19 0 0)
(-9.97360970655072e+18 0 0)
(-9.90733756919343e+18 0 0)
(-9.84090007202483e+18 0 0)
(-9.77429469208773e+18 0 0)
(-9.70751859640605e+18 0 0)
(-9.64056660025541e+18 0 0)
(-9.57343233038772e+18 0 0)
(-9.5061196295074e+18 0 0)
(-9.43863957373636e+18 0 0)
(-9.37094610155943e+18 0 0)
(-9.30293464170968e+18 0 0)
(-9.23477991659667e+18 0 0)
(-9.16702708054098e+18 0 0)
(-9.09875767669948e+18 0 0)
(-9.026215817448e+18 0 0)
(-8.95132520671714e+18 0 0)
(-8.87928752932389e+18 0 0)
(-8.80916960089001e+18 0 0)
(-8.73903233913481e+18 0 0)
(-8.66859861346615e+18 0 0)
(-8.59778510324394e+18 0 0)
(-8.52655400258057e+18 0 0)
(-8.45488122975381e+18 0 0)
(-8.38274364430562e+18 0 0)
(-8.31011648683639e+18 0 0)
(-8.23697237426517e+18 0 0)
(-8.16328093346981e+18 0 0)
(-8.08900849415592e+18 0 0)
(-8.01411768753691e+18 0 0)
(-7.93856699801849e+18 0 0)
(-7.86231038571656e+18 0 0)
(-7.78529673353101e+18 0 0)
(-7.70746925416186e+18 0 0)
(-7.62876490045194e+18 0 0)
(-7.54911355448223e+18 0 0)
(-7.46843726719117e+18 0 0)
(-7.3866492799573e+18 0 0)
(-7.3036529457787e+18 0 0)
(-7.21934058088772e+18 0 0)
(-7.13359203500242e+18 0 0)
(-7.04627313751045e+18 0 0)
(-6.95723400894821e+18 0 0)
(-6.86630675142201e+18 0 0)
(-6.77330400555041e+18 0 0)
(-6.67801404076196e+18 0 0)
(-6.58020330905377e+18 0 0)
(-6.47960070132859e+18 0 0)
(-6.37592000136321e+18 0 0)
(-6.26880120625719e+18 0 0)
(-6.15791513394322e+18 0 0)
(-6.04274244618656e+18 0 0)
(-5.92298083554951e+18 0 0)
(-5.7977628232568e+18 0 0)
(-5.66707328248395e+18 0 0)
(-5.52917161824433e+18 0 0)
(-5.38509734625201e+18 0 0)
(-5.23094614454934e+18 0 0)
(-5.07044910168906e+18 0 0)
(-4.89481171071035e+18 0 0)
(-4.71239565693053e+18 0 0)
(-4.50175923512672e+18 0 0)
(-4.26318604050262e+18 0 0)
(-3.92977644424842e+18 0 0)
(-3.15767523689313e+18 0 0)
(-2.30670195073692e+18 0 0)
(-2.0750334103881e+18 0 0)
(-2.02604748448727e+18 0 0)
(-1.73170364014972e+18 0 0)
(-1.13466530041692e+18 0 0)
(-4.34467251626705e+17 0 0)
(2.032487793741e+17 0 0)
(6.40914592117031e+17 0 0)
(3.28645997939917e+17 0 0)
(-3.7999493543415e+17 0 0)
(-2.59195317056963e+16 0 0)
(1.29528163884597e+17 0 0)
(-1.61063767170037e+18 0 0)
(-2.26234671841673e+18 0 0)
(-2.20746706786976e+18 0 0)
(-3.89729160128155e+18 0 0)
(-4.34569784626617e+18 0 0)
(-3.8215397713222e+18 0 0)
(-3.84562524804402e+18 0 0)
(-2.8754243577027e+18 0 0)
(-8.25691155755696e+17 0 0)
(1.21889637230078e+18 0 0)
(4.26419469523616e+18 0 0)
(7.51203832060654e+18 0 0)
(1.01211753454649e+19 0 0)
(1.23893704289519e+19 0 0)
(1.40356898000806e+19 0 0)
(1.42201918725229e+19 0 0)
(1.47448223084836e+19 0 0)
(1.23196052322913e+19 0 0)
(1.05709691000274e+19 0 0)
(8.53887394907161e+18 0 0)
(6.23214789815573e+18 0 0)
(8.91083302472581e+18 0 0)
(-4.85361230131069e+18 0 0)
(2.52855362960661e+18 0 0)
(-5.87599296181854e+17 0 0)
(-2.10573259824464e+18 0 0)
(-2.02666132033135e+18 0 0)
(-1.98937660567502e+18 0 0)
(-2.14826493935825e+18 0 0)
(-2.45211456796522e+18 0 0)
(-2.72146608140953e+18 0 0)
(-2.88599808066249e+18 0 0)
(-2.96124613467394e+18 0 0)
(-2.98356870555891e+18 0 0)
(-2.97458363768173e+18 0 0)
(-2.95148126273655e+18 0 0)
(-2.91740617474169e+18 0 0)
(-2.88356684338379e+18 0 0)
(-2.84337665188092e+18 0 0)
(-2.79899444697928e+18 0 0)
(-2.75296255672025e+18 0 0)
(-2.70693346904757e+18 0 0)
(-2.66136275909234e+18 0 0)
(-2.61434689884503e+18 0 0)
(-2.56745484318737e+18 0 0)
(-2.52057749000493e+18 0 0)
(-2.47318317543985e+18 0 0)
(-2.42578063845301e+18 0 0)
(-2.37842400879661e+18 0 0)
(-2.33124752048178e+18 0 0)
(-2.28434365198995e+18 0 0)
(-2.23779981827701e+18 0 0)
(-2.19169462198713e+18 0 0)
(-2.1460997006637e+18 0 0)
(-2.10107981095119e+18 0 0)
(-2.05669258881615e+18 0 0)
(-2.01298931266133e+18 0 0)
(-1.97001224154516e+18 0 0)
(-1.92780199635381e+18 0 0)
(-1.88634940206941e+18 0 0)
(-1.84569970600435e+18 0 0)
(-1.80609690946028e+18 0 0)
(-1.76721790895345e+18 0 0)
(-1.7292330260501e+18 0 0)
(-1.69211988730433e+18 0 0)
(-1.65588958578321e+18 0 0)
(-1.62054626081982e+18 0 0)
(-1.58608675815292e+18 0 0)
(-1.55250481680465e+18 0 0)
(-1.51979110968055e+18 0 0)
(-1.48793418721291e+18 0 0)
(-1.45692041208571e+18 0 0)
(-1.4267349632953e+18 0 0)
(-1.39736173186015e+18 0 0)
(-1.36878597212561e+18 0 0)
(-1.34098573746325e+18 0 0)
(-1.31396951445117e+18 0 0)
(-1.28761049845923e+18 0 0)
(-1.26203572887869e+18 0 0)
(-1.23719232682396e+18 0 0)
(-1.21294491160963e+18 0 0)
(-1.18938157819801e+18 0 0)
(-1.16644531246166e+18 0 0)
(-1.14412162561968e+18 0 0)
(-1.12238914254977e+18 0 0)
(-1.10122991517392e+18 0 0)
(-1.08062910998958e+18 0 0)
(-1.06056522677009e+18 0 0)
(-1.04101938578949e+18 0 0)
(-1.02197597844459e+18 0 0)
(-1.00341931639678e+18 0 0)
(-9.8532508360422e+17 0 0)
(-9.67695895907114e+17 0 0)
(-9.50365475295596e+17 0 0)
(-9.33718453197921e+17 0 0)
(-9.17374436836552e+17 0 0)
(-9.01419654504425e+17 0 0)
(-8.85843407893509e+17 0 0)
(-8.70640489487604e+17 0 0)
(-8.55799469453681e+17 0 0)
(-8.41309640305702e+17 0 0)
(-8.27159587167513e+17 0 0)
(-8.13339441891198e+17 0 0)
(-7.99830321130769e+17 0 0)
(-7.86634176004553e+17 0 0)
(-7.73578459810664e+17 0 0)
(-7.61037715445113e+17 0 0)
(-7.48938314312614e+17 0 0)
(-7.36974265979607e+17 0 0)
(-7.25276476354856e+17 0 0)
(-7.13871119782942e+17 0 0)
(-7.02313623134736e+17 0 0)
(-6.91960063067087e+17 0 0)
(-6.81483369999884e+17 0 0)
(-6.70984186075676e+17 0 0)
(-6.61199896285282e+17 0 0)
(-6.51848001143929e+17 0 0)
(-6.42531956296665e+17 0 0)
(-6.34329154565362e+17 0 0)
(-6.27024641721245e+17 0 0)
(-6.20608864362655e+17 0 0)
(-6.09578838471466e+17 0 0)
)
;

boundaryField
{
    electrode
    {
        type            calculated;
        value           uniform (-1.60645843516848e+19 0 0);
    }
    ground
    {
        type            calculated;
        value           uniform (-6.06916533012016e+17 0 0);
    }
    otherfaces
    {
        type            empty;
    }
}


// ************************************************************************* //
