/*--------------------------------*- C++ -*----------------------------------*\
| =========                 |                                                 |
| \\      /  F ield         | foam-extend: Open Source CFD                    |
|  \\    /   O peration     | Version:     4.0                                |
|   \\  /    A nd           | Web:         http://www.foam-extend.org         |
|    \\/     M anipulation  |                                                 |
\*---------------------------------------------------------------------------*/
FoamFile
{
    version     2.0;
    format      ascii;
    class       volScalarField;
    location    "9.4e-06";
    object      N_electronMean;
}
// * * * * * * * * * * * * * * * * * * * * * * * * * * * * * * * * * * * * * //

dimensions      [0 0 0 1 0 0 0];

internalField   nonuniform List<scalar> 
300
(
6.23395158411664e+16
6.23379402650834e+16
6.23336994402985e+16
6.23263496724677e+16
6.23159360285554e+16
6.23024263086257e+16
6.22858051624442e+16
6.22660649112038e+16
6.22431974170059e+16
6.22171965493324e+16
6.21880575624258e+16
6.21557769266926e+16
6.21203522622993e+16
6.20817822254263e+16
6.20400664370142e+16
6.19952054116109e+16
6.1947200496269e+16
6.18960538182695e+16
6.18417682342825e+16
6.17843472822282e+16
6.17237951387592e+16
6.16601165789948e+16
6.15933169376908e+16
6.15234020694991e+16
6.14503783199549e+16
6.13742525027308e+16
6.12950318580274e+16
6.12127240111959e+16
6.11273369390027e+16
6.10388789241754e+16
6.09473585260088e+16
6.08527845725085e+16
6.07551661190542e+16
6.06545123818915e+16
6.05508326903688e+16
6.04441364487591e+16
6.03344330987028e+16
6.02217320848368e+16
6.01060428172132e+16
5.99873746331783e+16
5.98657367661578e+16
5.97411383138933e+16
5.96135882006796e+16
5.94830951429072e+16
5.93496676194192e+16
5.9213313842667e+16
5.90740417319396e+16
5.89318588896195e+16
5.87867725830872e+16
5.8638789732089e+16
5.84879169092833e+16
5.83341603414166e+16
5.81775258896882e+16
5.8018019012535e+16
5.78556447120553e+16
5.76904074789007e+16
5.7522311245212e+16
5.73513593479707e+16
5.71775545012242e+16
5.70008987692631e+16
5.68213935426842e+16
5.66390395162843e+16
5.64538366644505e+16
5.62657842366358e+16
5.60748807769998e+16
5.58811241012953e+16
5.56845112336305e+16
5.54850383693746e+16
5.52827008580618e+16
5.50774931861531e+16
5.48694089597445e+16
5.46584408978829e+16
5.44445808459507e+16
5.42278197675934e+16
5.40081477118967e+16
5.3785553816784e+16
5.35600263259126e+16
5.33315525733831e+16
5.31001189379728e+16
5.2865710815668e+16
5.26283126180641e+16
5.2387907725032e+16
5.2144478439277e+16
5.18980059725321e+16
5.16484704408413e+16
5.13958508750494e+16
5.11401252015655e+16
5.08812701988705e+16
5.06192614800097e+16
5.03540734938467e+16
5.0085679509871e+16
4.98140516317326e+16
4.95391608187619e+16
4.92609768318973e+16
4.89794681830117e+16
4.8694602124528e+16
4.84063446386596e+16
4.81146604272276e+16
4.78195129018142e+16
4.75208641819474e+16
4.72186750926458e+16
4.69129051462678e+16
4.66035125476568e+16
4.62904542139095e+16
4.59736857508234e+16
4.56531614389747e+16
4.53288342362478e+16
4.5000655771092e+16
4.46685763482992e+16
4.43325449352121e+16
4.39925091408258e+16
4.36484152121975e+16
4.33002080393043e+16
4.29478311729145e+16
4.25912268301718e+16
4.22303358993448e+16
4.18650979782654e+16
4.14954513950554e+16
4.11213331959021e+16
4.07426791467733e+16
4.03594237677669e+16
3.9971500371363e+16
3.95788410917744e+16
3.91813769209107e+16
3.87790377002309e+16
3.83717520815521e+16
3.7959447534462e+16
3.75420503726854e+16
3.71194857528214e+16
3.66916776800907e+16
3.62585490335921e+16
3.58200215902097e+16
3.53760160403191e+16
3.49264520007706e+16
3.44712480735362e+16
3.40103219163338e+16
3.35435902378702e+16
3.30709687591487e+16
3.2592372211177e+16
3.21077143576004e+16
3.16169079931288e+16
3.111986493544e+16
3.06164960307275e+16
3.01067111667512e+16
2.95904193261904e+16
2.9067528626563e+16
2.8537946290624e+16
2.80015786018257e+16
2.74583308542208e+16
2.69081073471168e+16
2.63508114270105e+16
2.57863454621645e+16
2.52146108261654e+16
2.46355079282919e+16
2.40489361775154e+16
2.34547940179478e+16
2.28529790048909e+16
2.22433879490822e+16
2.16259168539915e+16
2.1000460510494e+16
2.03669105317056e+16
1.97251440294054e+16
1.90750072298541e+16
1.84163078404031e+16
1.77488137615491e+16
1.7072239379185e+16
1.63862233966574e+16
1.5690355950776e+16
1.49842462956206e+16
1.42675572390043e+16
1.35400235467264e+16
1.2801511821787e+16
1.20521323279392e+16
1.12923850145503e+16
1.052337601756e+16
9.74706156161899e+15
8.96636732311231e+15
8.18527462053082e+15
7.40896064301787e+15
6.64379070482657e+15
5.89709191107556e+15
5.17685704157624e+15
4.4913125858795e+15
3.84830667032079e+15
3.25473056066012e+15
2.71598927655116e+15
2.23554738508217e+15
1.81474390465724e+15
1.45282976878045e+15
1.14716164452358e+15
893584580107247
686912480892773
521382973998682
391064663471913
289914848803902
212486577796507
154112203184563
110688602232787
78687990262371.3
55121315130264.2
37839420550644.7
25521888797045.4
16886697000167.4
10921525937257.2
7022186316068.33
4648347518148.22
3288626697948.64
2532362955774.61
2108992944858.36
1864727391490.76
1718189920389.53
1626760644644.35
1567449534953.42
1527385211346.96
1499038336627.1
1477780751336.23
1460620481623.37
1445575984832.86
1431381456713
1417281916324.63
1402701756517
1387245779283.84
1370715744095.5
1353002013803.46
1334067101539.55
1313931914464.17
1292656790480.38
1270328040019.43
1247048795245.71
1222932474425.89
1198097876078.86
1172665949260.3
1146756435269.14
1120485949920.85
1093966543311.27
1067304224815.47
1040598051140.24
1013939856074.61
987413326015.958
961091890629.543
935040255632.278
909317408341.795
883977123090.135
859067603612.339
834630952015.984
810702936531.904
787312541762.617
764482831091.566
742231476150.409
720571405948.53
699512022017.864
679059180390.11
659215134100.276
639978900352.821
621346829406.787
603314166042.613
585872407804.293
569008475066.45
552710642674.931
536967898019.152
521767206562.205
507094248932.933
492934113023.321
479271399107.979
466090510370.96
453375959755.116
441111700376.137
429281450160.263
417869234752.58
406859041426.848
396234419152.768
385978295594.9
376072987603.38
366504035488.648
357260514560.066
348332394903.775
339710393758.409
331385775222.636
323350540375.189
315597465277.537
308120027825.182
300911893950.607
293966185762.27
287268026838.312
280791675408.459
274522032538.336
268463622483.845
262627394975.281
257025337173.972
251652488821.779
246481922024.6
241518615005.725
236808212942.591
232357733152.872
228193551282.923
224399678725.991
221102736727.767
218563887187.864
217220884156.155
217843391341.664
)
;

boundaryField
{
    electrode
    {
        type            calculated;
        value           uniform 6.23395158412925e+16;
    }
    ground
    {
        type            calculated;
        value           uniform 219688935399.15;
    }
    otherfaces
    {
        type            empty;
    }
}


// ************************************************************************* //
