/*--------------------------------*- C++ -*----------------------------------*\
| =========                 |                                                 |
| \\      /  F ield         | foam-extend: Open Source CFD                    |
|  \\    /   O peration     | Version:     4.0                                |
|   \\  /    A nd           | Web:         http://www.foam-extend.org         |
|    \\/     M anipulation  |                                                 |
\*---------------------------------------------------------------------------*/
FoamFile
{
    version     2.0;
    format      ascii;
    class       volScalarField;
    location    "9.4e-06";
    object      Phi;
}
// * * * * * * * * * * * * * * * * * * * * * * * * * * * * * * * * * * * * * //

dimensions      [0 0 0 1 0 0 0];

internalField   nonuniform List<scalar> 
300
(
699.9999304215
699.999705394564
699.999180105518
699.998386686725
699.997333451862
699.996014982934
699.994432143538
699.992584515323
699.990471538353
699.98809273072
699.985447515542
699.982535265272
699.979355299721
699.975906882673
699.972189222785
699.968201473034
699.963942730284
699.959412034906
699.954608370315
699.949530662511
699.944177779571
699.938548531127
699.932641667809
699.92645588066
699.919989800518
699.913241997371
699.906210979678
699.898895193659
699.891293022546
699.883402785803
699.875222738313
699.866751069525
699.857985902559
699.84892529328
699.839567229326
699.829909629096
699.819950340693
699.809687140826
699.799117733659
699.788239749623
699.777050744166
699.76554819646
699.753729508049
699.741592001453
699.729132918693
699.716349419782
699.703238581134
699.689797393921
699.676022762352
699.661911501895
699.647460337418
699.632665901253
699.617524731188
699.602033268376
699.586187855149
699.569984732757
699.553420039007
699.536489805799
699.519189956573
699.501516303641
699.483464545409
699.465030263491
699.446208919691
699.426995852865
699.407386275652
699.38737527106
699.366957788908
699.346128642123
699.324882502866
699.303213898498
699.28111720737
699.258586654419
699.235616306585
699.212200068012
699.188331675039
699.164004690964
699.139212500576
699.113948304432
699.088205112869
699.061975739747
699.035252795895
699.008028682246
698.980295582655
698.952045456367
698.923270030124
698.893960789892
698.864108972181
698.833705554934
698.802741247967
698.771206482925
698.739091402732
698.706385850496
698.673079357849
698.639161132671
698.604620046173
698.56944461929
698.533623008348
698.497142989946
698.459991945022
698.422156842019
698.383624219128
698.344380165514
698.304410301469
698.263699757431
698.222233151756
698.179994567184
698.136967525896
698.093134963095
698.048479198987
698.002981908772
697.956624090624
697.909386032993
697.861247280911
697.812186592954
697.762181887348
697.711210220747
697.659247820513
697.606269937257
697.552250375205
697.497161566664
697.44097476844
697.383660020546
697.325186068962
697.26552028844
697.204628598781
697.142475374541
697.079023347627
697.014233502103
696.948064960417
696.880474860213
696.811418220761
696.740847797943
696.668713926592
696.594964348833
696.519544026913
696.442394938801
696.363455854624
696.282662091739
696.199945245957
696.115232896069
696.028448278451
695.939509928046
695.848331281486
695.754820237487
695.658878668912
695.560401880052
695.459278001581
695.355387314643
695.248601493603
695.138782756522
695.02578290755
694.909442259537
694.789588407922
694.666034854351
694.538579410021
694.407002434249
694.27106469924
694.13050516598
693.985037992873
693.834349868539
693.678095503304
693.515894824503
693.347325589378
693.171921309367
692.989157768214
692.79845399826
692.599130860246
692.390288083922
692.170857400848
691.939710199152
691.695586078708
691.437037959025
691.162317858561
690.869368186867
690.555735368433
690.218605915329
689.855006834309
689.461704161823
689.034604509461
688.569282836121
688.061487199837
687.505958382035
686.897077521791
686.229688313512
685.497727445696
684.695288146108
683.816984353695
682.857087485034
681.810404923763
680.672773702726
679.439919610081
678.108369577524
676.675995609476
675.14098785752
673.501793678196
671.757933897032
669.909627373236
667.957308474563
665.90127684436
663.742039116006
661.479997529091
659.115981112203
656.650147883841
654.081619081439
651.409697951458
648.633959264254
645.754522703752
642.771925627889
639.687057289414
636.500898824398
633.214455958561
629.828673671529
626.344435751914
622.762522442805
619.083883823577
615.309620335974
611.440749264921
607.478186627597
603.42277677406
599.275274254611
595.036373646016
590.7066894042
586.286786580911
581.777159430575
577.178261553845
572.490482674795
567.714452993134
562.850794750485
557.900109754899
552.86293829145
547.739807162039
542.531186502625
537.237538714109
531.859273387159
526.396797157725
520.850466862026
515.220640424671
509.507628237562
503.711745186321
497.833260262334
491.872449822151
485.829545498746
479.704859216133
473.498805898625
467.21180953671
460.844252431509
454.396528548063
447.868990724032
441.262006064449
434.575900504861
427.811016856534
420.96765634382
414.04613946419
407.046744659836
399.969771767437
392.815477957299
385.584143856808
378.276006580652
370.891328720164
363.430328429868
355.89325127656
348.280297366542
340.591696134451
332.82763043571
324.988314327019
317.073918060047
309.084789115718
301.021202964241
292.883498530649
284.671934912713
276.386836951731
268.028448260412
259.597080424984
251.092962330339
242.516393046748
233.867587465871
225.146832891302
216.354330929006
207.490357767232
198.555102272824
189.548830107146
180.471717971193
171.324021573012
162.105905979463
152.817617461093
143.459310025979
134.031221140206
124.533494280466
114.96635852101
105.329947212558
95.6244814258053
85.8500847411709
76.006971014562
66.0952548031121
56.1151430545872
46.0667417926819
35.9502520558901
25.765771992274
15.5135031017618
5.19359059387139
)
;

boundaryField
{
    electrode
    {
        type            fixedValue;
        value           uniform 700;
    }
    ground
    {
        type            fixedValue;
        value           uniform 0;
    }
    otherfaces
    {
        type            empty;
    }
}


// ************************************************************************* //
