/*--------------------------------*- C++ -*----------------------------------*\
| =========                 |                                                 |
| \\      /  F ield         | foam-extend: Open Source CFD                    |
|  \\    /   O peration     | Version:     4.0                                |
|   \\  /    A nd           | Web:         http://www.foam-extend.org         |
|    \\/     M anipulation  |                                                 |
\*---------------------------------------------------------------------------*/
FoamFile
{
    version     2.0;
    format      ascii;
    class       volScalarField;
    location    "9.4e-06";
    object      PhiMean;
}
// * * * * * * * * * * * * * * * * * * * * * * * * * * * * * * * * * * * * * //

dimensions      [0 0 0 1 0 0 0];

internalField   nonuniform List<scalar> 
300
(
699.992137974127
699.99127020459
699.990123899473
699.988725608781
699.987084335225
699.985193822472
699.983054027915
699.980664083202
699.978023079986
699.975130313685
699.971985110699
699.968586863268
699.964935008792
699.961029022364
699.956868410841
699.952452705844
699.947781458462
699.942854235384
699.9376706142
699.932230179
699.926532517118
699.92057721569
699.914363858529
699.907892022872
699.90116127585
699.894171177326
699.886921273149
699.879411091876
699.871640143777
699.863607915244
699.855313864623
699.846757428682
699.837938017301
699.82885500376
699.819507721974
699.809895463404
699.800017473582
699.789872949911
699.77946103811
699.768780827994
699.757831351101
699.746611578469
699.735120415519
699.723356699112
699.711319194344
699.699006591458
699.686417502585
699.673550459215
699.660403909408
699.646976217196
699.633265661036
699.61927043857
699.604988659631
699.590418345546
699.575557417567
699.560403691435
699.544954868769
699.529208532341
699.513162141859
699.49681302913
699.480158393658
699.463195298221
699.445920663541
699.428331262937
699.41042372972
699.392194551299
699.373640051731
699.354756386831
699.335539538952
699.31598531129
699.296089321904
699.275846997082
699.255253572243
699.234304087979
699.212993374587
699.191316050695
699.1692665244
699.146838981991
699.124027379178
699.100825421293
699.077226573514
699.053224034241
699.028810724376
699.003979279696
698.978722038337
698.953031040423
698.926898013867
698.900314355453
698.873271118155
698.845759004363
698.817768349757
698.789289108481
698.760310861351
698.730822776963
698.700813593995
698.670271605712
698.639184641489
698.607540049398
698.575324674721
698.54252484216
698.509126335606
698.475114372293
698.440473575896
698.40518796805
698.369240926635
698.332615158998
698.295292677209
698.257254757749
698.218481918119
698.178953873951
698.138649496699
698.09754677456
698.055622767339
698.012853565576
697.969214242523
697.924678795275
697.879220101885
697.832809865211
697.785418538079
697.737015255214
697.687567760183
697.637042340034
697.58540373125
697.53261504587
697.478637662669
697.42343110737
697.366952935634
697.309158618909
697.250001395479
697.189432124527
697.127399125395
697.063848004996
696.998721464164
696.931959084564
696.863497103303
696.793268188475
696.721201143545
696.647220596429
696.571246651094
696.493194528186
696.412974142904
696.330489643485
696.245638901761
696.158312940441
696.068395310286
695.97576139731
695.880277601789
695.781800436265
695.680175493789
695.575236285686
695.466802966879
695.354680820104
695.238658541651
695.11850630724
694.993973492563
694.864786037883
694.730643502609
694.591215421558
694.446137413579
694.295005842529
694.137372830726
693.972736356309
693.800520265096
693.620062341618
693.430600428939
693.231254644538
693.020983822501
692.798559280372
692.562572957252
692.31139439178
692.043112034268
691.755491732967
691.445946252402
691.111472502424
690.748623908207
690.353610209692
689.922218032587
689.449693539925
688.930945759554
688.360594349226
687.732931912249
687.042110147562
686.282371108084
685.44796035728
684.533477256863
683.534046120422
682.445187422423
681.263096518322
679.984848857481
678.608062945545
677.130933566898
675.552483404436
673.872314955082
672.090412201311
670.206953102125
668.22248513279
666.137512362857
663.952461075061
661.667664389988
659.283474388556
656.800222580714
654.218162194616
651.537222354473
648.757395250724
645.878861505552
642.902119263807
639.827878627291
636.657001210644
633.390413547961
630.029015802541
626.573670314333
623.025162203645
619.384271025051
615.651818919089
611.82874043508
607.915930279648
603.914226630326
599.824382694933
595.647106336761
591.383029460526
587.032748760495
582.596792586196
578.075663120712
573.469801246657
568.779630123195
564.005579154429
559.148264000208
554.208250156419
549.186097640041
544.082309269972
538.897388237901
533.631783481515
528.285949932666
522.860292040927
517.355224859203
511.771113625638
506.108337741506
500.367227700727
494.548131497301
488.651348859306
482.677200147114
476.625958145136
470.497941271367
464.293548772761
458.013230107762
451.657383424222
445.226433058741
438.720751843436
432.140741271164
425.486750884095
418.759161271695
411.958300366844
405.084529515544
398.138156442077
391.119524670286
384.028922928887
376.866678109389
369.633061007814
362.328382894562
354.952897567757
347.506901537716
339.990632448861
332.404372833604
324.748344830818
317.022817714306
309.228000997265
301.36419385545
293.431661354262
285.430749813997
277.361752518643
269.225025459774
261.02084779582
252.749563671175
244.411438055594
236.006803960059
227.535912754832
218.999086976009
210.396564963999
201.728659382052
192.995596076302
184.197678392472
175.335120145289
166.408215895452
157.417167859813
148.362262395148
139.243690649256
130.061731363418
120.816565004281
111.508463148252
102.137595920374
92.7042281269462
83.2085200252815
73.6507303854565
64.0310100708303
54.3496121386133
44.6066786837794
34.8024579671066
24.937083880765
15.0108012443422
5.02374365800064
)
;

boundaryField
{
    electrode
    {
        type            calculated;
        value           uniform 699.999999999367;
    }
    ground
    {
        type            calculated;
        value           uniform 0;
    }
    otherfaces
    {
        type            empty;
    }
}


// ************************************************************************* //
