/*--------------------------------*- C++ -*----------------------------------*\
| =========                 |                                                 |
| \\      /  F ield         | foam-extend: Open Source CFD                    |
|  \\    /   O peration     | Version:     4.0                                |
|   \\  /    A nd           | Web:         http://www.foam-extend.org         |
|    \\/     M anipulation  |                                                 |
\*---------------------------------------------------------------------------*/
FoamFile
{
    version     2.0;
    format      ascii;
    class       volScalarField;
    location    "9.4e-06";
    object      Sy_electron;
}
// * * * * * * * * * * * * * * * * * * * * * * * * * * * * * * * * * * * * * //

dimensions      [1 -3 -1 0 0 0 0];

internalField   nonuniform List<scalar> 
300
(
3.07820013663289e-09
3.07885237539268e-09
3.07907525006396e-09
3.07896604159598e-09
3.07886306582136e-09
3.07869914004216e-09
3.07848209503459e-09
3.07821674679542e-09
3.07790084778736e-09
3.07753452211403e-09
3.07711750567137e-09
3.07664943794533e-09
3.07613000105902e-09
3.07555884891819e-09
3.07493562186178e-09
3.07425994731867e-09
3.07353143827161e-09
3.0727496936441e-09
3.07191429816077e-09
3.0710248222367e-09
3.07008082189161e-09
3.06908183865935e-09
3.06802739949078e-09
3.06691701665784e-09
3.06575018762698e-09
3.06452639502475e-09
3.06324510647638e-09
3.06190577451621e-09
3.06050783649196e-09
3.05905071442805e-09
3.05753381489395e-09
3.0559565289643e-09
3.05431823206534e-09
3.05261828381501e-09
3.05085602792593e-09
3.04903079207767e-09
3.04714188776785e-09
3.04518861020474e-09
3.04317023815063e-09
3.04108603376906e-09
3.03893524249129e-09
3.03671709286004e-09
3.03443079636347e-09
3.03207554728307e-09
3.02965052252221e-09
3.02715488142806e-09
3.02458776561915e-09
3.0219482988008e-09
3.01923558655763e-09
3.01644871618012e-09
3.01358675643793e-09
3.01064875742416e-09
3.00763375026351e-09
3.00454074695638e-09
3.00136874009231e-09
2.99811670263256e-09
2.99478358762466e-09
2.99136832795822e-09
2.9878698360965e-09
2.98428700379398e-09
2.98061870180036e-09
2.9768637795595e-09
2.9730210648876e-09
2.96908936361993e-09
2.96506745933044e-09
2.96095411298167e-09
2.95674806247499e-09
2.95244802229925e-09
2.94805268313468e-09
2.94356071143451e-09
2.9389707489825e-09
2.93428141242938e-09
2.92949129284533e-09
2.92459895522288e-09
2.91960293791494e-09
2.91450175215375e-09
2.9092938814753e-09
2.90397778110598e-09
2.89855187739972e-09
2.89301456708651e-09
2.8873642167782e-09
2.88159916211903e-09
2.87571770709535e-09
2.86971812328999e-09
2.86359864904162e-09
2.85735748866467e-09
2.85099281154849e-09
2.84450275121276e-09
2.83788540433833e-09
2.83113882981392e-09
2.82426104762281e-09
2.81725003769698e-09
2.81010373895745e-09
2.80282004786846e-09
2.79539681722784e-09
2.78783185482683e-09
2.78012292203478e-09
2.77226773231265e-09
2.76426394963819e-09
2.75610918688927e-09
2.74780100411444e-09
2.73933690669197e-09
2.73071434337937e-09
2.72193070443435e-09
2.71298331935548e-09
2.70386945463826e-09
2.69458631138417e-09
2.68513102305534e-09
2.67550065338102e-09
2.66569219183695e-09
2.65570254761942e-09
2.64552855498534e-09
2.63516698943288e-09
2.62461452528779e-09
2.61386761971923e-09
2.60292270200289e-09
2.59177691743258e-09
2.58094360269806e-09
2.57166640498336e-09
2.56219570511683e-09
2.55252655668666e-09
2.54265431533708e-09
2.53257426047214e-09
2.52228154020781e-09
2.51177115097582e-09
2.50103792530311e-09
2.49007652203645e-09
2.4788814167022e-09
2.46744689117694e-09
2.45576702281717e-09
2.44383567275375e-09
2.43164647341755e-09
2.41919281511135e-09
2.4064678315894e-09
2.39346438461866e-09
2.38017504744119e-09
2.36659208681863e-09
2.35270744376319e-09
2.33851271284014e-09
2.32399911983476e-09
2.30915749754773e-09
2.29397825974937e-09
2.27845137299096e-09
2.26256632612931e-09
2.24631209738353e-09
2.22967711854958e-09
2.21264923644645e-09
2.19521567042563e-09
2.17736296802591e-09
2.15907695313205e-09
2.14034267743844e-09
2.12114435235929e-09
2.10146530468395e-09
2.08128787293957e-09
2.06059339753929e-09
2.03936202337932e-09
2.01757281876068e-09
1.99520333164357e-09
1.97223006220387e-09
1.94862750567672e-09
1.92436942005009e-09
1.89942725882493e-09
1.87377384904512e-09
1.84738599515133e-09
1.82025903839581e-09
1.79252284886297e-09
1.76429871132807e-09
1.73607760502336e-09
1.70792659310378e-09
1.6785455639277e-09
1.64803560463472e-09
1.61644852236113e-09
1.58367815652039e-09
1.54947024911749e-09
1.51324162280835e-09
1.47428025808688e-09
1.43273414468958e-09
1.38895757217612e-09
1.34184009373638e-09
1.29087271720736e-09
1.23716349258299e-09
1.17801472519744e-09
1.11467091325602e-09
1.0503652155679e-09
9.8635457380813e-10
9.24132432670604e-10
8.6695418948625e-10
8.11791440137129e-10
7.6576573089367e-10
7.37815281732927e-10
7.15868375181373e-10
7.1784269727834e-10
7.41635952474847e-10
7.90221983454619e-10
8.74407546680704e-10
1.0174149613243e-09
1.23980229104088e-09
1.60960126548541e-09
2.2344186336216e-09
3.35501084279883e-09
4.69765297036568e-09
5.88437552867872e-09
7.16455124201898e-09
7.34129785441726e-09
6.52078948039969e-09
5.24308709719624e-09
3.95176075439518e-09
2.97739214914192e-09
2.30803441585932e-09
1.8863267990816e-09
1.62816519355162e-09
1.47122198930984e-09
1.37588852547879e-09
1.32202024876742e-09
1.29592899583301e-09
1.28081106169074e-09
1.27682445349576e-09
1.27920716725914e-09
1.28470520231194e-09
1.29161940993058e-09
1.29854454937845e-09
1.30311502028245e-09
1.30564024564924e-09
1.30643549482812e-09
1.30520099898817e-09
1.30180468374402e-09
1.29620724129279e-09
1.28843741370242e-09
1.27857061455165e-09
1.26671576557213e-09
1.25300524087206e-09
1.23758718770551e-09
1.22061947503167e-09
1.20226490856248e-09
1.18268742325883e-09
1.16204907904487e-09
1.1405074823967e-09
1.11821383558664e-09
1.09530724195892e-09
1.07190698631162e-09
1.04813156861025e-09
1.02410394607489e-09
9.99938039962359e-10
9.75739458738528e-10
9.51603799267732e-10
9.27616374934981e-10
9.03852525133795e-10
8.80378073655294e-10
8.5724986899442e-10
8.34516369537575e-10
8.12218255663775e-10
7.90341368094955e-10
7.68880010451728e-10
7.4796641045178e-10
7.27615615718394e-10
7.07839970469958e-10
6.88644057456173e-10
6.70024336029478e-10
6.51980054911295e-10
6.34509355070113e-10
6.17605273120706e-10
6.01258878691955e-10
5.85424889269615e-10
5.70010627850171e-10
5.55098722599488e-10
5.40676840111005e-10
5.26732466646711e-10
5.13252744819697e-10
5.00224368950483e-10
4.87633777659771e-10
4.75466588052261e-10
4.63708350250258e-10
4.52330744906653e-10
4.41304967100383e-10
4.30617696233508e-10
4.20258507050643e-10
4.10218406084388e-10
4.00489086214278e-10
3.91062906262963e-10
3.81932934772247e-10
3.73093003693536e-10
3.6453782761006e-10
3.56262220285226e-10
3.47891629523446e-10
3.39467338897673e-10
3.31246476179359e-10
3.23219020101972e-10
3.15400277095333e-10
3.07807254262617e-10
3.00415271037245e-10
2.91963466135982e-10
2.83680464793753e-10
2.75619131852421e-10
2.67081340172159e-10
2.57290307169406e-10
2.47821595230297e-10
2.35502108138524e-10
2.21992676325392e-10
2.04782975360341e-10
1.7993617715209e-10
)
;

boundaryField
{
    electrode
    {
        type            zeroGradient;
    }
    ground
    {
        type            zeroGradient;
    }
    otherfaces
    {
        type            empty;
    }
}


// ************************************************************************* //
