/*--------------------------------*- C++ -*----------------------------------*\
| =========                 |                                                 |
| \\      /  F ield         | foam-extend: Open Source CFD                    |
|  \\    /   O peration     | Version:     4.0                                |
|   \\  /    A nd           | Web:         http://www.foam-extend.org         |
|    \\/     M anipulation  |                                                 |
\*---------------------------------------------------------------------------*/
FoamFile
{
    version     2.0;
    format      ascii;
    class       volScalarField;
    location    "9.4e-06";
    object      TeMean;
}
// * * * * * * * * * * * * * * * * * * * * * * * * * * * * * * * * * * * * * //

dimensions      [0 0 0 1 0 0 0];

internalField   nonuniform List<scalar> 
300
(
36811.5876009189
36811.8787361995
36812.0209317133
36812.051499798
36812.1137458958
36812.1855749341
36812.2699880261
36812.3694807816
36812.4838406003
36812.6135624743
36812.7590346383
36812.9206148574
36813.0986643633
36813.2935226168
36813.505520753
36813.7349806697
36813.9822139586
36814.2475252084
36814.5312117007
36814.8335632911
36815.1548643135
36815.4953921653
36815.8554189503
36816.2352110029
36816.6350286267
36817.0551336077
36817.4957842671
36817.9572336821
36818.4397355612
36818.9435363649
36819.468874454
36820.0159968107
36820.5851574122
36821.1766039127
36821.7905814951
36822.4273301906
36823.0870903673
36823.7701088163
36824.4766328592
36825.2069073345
36825.9611759945
36826.7396892763
36827.5426988137
36828.3704555913
36829.2232124032
36830.1012237404
36831.0047455537
36831.934034694
36832.8893468083
36833.8709363551
36834.8790568358
36835.9139708875
36836.9759560248
36838.0652922665
36839.1822655152
36840.3271717263
36841.5003062598
36842.7019653512
36843.9324550573
36845.1920871008
36846.4811779404
36847.8000550895
36849.1490407828
36850.5284590933
36851.9386601276
36853.3800100873
36854.852878828
36856.3576413952
36857.8946807585
36859.4643913611
36861.0671738434
36862.7034293275
36864.3735773284
36866.07805345
36867.8172950885
36869.5917434097
36871.4018626224
36873.2481454109
36875.1310871531
36877.0511903461
36879.0089883237
36881.0050317885
36883.0398743109
36885.1140778258
36887.2282197269
36889.3829087369
36891.5787822945
36893.8164882084
36896.0966868084
36898.4200647926
36900.7873207803
36903.1991737851
36905.6563967627
36908.1597756754
36910.7101129468
36913.3082515838
36915.9550562142
36918.6514211548
36921.3982677049
36924.1965510505
36927.0472715648
36929.9514451151
36932.9101219517
36935.9244138787
36938.9954691115
36942.1244730083
36945.3126516822
36948.5612789717
36951.8716861489
36955.2452539567
36958.6834171919
36962.1876656454
36965.7595426875
36969.4006684343
36973.1127221552
36976.8974436984
36980.7566418025
36984.692212455
36988.706145304
36992.8004920999
36996.9773944511
37001.23909981
37005.5879539164
37010.0264226783
37014.5571032566
37019.1827034351
37023.9060440772
37028.7300978406
37033.6579958745
37038.6930112684
37043.8385829144
37049.0983434723
37054.4761283217
37059.9759519716
37065.6020455194
37071.3589275449
37077.2513919245
37083.2845069838
37089.4636492637
37095.7945378471
37102.2832641244
37108.9363180026
37115.7606229486
37122.7635715346
37129.9531003767
37137.3377656631
37144.9267875884
37152.7301246895
37160.758507021
37169.0235557071
37177.5379554224
37186.3155162936
37195.3713248405
37204.7219839162
37214.3857143978
37224.3826582349
37234.735137815
37245.4682135412
37256.610285446
37268.1947693137
37280.2680698788
37292.8882230227
37306.1125677099
37319.9998277459
37334.6293388261
37350.1029605282
37366.4981709966
37383.8711257281
37402.3268800649
37422.0103162154
37443.0493709906
37465.5600334583
37489.6705990885
37515.4332121442
37542.8538355748
37572.1458809246
37603.5964643525
37637.3799911943
37673.9644755673
37714.3051142732
37759.7292879249
37812.4550614136
37876.1512425527
37956.1559489354
38060.5911353506
38201.7266981249
38397.1957637317
38672.9639646083
39067.8538633753
39639.8274016578
40477.1179571732
41718.0680444957
43584.4188760845
46495.3237050491
50881.5308083378
57055.9098860047
66010.4199932279
78280.0996131974
94839.6301482752
116069.591264955
142030.47560791
172613.865381081
207590.254226749
246329.025339461
288892.772119753
335335.152722321
385159.312602423
436889.237549664
488310.145247584
537259.947782116
582245.119063313
622589.379322197
658242.764385285
689545.721198067
717006.671824703
741138.307550915
762459.697097585
781451.052278742
798502.309832571
813928.13076031
827976.444222281
840854.98179168
852747.286642235
863803.102577732
874147.044133386
883880.803518317
893087.990036031
901837.417904306
910185.564299407
918178.696797975
925854.488692242
933243.329715462
940369.384989939
947251.410348984
953903.49629187
960335.701292589
966554.525796069
972563.320159266
978362.998329911
983951.247662779
989323.04900405
994472.179857923
999390.770881714
1004069.52587154
1008497.74998139
1012663.45718318
1016553.35365994
1020153.12125
1023447.62420969
1026420.76168949
1029056.03023038
1031336.44410502
1033244.26611138
1034761.27153341
1035868.45976191
1036546.69653005
1036770.1325911
1036531.8442803
1035808.42774923
1034578.07933968
1032820.14257357
1030513.98783706
1027638.83311417
1024173.63750034
1020097.05033884
1015387.6648314
1010023.52599787
1003982.18397984
997241.274100319
989777.940491217
981568.898203581
972590.345570332
962816.60366208
952221.883209298
940780.140367014
928462.866153546
915240.12945792
901080.283393833
885949.845493651
869813.222956687
852632.527985692
834367.433140936
814977.402632666
794419.123538931
772639.11238727
749580.530163815
725182.009080142
699368.625632301
672061.207275562
643174.647370983
612600.495776998
580213.078495219
545876.232865778
509405.646842957
470576.908803684
429109.141470635
384609.252181639
336530.628133383
284077.242189451
226200.909254224
)
;

boundaryField
{
    electrode
    {
        type            calculated;
        value           uniform 36811.5876009202;
    }
    ground
    {
        type            calculated;
        value           uniform 193380.437351896;
    }
    otherfaces
    {
        type            empty;
    }
}


// ************************************************************************* //
