/*--------------------------------*- C++ -*----------------------------------*\
| =========                 |                                                 |
| \\      /  F ield         | foam-extend: Open Source CFD                    |
|  \\    /   O peration     | Version:     4.0                                |
|   \\  /    A nd           | Web:         http://www.foam-extend.org         |
|    \\/     M anipulation  |                                                 |
\*---------------------------------------------------------------------------*/
FoamFile
{
    version     2.0;
    format      ascii;
    class       volVectorField;
    location    "6e-10";
    object      E;
}
// * * * * * * * * * * * * * * * * * * * * * * * * * * * * * * * * * * * * * //

dimensions      [0 0 0 1 0 0 0];

internalField   nonuniform List<vector> 
252
(
(-0 9062.68789158833 -0)
(-0 9062.7127474972 -0)
(-0 9062.71282296089 -0)
(-0 9062.71269291155 -0)
(-0 9062.71279495255 -0)
(-0 9062.71315388772 -0)
(-0 9062.71337749284 -0)
(-0 9062.71323484389 -0)
(-0 9062.71324491564 -0)
(-0 9062.71317532825 -0)
(-0 9062.71293222812 -0)
(-0 9062.71305470382 -0)
(-0 9062.71331436903 -0)
(-0 9062.71338702197 -0)
(-0 9062.71333805948 -0)
(-0 9062.71337762189 -0)
(-0 9062.71345631487 -0)
(-0 9062.71357523038 -0)
(-0 9062.71368575658 -0)
(-0 9062.7138225061 -0)
(-0 9062.71391277961 -0)
(-0 9062.71386945848 -0)
(-0 9062.71369459752 -0)
(-0 9062.71335472387 -0)
(-0 9062.71325787588 -0)
(-0 9062.71328074086 -0)
(-0 9062.71329832835 -0)
(-0 9062.71318605514 -0)
(-0 9062.71310560516 -0)
(-0 9062.71317250593 -0)
(-0 9062.71319831561 -0)
(-0 9062.71319380417 -0)
(-0 9062.71316343501 -0)
(-0 9062.71336243484 -0)
(-0 9062.71354321685 -0)
(-0 9062.71355087817 -0)
(-0 9062.71341655891 -0)
(-0 9062.71321591305 -0)
(-0 9062.71304741138 -0)
(-0 9062.71296660745 -0)
(-0 9062.71302927295 -0)
(-0 9062.71306597167 -0)
(-0 9062.71307115636 -0)
(-0 9062.71314138904 -0)
(-0 9062.71329559538 -0)
(-0 9062.71349274228 -0)
(-0 9062.71360213523 -0)
(-0 9062.71354808562 -0)
(-0 9062.71366212077 -0)
(-0 9062.71400283136 -0)
(-0 9062.71403444799 -0)
(-0 9062.71391895205 -0)
(-0 9062.71391330238 -0)
(-0 9062.71385740815 -0)
(-0 9062.7137359615 -0)
(-0 9062.71361456778 -0)
(-0 9062.71364731421 -0)
(-0 9062.71355889845 -0)
(-0 9062.7135770022 -0)
(-0 9062.71377165271 -0)
(-0 9062.71391297815 -0)
(-0 9062.71374283371 -0)
(-0 9062.7134116587 -0)
(-0 9062.71352873789 -0)
(-0 9062.71366362618 -0)
(-0 9062.71357904528 -0)
(-0 9062.71358243181 -0)
(-0 9062.71369094134 -0)
(-0 9062.71368907357 -0)
(-0 9062.71363851636 -0)
(-0 9062.71367290715 -0)
(-0 9062.71369905766 -0)
(-0 9062.71386472702 -0)
(-0 9062.71395180102 -0)
(-0 9062.71364440248 -0)
(-0 9062.71336348708 -0)
(-0 9062.71341579623 -0)
(-0 9062.71349381267 -0)
(-0 9062.71352347201 -0)
(-0 9062.71380773769 -0)
(-0 9062.71409218174 -0)
(-0 9062.71400920746 -0)
(-0 9062.71389755938 -0)
(-0 9062.71398337466 -0)
(-0 9062.71400869941 -0)
(-0 9062.71398080192 -0)
(-0 9062.71378142839 -0)
(-0 9062.71352317252 -0)
(-0 9062.71323673828 -0)
(-0 9062.71321214433 -0)
(-0 9062.71338826939 -0)
(-0 9062.71327667771 -0)
(-0 9062.71327769835 -0)
(-0 9062.71341456551 -0)
(-0 9062.71335589509 -0)
(-0 9062.71344801504 -0)
(-0 9062.71333858882 -0)
(-0 9062.71320484385 -0)
(-0 9062.7132939359 -0)
(-0 9062.71340654502 -0)
(-0 9062.71347222998 -0)
(-0 9062.71342457755 -0)
(-0 9062.71339921795 -0)
(-0 9062.71322798655 -0)
(-0 9062.71320048942 -0)
(-0 9062.71347996727 -0)
(-0 9062.713724305 -0)
(-0 9062.71374125864 -0)
(-0 9062.71393736336 -0)
(-0 9062.71417954049 -0)
(-0 9062.71402469709 -0)
(-0 9062.71383083589 -0)
(-0 9062.71385977387 -0)
(-0 9062.71377330542 -0)
(-0 9062.71367543005 -0)
(-0 9062.71369079566 -0)
(-0 9062.71375985883 -0)
(-0 9062.71389772983 -0)
(-0 9062.71381360902 -0)
(-0 9062.71366351038 -0)
(-0 9062.71380780382 -0)
(-0 9062.71383927302 -0)
(-0 9062.71370780414 -0)
(-0 9062.71377374062 -0)
(-0 9062.71371151493 -0)
(-0 9062.71346457846 -0)
(-0 9062.71345334358 -0)
(-0 9062.71342832985 -0)
(-0 9062.71347392048 -0)
(-0 9062.71354290259 -0)
(-0 9062.7134300601 -0)
(-0 9062.71351791335 -0)
(-0 9062.71365481516 -0)
(-0 9062.71371559789 -0)
(-0 9062.71370236977 -0)
(-0 9062.71363862703 -0)
(-0 9062.71361317659 -0)
(-0 9062.71363546218 -0)
(-0 9062.7137562092 -0)
(-0 9062.71373321539 -0)
(-0 9062.71365461643 -0)
(-0 9062.71371194687 -0)
(-0 9062.71358015208 -0)
(-0 9062.71351298838 -0)
(-0 9062.71356128409 -0)
(-0 9062.71349507159 -0)
(-0 9062.71346882515 -0)
(-0 9062.71349610557 -0)
(-0 9062.71349260168 -0)
(-0 9062.71342763145 -0)
(-0 9062.71345123453 -0)
(-0 9062.71346916093 -0)
(-0 9062.71339051767 -0)
(-0 9062.71339254576 -0)
(-0 9062.71343617964 -0)
(-0 9062.71345100778 -0)
(-0 9062.71346476059 -0)
(-0 9062.71342456913 -0)
(-0 9062.71338518406 -0)
(-0 9062.71343055657 -0)
(-0 9062.71347548395 -0)
(-0 9062.71345226479 -0)
(-0 9062.71333030569 -0)
(-0 9062.71326341966 -0)
(-0 9062.71323932864 -0)
(-0 9062.71322629248 -0)
(-0 9062.71324417137 -0)
(-0 9062.71317723747 -0)
(-0 9062.71305149919 -0)
(-0 9062.7130581796 -0)
(-0 9062.71307662749 -0)
(-0 9062.71306335755 -0)
(-0 9062.71310411305 -0)
(-0 9062.71307072473 -0)
(-0 9062.71300119027 -0)
(-0 9062.71294688555 -0)
(-0 9062.71293605311 -0)
(-0 9062.71288388128 -0)
(-0 9062.71286605843 -0)
(-0 9062.71278021394 -0)
(-0 9062.71274552849 -0)
(-0 9062.71284856718 -0)
(-0 9062.71285259358 -0)
(-0 9062.71277336333 -0)
(-0 9062.71278887783 -0)
(-0 9062.71284916565 -0)
(-0 9062.71285849335 -0)
(-0 9062.71293600844 -0)
(-0 9062.71289550802 -0)
(-0 9062.71281829867 -0)
(-0 9062.71284057165 -0)
(-0 9062.71281753798 -0)
(-0 9062.71273805223 -0)
(-0 9062.71266973569 -0)
(-0 9062.71266774219 -0)
(-0 9062.71266039527 -0)
(-0 9062.71264235405 -0)
(-0 9062.71265885817 -0)
(-0 9062.71270472047 -0)
(-0 9062.71273954281 -0)
(-0 9062.71273577779 -0)
(-0 9062.71270105864 -0)
(-0 9062.71268283989 -0)
(-0 9062.71267639005 -0)
(-0 9062.71261358915 -0)
(-0 9062.71255957664 -0)
(-0 9062.71256025916 -0)
(-0 9062.71255219064 -0)
(-0 9062.71248970469 -0)
(-0 9062.7124357568 -0)
(-0 9062.71242965034 -0)
(-0 9062.71243593071 -0)
(-0 9062.71242055001 -0)
(-0 9062.71239869435 -0)
(-0 9062.71240693018 -0)
(-0 9062.71238063514 -0)
(-0 9062.71231916662 -0)
(-0 9062.71229968538 -0)
(-0 9062.71233609074 -0)
(-0 9062.7123530041 -0)
(-0 9062.7123644986 -0)
(-0 9062.71239987432 -0)
(-0 9062.71241404434 -0)
(-0 9062.71243403792 -0)
(-0 9062.71248648024 -0)
(-0 9062.71250155416 -0)
(-0 9062.71248792874 -0)
(-0 9062.71249743645 -0)
(-0 9062.71248322942 -0)
(-0 9062.71245279682 -0)
(-0 9062.7124375128 -0)
(-0 9062.71243920025 -0)
(-0 9062.71245299865 -0)
(-0 9062.7124722579 -0)
(-0 9062.71248772049 -0)
(-0 9062.71248051772 -0)
(-0 9062.71245947631 -0)
(-0 9062.71248538278 -0)
(-0 9062.71250738392 -0)
(-0 9062.71249564643 -0)
(-0 9062.71251000629 -0)
(-0 9062.71251722086 -0)
(-0 9062.71250935995 -0)
(-0 9062.71250532786 -0)
(-0 9062.71252356543 -0)
(-0 9062.71254328501 -0)
(-0 9062.71254213502 -0)
(-0 9062.71253368754 -0)
(-0 9062.71252997102 -0)
(-0 9062.71252844394 -0)
(-0 9062.71260660196 -0)
(-0 13594.8395908841 -0)
)
;

boundaryField
{
    dielectric_2
    {
        type            calculated;
        value           nonuniform 0();
    }
    dielectric_1
    {
        type            calculated;
        value           uniform (-0 9062.66320958472 -0);
    }
    otherfaces
    {
        type            empty;
    }
    procBoundary1to0
    {
        type            processor;
        value           uniform (-0 13594.9828502987 -0);
    }
}


// ************************************************************************* //
