/*--------------------------------*- C++ -*----------------------------------*\
| =========                 |                                                 |
| \\      /  F ield         | foam-extend: Open Source CFD                    |
|  \\    /   O peration     | Version:     4.0                                |
|   \\  /    A nd           | Web:         http://www.foam-extend.org         |
|    \\/     M anipulation  |                                                 |
\*---------------------------------------------------------------------------*/
FoamFile
{
    version     2.0;
    format      ascii;
    class       volScalarField;
    location    "9.9e-06";
    object      Arm;
}
// * * * * * * * * * * * * * * * * * * * * * * * * * * * * * * * * * * * * * //

dimensions      [0 0 0 1 0 0 0];

internalField   nonuniform List<scalar> 
300
(
3.57409769056222e+15
3.57597007219565e+15
3.5779169181378e+15
3.57922328505152e+15
3.58003963827737e+15
3.58041827906202e+15
3.58040340141744e+15
3.58002646100503e+15
3.57931312132098e+15
3.57828535980791e+15
3.5769589615732e+15
3.57534801178956e+15
3.57346456490114e+15
3.57131922415412e+15
3.56892144711209e+15
3.56627977162049e+15
3.56339903898875e+15
3.56028782619834e+15
3.55695447066996e+15
3.55340545561132e+15
3.54964698247255e+15
3.54568497288582e+15
3.54152511680051e+15
3.53717282320026e+15
3.53261752426163e+15
3.52787685486667e+15
3.522954548141e+15
3.517852651388e+15
3.51258470806976e+15
3.5071555754424e+15
3.50155160032472e+15
3.49578411269256e+15
3.48987117196918e+15
3.48381819114852e+15
3.47763025650814e+15
3.47131215903097e+15
3.46486409907359e+15
3.45829257880213e+15
3.45160465725393e+15
3.4448038782885e+15
3.43789374984553e+15
3.43087954043551e+15
3.42376513384975e+15
3.41655422158008e+15
3.40925030367557e+15
3.40185663877804e+15
3.39437417826257e+15
3.38680434703691e+15
3.379139419156e+15
3.3713779424873e+15
3.36350740104231e+15
3.35554019668811e+15
3.34747103445379e+15
3.33931755483346e+15
3.33108793378416e+15
3.32279849091544e+15
3.31445255758532e+15
3.30605304998905e+15
3.29760253583219e+15
3.28910144758986e+15
3.28055408598262e+15
3.27196255427569e+15
3.26332348566317e+15
3.25461900474066e+15
3.2458530889133e+15
3.2370512160739e+15
3.22821553496102e+15
3.21934788537431e+15
3.21044985317415e+15
3.20152279313595e+15
3.19256584997015e+15
3.18357190093791e+15
3.1745394170786e+15
3.1654757731517e+15
3.15636751105989e+15
3.14721566752305e+15
3.13802654866468e+15
3.12879610609856e+15
3.11954414318915e+15
3.11024037286625e+15
3.10091915137848e+15
3.09158266908671e+15
3.08222786685204e+15
3.0728569523935e+15
3.06345519969956e+15
3.05403030675945e+15
3.04459394276945e+15
3.03514642610977e+15
3.02567592142515e+15
3.01619010416828e+15
3.00668290030462e+15
2.99710958310702e+15
2.98752506284568e+15
2.97793109998482e+15
2.96832772737332e+15
2.95871497059515e+15
2.94909261135837e+15
2.93946019291333e+15
2.92980682944765e+15
2.92013244922805e+15
2.91044328866908e+15
2.90074056188565e+15
2.89099272439793e+15
2.88122876992298e+15
2.87143956894072e+15
2.86161583380784e+15
2.85177244944517e+15
2.84188995421068e+15
2.83197869044908e+15
2.82204410421151e+15
2.81208434158042e+15
2.80209710428605e+15
2.79207467756073e+15
2.78201483618761e+15
2.77191532342899e+15
2.76175852059618e+15
2.75152564634709e+15
2.74124134201982e+15
2.73090651586919e+15
2.72051306646642e+15
2.71003474035126e+15
2.69948430963288e+15
2.68883297616386e+15
2.67809104447475e+15
2.66726991087549e+15
2.65636734602747e+15
2.64535540584493e+15
2.63425135261856e+15
2.62304444521701e+15
2.61173259032516e+15
2.60030020412726e+15
2.58874338645684e+15
2.5770570926442e+15
2.56521526107538e+15
2.55318158193502e+15
2.54097474563732e+15
2.52859864247785e+15
2.51602831188322e+15
2.50324494672071e+15
2.49025754362019e+15
2.47705017290053e+15
2.46360614487116e+15
2.44989335104125e+15
2.43587971053825e+15
2.4215406971039e+15
2.40689592527779e+15
2.39193060538701e+15
2.37662834395588e+15
2.36095859418558e+15
2.34487265304419e+15
2.32838271902057e+15
2.3114640432393e+15
2.29405458950908e+15
2.27615298675191e+15
2.25774094473919e+15
2.2387688235651e+15
2.21919345791133e+15
2.19901415228603e+15
2.17821174411756e+15
2.15674135602191e+15
2.13456740797737e+15
2.11167470651518e+15
2.08802517249769e+15
2.06363117022979e+15
2.03847966747574e+15
2.01251636951602e+15
1.98576197639876e+15
1.95826096428924e+15
1.93004236781482e+15
1.90114818790819e+15
1.87164688109598e+15
1.84157199542021e+15
1.81101596050549e+15
1.78015015377488e+15
1.74916841285163e+15
1.71824066345599e+15
1.6875461153381e+15
1.6572838140211e+15
1.62769227246233e+15
1.5989272527925e+15
1.57114301880454e+15
1.54448647933598e+15
1.5190392272795e+15
1.49491571434696e+15
1.4721158790106e+15
1.45055003082374e+15
1.43025751198706e+15
1.41118797902795e+15
1.39325574036308e+15
1.37638033704591e+15
1.36046851005747e+15
1.34557283797175e+15
1.33219193847772e+15
1.325425994071e+15
1.35143911254207e+15
1.41748242724239e+15
1.49777613286099e+15
1.5651268710412e+15
1.62915542040631e+15
1.70510882144287e+15
1.79482714602034e+15
1.89146932763046e+15
1.97516405074948e+15
2.00022008909478e+15
1.96766840255349e+15
1.90038228518952e+15
1.82487577700224e+15
1.76002686550664e+15
1.71178392848202e+15
1.67911083048469e+15
1.65790622670061e+15
1.6452072276666e+15
1.63716261677927e+15
1.63350098003584e+15
1.63172440303665e+15
1.63015964243034e+15
1.6295674140811e+15
1.62927773090921e+15
1.62881672983319e+15
1.62792133896067e+15
1.62638997745978e+15
1.62343345081469e+15
1.61920584040036e+15
1.61401118256e+15
1.60791276134819e+15
1.60106411654148e+15
1.59351383389541e+15
1.58529898997317e+15
1.57647841852748e+15
1.56712096668743e+15
1.5572754794041e+15
1.54700758813903e+15
1.53638770012029e+15
1.52546860832887e+15
1.51430490689409e+15
1.50296546593462e+15
1.49148381639698e+15
1.47992466325003e+15
1.46831903015401e+15
1.45671436915005e+15
1.44514414394524e+15
1.43363158722854e+15
1.42221979609338e+15
1.41092069433731e+15
1.39976344314388e+15
1.38878337404663e+15
1.37798379450056e+15
1.36738655049218e+15
1.35700584211758e+15
1.34684323024998e+15
1.33691330320098e+15
1.32720757913813e+15
1.31771071025837e+15
1.30845202026876e+15
1.29943964927211e+15
1.29068028022758e+15
1.28217664610512e+15
1.2739148571493e+15
1.26590280653944e+15
1.25813030791219e+15
1.25059721460164e+15
1.24328108254882e+15
1.23616433411272e+15
1.22923329806566e+15
1.22250604241459e+15
1.21597659825256e+15
1.20963503669632e+15
1.20347583060226e+15
1.19748598949396e+15
1.19166879144922e+15
1.18601369704291e+15
1.18052236742755e+15
1.17517708855381e+15
1.16997999714643e+15
1.16491737612912e+15
1.15998619467109e+15
1.15518332069573e+15
1.15050741006807e+15
1.14595913708486e+15
1.14153096099493e+15
1.13722049756774e+15
1.13298628540932e+15
1.12868472837439e+15
1.12422286935754e+15
1.11979160284443e+15
1.11544422589394e+15
1.11118937304038e+15
1.10703147409991e+15
1.1029621362041e+15
1.09857768281551e+15
1.09379598118904e+15
1.08912087492024e+15
1.08456433929977e+15
1.07938165926858e+15
1.07388610542636e+15
1.06833542232533e+15
1.0617064317252e+15
1.05450690819669e+15
1.04615937091036e+15
1.03593582885269e+15
)
;

boundaryField
{
    electrode
    {
        type            zeroGradient;
    }
    ground
    {
        type            zeroGradient;
    }
    otherfaces
    {
        type            empty;
    }
}


// ************************************************************************* //
