/*--------------------------------*- C++ -*----------------------------------*\
| =========                 |                                                 |
| \\      /  F ield         | foam-extend: Open Source CFD                    |
|  \\    /   O peration     | Version:     4.0                                |
|   \\  /    A nd           | Web:         http://www.foam-extend.org         |
|    \\/     M anipulation  |                                                 |
\*---------------------------------------------------------------------------*/
FoamFile
{
    version     2.0;
    format      ascii;
    class       volVectorField;
    location    "9.9e-06";
    object      E;
}
// * * * * * * * * * * * * * * * * * * * * * * * * * * * * * * * * * * * * * //

dimensions      [0 0 0 1 0 0 0];

internalField   nonuniform List<vector> 
300
(
(5.47306975989815 -0 -0)
(11.3359326175954 -0 -0)
(19.9085159691137 -0 -0)
(27.8778424511742 -0 -0)
(35.8041195067097 -0 -0)
(43.7988994655974 -0 -0)
(51.7869503571805 -0 -0)
(59.7895633128164 -0 -0)
(67.8077165500176 -0 -0)
(75.8416341936637 -0 -0)
(83.8934855459922 -0 -0)
(91.9648039054985 -0 -0)
(100.057202027938 -0 -0)
(108.172330451348 -0 -0)
(116.311834376382 -0 -0)
(124.477373779354 -0 -0)
(132.670620851813 -0 -0)
(140.893260421051 -0 -0)
(149.146991161588 -0 -0)
(157.433526261349 -0 -0)
(165.754594320945 -0 -0)
(174.111940173806 -0 -0)
(182.507325785505 -0 -0)
(190.94253115304 -0 -0)
(199.419355229049 -0 -0)
(207.939616846116 -0 -0)
(216.505155761772 -0 -0)
(225.117833561886 -0 -0)
(233.779534739015 -0 -0)
(242.492167791544 -0 -0)
(251.25766624781 -0 -0)
(260.077989835908 -0 -0)
(268.955125629104 -0 -0)
(277.891089252331 -0 -0)
(286.887926119414 -0 -0)
(295.947712715436 -0 -0)
(305.072557899053 -0 -0)
(314.264604298 -0 -0)
(323.526029728827 -0 -0)
(332.859048628209 -0 -0)
(342.265913627557 -0 -0)
(351.748917060172 -0 -0)
(361.310392658944 -0 -0)
(370.952717222633 -0 -0)
(380.678312381125 -0 -0)
(390.48964640552 -0 -0)
(400.38923615335 -0 -0)
(410.379648975485 -0 -0)
(420.463504850797 -0 -0)
(430.643478460582 -0 -0)
(440.922301432657 -0 -0)
(451.302764650817 -0 -0)
(461.787720683245 -0 -0)
(472.380086268035 -0 -0)
(483.082844984819 -0 -0)
(493.899049933036 -0 -0)
(504.831826596324 -0 -0)
(515.884375872129 -0 -0)
(527.059977095574 -0 -0)
(538.361991353539 -0 -0)
(549.793864851376 -0 -0)
(561.359132482284 -0 -0)
(573.061421495277 -0 -0)
(584.904455440462 -0 -0)
(596.892058188238 -0 -0)
(609.028158209183 -0 -0)
(621.316793043907 -0 -0)
(633.76211396336 -0 -0)
(646.368390865075 -0 -0)
(659.140017433896 -0 -0)
(672.081516551882 -0 -0)
(685.197545956327 -0 -0)
(698.492904154037 -0 -0)
(711.972536730632 -0 -0)
(725.641542924445 -0 -0)
(739.505182510771 -0 -0)
(753.568883097993 -0 -0)
(767.838247796375 -0 -0)
(782.319063288926 -0 -0)
(797.017308343086 -0 -0)
(811.939162757936 -0 -0)
(827.091016862653 -0 -0)
(842.479481419189 -0 -0)
(858.111398280376 -0 -0)
(873.99385143719 -0 -0)
(890.134178824036 -0 -0)
(906.539984746424 -0 -0)
(923.219153088718 -0 -0)
(940.179861222222 -0 -0)
(957.430594830759 -0 -0)
(974.980163504046 -0 -0)
(992.837717418512 -0 -0)
(1011.01276491082 -0 -0)
(1029.51519125187 -0 -0)
(1048.35527848353 -0 -0)
(1067.54372660178 -0 -0)
(1087.09167606092 -0 -0)
(1107.01073174046 -0 -0)
(1127.31298843743 -0 -0)
(1148.01105810397 -0 -0)
(1169.11809890212 -0 -0)
(1190.64784617497 -0 -0)
(1212.61464559192 -0 -0)
(1235.03348856943 -0 -0)
(1257.92005016985 -0 -0)
(1281.29072969897 -0 -0)
(1305.16269426621 -0 -0)
(1329.55392537644 -0 -0)
(1354.48326907413 -0 -0)
(1379.97048985761 -0 -0)
(1406.03632889521 -0 -0)
(1432.70256590128 -0 -0)
(1459.99208474549 -0 -0)
(1487.92894824349 -0 -0)
(1516.53848587828 -0 -0)
(1545.84736696242 -0 -0)
(1575.88363694244 -0 -0)
(1606.67687682539 -0 -0)
(1638.25862409228 -0 -0)
(1670.66215107526 -0 -0)
(1703.92086208967 -0 -0)
(1738.07037858291 -0 -0)
(1773.15751430942 -0 -0)
(1809.23572636903 -0 -0)
(1846.35404319696 -0 -0)
(1884.56007104314 -0 -0)
(1923.90421966548 -0 -0)
(1964.44021729848 -0 -0)
(2006.22529898129 -0 -0)
(2049.32051167556 -0 -0)
(2093.79103861498 -0 -0)
(2139.70655625358 -0 -0)
(2187.14162919407 -0 -0)
(2236.17614751408 -0 -0)
(2286.89581195815 -0 -0)
(2339.39267322865 -0 -0)
(2393.76573226653 -0 -0)
(2450.12160998175 -0 -0)
(2508.57529576515 -0 -0)
(2569.25098565345 -0 -0)
(2632.28302309787 -0 -0)
(2697.81695684842 -0 -0)
(2766.01073338572 -0 -0)
(2837.03604398198 -0 -0)
(2911.07984995181 -0 -0)
(2988.34611423766 -0 -0)
(3069.05777084258 -0 -0)
(3153.45897397319 -0 -0)
(3241.81766527344 -0 -0)
(3334.4285300305 -0 -0)
(3431.61637236282 -0 -0)
(3533.74005961841 -0 -0)
(3641.19698150928 -0 -0)
(3754.42842734979 -0 -0)
(3873.92545822327 -0 -0)
(4000.23646716831 -0 -0)
(4133.9747917122 -0 -0)
(4275.82976333857 -0 -0)
(4426.57631053906 -0 -0)
(4587.09157572285 -0 -0)
(4758.3673876088 -0 -0)
(4941.53383708057 -0 -0)
(5137.8823699674 -0 -0)
(5348.89248800267 -0 -0)
(5576.30160434647 -0 -0)
(5822.25569643512 -0 -0)
(6091.16715168267 -0 -0)
(6389.11949882519 -0 -0)
(6719.79364545229 -0 -0)
(7085.84376737655 -0 -0)
(7491.841361027 -0 -0)
(7944.81449781459 -0 -0)
(8453.86659348825 -0 -0)
(9029.41873168148 -0 -0)
(9682.81911043013 -0 -0)
(10422.8705991297 -0 -0)
(11255.0311286261 -0 -0)
(12195.152895869 -0 -0)
(13263.2295360178 -0 -0)
(14460.8073617365 -0 -0)
(15798.8410658675 -0 -0)
(17300.7688860217 -0 -0)
(18964.6754169382 -0 -0)
(20795.3071219715 -0 -0)
(22807.294209255 -0 -0)
(24990.4624176967 -0 -0)
(27340.2091194347 -0 -0)
(29856.7335302778 -0 -0)
(32516.6909041921 -0 -0)
(35304.2467712187 -0 -0)
(38211.5955274115 -0 -0)
(41206.3508717666 -0 -0)
(44261.5132659477 -0 -0)
(47368.3546787532 -0 -0)
(50508.2855672365 -0 -0)
(53654.2154732874 -0 -0)
(56790.8855559649 -0 -0)
(59916.3501098557 -0 -0)
(63029.2889044354 -0 -0)
(66128.5194533686 -0 -0)
(69209.0452432323 -0 -0)
(72272.9204430758 -0 -0)
(75345.1384320106 -0 -0)
(78440.2540006796 -0 -0)
(81552.6217200892 -0 -0)
(84670.8675075756 -0 -0)
(87779.9459300374 -0 -0)
(90868.1319114514 -0 -0)
(93928.4395681263 -0 -0)
(96958.9051703058 -0 -0)
(99959.9613225786 -0 -0)
(102933.386310584 -0 -0)
(105881.632899391 -0 -0)
(108803.985149655 -0 -0)
(111695.613615669 -0 -0)
(114555.23586027 -0 -0)
(117385.641141825 -0 -0)
(120189.441227547 -0 -0)
(122969.08067326 -0 -0)
(125726.821125744 -0 -0)
(128464.786202182 -0 -0)
(131184.932019577 -0 -0)
(133889.081086877 -0 -0)
(136578.914513157 -0 -0)
(139256.017057279 -0 -0)
(141917.815137488 -0 -0)
(144560.816562183 -0 -0)
(147185.370715664 -0 -0)
(149792.721232605 -0 -0)
(152383.997227266 -0 -0)
(154960.262969193 -0 -0)
(157522.486191294 -0 -0)
(160071.586094237 -0 -0)
(162608.399060586 -0 -0)
(165133.726755439 -0 -0)
(167648.300113416 -0 -0)
(170152.825804251 -0 -0)
(172647.949059085 -0 -0)
(175134.30053973 -0 -0)
(177612.456517883 -0 -0)
(180082.98575737 -0 -0)
(182545.30711472 -0 -0)
(184996.668055432 -0 -0)
(187435.415139145 -0 -0)
(189862.043946951 -0 -0)
(192277.00210812 -0 -0)
(194680.73645072 -0 -0)
(197073.650029935 -0 -0)
(199456.149507059 -0 -0)
(201828.601504852 -0 -0)
(204191.37955845 -0 -0)
(206544.819520532 -0 -0)
(208889.266729715 -0 -0)
(211225.03069769 -0 -0)
(213552.433561477 -0 -0)
(215871.763431077 -0 -0)
(218183.322935078 -0 -0)
(220487.38209401 -0 -0)
(222784.227653973 -0 -0)
(225074.114103286 -0 -0)
(227357.314044862 -0 -0)
(229634.069124358 -0 -0)
(231904.639964864 -0 -0)
(234169.256782002 -0 -0)
(236427.994239625 -0 -0)
(238678.882247541 -0 -0)
(240920.375242768 -0 -0)
(243152.63875962 -0 -0)
(245375.918798027 -0 -0)
(247590.427275209 -0 -0)
(249796.397447677 -0 -0)
(251994.028748678 -0 -0)
(254183.542726385 -0 -0)
(256365.127383904 -0 -0)
(258538.99343312 -0 -0)
(260705.318129254 -0 -0)
(262864.302061504 -0 -0)
(265016.112529678 -0 -0)
(267160.940754509 -0 -0)
(269298.944963886 -0 -0)
(271430.307875296 -0 -0)
(273555.179473023 -0 -0)
(275673.73501322 -0 -0)
(277786.117059121 -0 -0)
(279892.492339948 -0 -0)
(281992.993607666 -0 -0)
(284087.779523806 -0 -0)
(286176.976557463 -0 -0)
(288260.737356186 -0 -0)
(290339.182286577 -0 -0)
(292412.458943143 -0 -0)
(294480.676099909 -0 -0)
(296543.969630851 -0 -0)
(298602.443536044 -0 -0)
(300656.225867429 -0 -0)
(302705.405309123 -0 -0)
(304750.099914532 -0 -0)
(306790.248970994 -0 -0)
(308825.091339599 -0 -0)
(310852.020710309 -0 -0)
)
;

boundaryField
{
    electrode
    {
        type            calculated;
        value           uniform (4.1358884982401 -0 -0);
    }
    ground
    {
        type            calculated;
        value           uniform (311862.644968159 -0 -0);
    }
    otherfaces
    {
        type            empty;
    }
}


// ************************************************************************* //
