/*--------------------------------*- C++ -*----------------------------------*\
| =========                 |                                                 |
| \\      /  F ield         | foam-extend: Open Source CFD                    |
|  \\    /   O peration     | Version:     4.0                                |
|   \\  /    A nd           | Web:         http://www.foam-extend.org         |
|    \\/     M anipulation  |                                                 |
\*---------------------------------------------------------------------------*/
FoamFile
{
    version     2.0;
    format      ascii;
    class       volScalarField;
    location    "9.9e-06";
    object      electron;
}
// * * * * * * * * * * * * * * * * * * * * * * * * * * * * * * * * * * * * * //

dimensions      [0 0 0 1 0 0 0];

internalField   nonuniform List<scalar> 
300
(
6.91606005110489e+16
6.91586144939538e+16
6.91536071963612e+16
6.91451863634056e+16
6.91334155249348e+16
6.91182698033687e+16
6.90997431894051e+16
6.90778352647435e+16
6.90525429629975e+16
6.9023863745858e+16
6.89917949310226e+16
6.89563336277875e+16
6.8917476806923e+16
6.88752212795548e+16
6.88295636995037e+16
6.87805005652312e+16
6.87280282201912e+16
6.86721428539229e+16
6.86128405031281e+16
6.85501170528175e+16
6.8483968237553e+16
6.8414389642766e+16
6.83413767061596e+16
6.82649247191877e+16
6.81850288286145e+16
6.81016840381565e+16
6.80148852101953e+16
6.79246270675721e+16
6.78309041954674e+16
6.77337110433428e+16
6.76330419269621e+16
6.75288910304913e+16
6.74212524086676e+16
6.73101199890418e+16
6.71954875742919e+16
6.70773488446064e+16
6.69556973601396e+16
6.68305265635348e+16
6.67018297825089e+16
6.65696002325089e+16
6.64338310194292e+16
6.62945151423947e+16
6.61516454966069e+16
6.60052148762439e+16
6.58552159774249e+16
6.57016414012334e+16
6.55444836567917e+16
6.53837351643945e+16
6.52193882586909e+16
6.50514351919165e+16
6.48798681371797e+16
6.47046791917942e+16
6.45258603806539e+16
6.43434036596537e+16
6.41573009191481e+16
6.39675439874489e+16
6.37741246343681e+16
6.35770345747835e+16
6.33762654722433e+16
6.31718089426023e+16
6.29636565576803e+16
6.27517998489454e+16
6.25362303112243e+16
6.23169394064278e+16
6.2093918567291e+16
6.18671592011305e+16
6.16366526936072e+16
6.14023904124968e+16
6.11643637114674e+16
6.09225639338552e+16
6.06769824164317e+16
6.04276104931638e+16
6.01744394989689e+16
5.99174607734511e+16
5.9656665664612e+16
5.93920455325403e+16
5.91235917530748e+16
5.88512957214308e+16
5.85751488557851e+16
5.82951426008157e+16
5.80112684311947e+16
5.77235178550194e+16
5.74318824171889e+16
5.71363537027049e+16
5.68369233398928e+16
5.65335830035468e+16
5.62263244179827e+16
5.59151393599888e+16
5.56000196616694e+16
5.52809572131709e+16
5.49579439652829e+16
5.46309719319016e+16
5.43000331923456e+16
5.39651198935103e+16
5.36262242518522e+16
5.32833385551916e+16
5.29364551643109e+16
5.25855665143394e+16
5.22306651159107e+16
5.18717435560752e+16
5.15087944989408e+16
5.11418106860318e+16
5.0770784936341e+16
5.03957101460498e+16
5.00165792878968e+16
4.96333854101649e+16
4.92461216352543e+16
4.88547811578201e+16
4.84593572424427e+16
4.80598432207783e+16
4.76562324881286e+16
4.72485184994401e+16
4.68366947648633e+16
4.642075484454e+16
4.60006923415444e+16
4.55765008942679e+16
4.51481741740473e+16
4.47157058810118e+16
4.42790897045959e+16
4.38383192846169e+16
4.3393388347958e+16
4.29442907885444e+16
4.24910196213041e+16
4.20335655765532e+16
4.15719174603672e+16
4.11060633971585e+16
4.06359913391214e+16
4.01616891254385e+16
3.96831444760538e+16
3.92003449653304e+16
3.87132779879087e+16
3.82219307203353e+16
3.77262900789382e+16
3.72263426738065e+16
3.672207475855e+16
3.62134721754337e+16
3.57005202954531e+16
3.51832039528666e+16
3.46615073736402e+16
3.4135414097232e+16
3.3604906891074e+16
3.3069967657056e+16
3.25305773292645e+16
3.19867157621623e+16
3.14383616083492e+16
3.08854921849577e+16
3.03280833277914e+16
2.97661092320638e+16
2.919954227906e+16
2.86283528471379e+16
2.80525091074594e+16
2.74719768013146e+16
2.68867190032907e+16
2.62966958618242e+16
2.57018643328533e+16
2.51021778830879e+16
2.44975862067042e+16
2.38880348979848e+16
2.32734651763615e+16
2.26538135582384e+16
2.20290115836149e+16
2.1398985548754e+16
2.07636557558669e+16
2.01229355689139e+16
1.94767245494261e+16
1.88248938229504e+16
1.81671949165738e+16
1.75031417437287e+16
1.68321249756533e+16
1.61536282492721e+16
1.54672474369665e+16
1.47725919433907e+16
1.40692188161193e+16
1.33566555930217e+16
1.26345040149812e+16
1.1902668110246e+16
1.11616808599885e+16
1.04126484429287e+16
9.65704466453307e+15
8.89725679926027e+15
8.13686488899192e+15
7.3801874153306e+15
6.63255595135398e+15
5.90046491481129e+15
5.19099112532982e+15
4.51159024499762e+15
3.86984175147554e+15
3.2728276750844e+15
2.72671064421118e+15
2.23624814945808e+15
1.80426016532164e+15
1.43151722037838e+15
1.11677433728329e+15
856845133129620
647005644397610
481294573778999
353189219753845
256250397748445
184227037452365
131368472482092
91406338074966.8
61986351234389.1
41308874969904.3
26529180899244.9
16266220086777.2
9683391371914.57
5814397676579.29
3683263219469.21
2536223528595.06
1911788379861.44
1562380415140.07
1361506151284.52
1244101161262.68
1175503519382.46
1136398735299.92
1115458872166.49
1105632643622.13
1102349224927.58
1102491487329.62
1104437096399.63
1106867565090.01
1108845993619.16
1109765132854.54
1109359952024.16
1107346050730.77
1103593899260.18
1098056899791.45
1090749402800.77
1081727454224.22
1071077077970.73
1058905356271.63
1045333648837.03
1030492262572.25
1014516246298.17
997542042429.744
979704865455.814
961136325817.879
941962976470.571
922299185884.284
902245397215.314
881903244424.022
861375643070.764
840758240990.024
820139523939.417
799599554689.311
779209720323.575
759032992665.939
739124310588.763
719531035700.768
700293446474.771
681445259626.792
663014208799.72
645022747298.742
627488459299.574
610424249000.278
593840731454.006
577741993291.493
562125271808.472
546990127276.183
532335178176.797
518154740101.647
504441458898.951
491186431537.485
478379702536.439
466010797706.159
454068901117.859
442543058977.831
431422044166.307
420694279379.96
410347987654.798
400370797994.654
390750115201.726
381462990963.016
372484785636.579
363802590415.948
355407364998.631
347291318203.579
339447371231.164
331869062456.888
324550595261.637
317486890935.553
310673688147.969
304106949951.545
297782543926.776
291681258704.785
285770791866.411
280041958333.049
274509136105.455
269189333077.142
264100832740.805
259212731326.625
254504867852.75
250028908713.197
245815894787.615
241885922178.52
238329998611.85
235282483083.698
233018607826.771
232047541638.745
233206788551.438
)
;

boundaryField
{
    electrode
    {
        type            driftDiffusionElectronDensity;
        seec            0.05;
        Edepend         1;
        field_emission  0;
        field_enhancement_factor 55;
        work_function   5;
        value           uniform 6.91606005110489e+16;
    }
    ground
    {
        type            driftDiffusionElectronDensity;
        seec            0.05;
        Edepend         1;
        field_emission  0;
        field_enhancement_factor 55;
        work_function   5;
        value           uniform 235458704042.83;
    }
    otherfaces
    {
        type            empty;
    }
}


// ************************************************************************* //
