/*--------------------------------*- C++ -*----------------------------------*\
| =========                 |                                                 |
| \\      /  F ield         | foam-extend: Open Source CFD                    |
|  \\    /   O peration     | Version:     4.0                                |
|   \\  /    A nd           | Web:         http://www.foam-extend.org         |
|    \\/     M anipulation  |                                                 |
\*---------------------------------------------------------------------------*/
FoamFile
{
    version     2.0;
    format      ascii;
    class       volVectorField;
    location    "9.9e-06";
    object      J_electron;
}
// * * * * * * * * * * * * * * * * * * * * * * * * * * * * * * * * * * * * * //

dimensions      [1 -1 -1 0 0 0 0];

internalField   nonuniform List<vector> 
300
(
(-1.34511211047862e+19 0 0)
(-1.38079772267847e+19 0 0)
(-1.63300724949267e+19 0 0)
(-1.58163432184812e+19 0 0)
(-1.58076977238481e+19 0 0)
(-1.57928002623045e+19 0 0)
(-1.57223905959285e+19 0 0)
(-1.56691307372545e+19 0 0)
(-1.56134442117171e+19 0 0)
(-1.55570053432716e+19 0 0)
(-1.5500959120386e+19 0 0)
(-1.54447794516183e+19 0 0)
(-1.53885633742242e+19 0 0)
(-1.53323171146042e+19 0 0)
(-1.52760268427242e+19 0 0)
(-1.52196932645065e+19 0 0)
(-1.51633134269932e+19 0 0)
(-1.5106884551706e+19 0 0)
(-1.50504041634167e+19 0 0)
(-1.49938696236901e+19 0 0)
(-1.49372784309682e+19 0 0)
(-1.48806280389068e+19 0 0)
(-1.48239159623787e+19 0 0)
(-1.47671397396125e+19 0 0)
(-1.4710296954815e+19 0 0)
(-1.46533851419624e+19 0 0)
(-1.45964020196888e+19 0 0)
(-1.45393451987337e+19 0 0)
(-1.44822123480204e+19 0 0)
(-1.44250012613729e+19 0 0)
(-1.43677096577099e+19 0 0)
(-1.43103353639443e+19 0 0)
(-1.42528762065663e+19 0 0)
(-1.41953300547406e+19 0 0)
(-1.41376948276614e+19 0 0)
(-1.40799685099638e+19 0 0)
(-1.40221490693291e+19 0 0)
(-1.39642345351448e+19 0 0)
(-1.3906223030601e+19 0 0)
(-1.38481126286056e+19 0 0)
(-1.37899015603298e+19 0 0)
(-1.37315879877413e+19 0 0)
(-1.36731701875046e+19 0 0)
(-1.36146464578203e+19 0 0)
(-1.35560151711141e+19 0 0)
(-1.34972746778167e+19 0 0)
(-1.34384234839569e+19 0 0)
(-1.33794600033135e+19 0 0)
(-1.33203828326494e+19 0 0)
(-1.32611905435405e+19 0 0)
(-1.32018817779106e+19 0 0)
(-1.31424552049999e+19 0 0)
(-1.30829095781026e+19 0 0)
(-1.30232436396463e+19 0 0)
(-1.29634562705572e+19 0 0)
(-1.29035463330323e+19 0 0)
(-1.2843512713384e+19 0 0)
(-1.27833544632752e+19 0 0)
(-1.27230705513076e+19 0 0)
(-1.26626600809466e+19 0 0)
(-1.26021221535179e+19 0 0)
(-1.25414559741027e+19 0 0)
(-1.2480660705269e+19 0 0)
(-1.24197356547665e+19 0 0)
(-1.23586801096382e+19 0 0)
(-1.22974934107106e+19 0 0)
(-1.22361749597226e+19 0 0)
(-1.21747241999634e+19 0 0)
(-1.21131405951542e+19 0 0)
(-1.20514236418349e+19 0 0)
(-1.19895729052451e+19 0 0)
(-1.19275880042351e+19 0 0)
(-1.18654685049866e+19 0 0)
(-1.1803214067839e+19 0 0)
(-1.17408244023757e+19 0 0)
(-1.16782991908625e+19 0 0)
(-1.16156381602738e+19 0 0)
(-1.15528410653089e+19 0 0)
(-1.14899076583554e+19 0 0)
(-1.14268377430496e+19 0 0)
(-1.13636310775523e+19 0 0)
(-1.13002875093522e+19 0 0)
(-1.1236806748304e+19 0 0)
(-1.11731886559996e+19 0 0)
(-1.11094329770666e+19 0 0)
(-1.10455394966716e+19 0 0)
(-1.09815079374045e+19 0 0)
(-1.09173380401275e+19 0 0)
(-1.0853029438822e+19 0 0)
(-1.07885818332174e+19 0 0)
(-1.07239947478767e+19 0 0)
(-1.06592677391803e+19 0 0)
(-1.05944002194891e+19 0 0)
(-1.05293915981616e+19 0 0)
(-1.04642411224435e+19 0 0)
(-1.03989479546212e+19 0 0)
(-1.03335111367611e+19 0 0)
(-1.02679296016662e+19 0 0)
(-1.02022020894341e+19 0 0)
(-1.01363271772406e+19 0 0)
(-1.00703032883062e+19 0 0)
(-1.00041285986948e+19 0 0)
(-9.93780106814502e+18 0 0)
(-9.8713184072625e+18 0 0)
(-9.80467804102826e+18 0 0)
(-9.73787704489987e+18 0 0)
(-9.67091224451272e+18 0 0)
(-9.60378001186986e+18 0 0)
(-9.5364763023725e+18 0 0)
(-9.4689965039173e+18 0 0)
(-9.40133586927931e+18 0 0)
(-9.33348955518927e+18 0 0)
(-9.26545036711402e+18 0 0)
(-9.19720746123316e+18 0 0)
(-9.12875840884074e+18 0 0)
(-9.06011810315213e+18 0 0)
(-8.99125072578059e+18 0 0)
(-8.92201374732517e+18 0 0)
(-8.85253314577642e+18 0 0)
(-8.78347787941813e+18 0 0)
(-8.7139111916971e+18 0 0)
(-8.63953009437416e+18 0 0)
(-8.56284663492379e+18 0 0)
(-8.48938822115682e+18 0 0)
(-8.41763731289565e+18 0 0)
(-8.34573341403749e+18 0 0)
(-8.2734239024226e+18 0 0)
(-8.20061999502406e+18 0 0)
(-8.1272728317796e+18 0 0)
(-8.05334505195307e+18 0 0)
(-7.97879850956908e+18 0 0)
(-7.9035916595411e+18 0 0)
(-7.82767860320777e+18 0 0)
(-7.75100841017475e+18 0 0)
(-7.67352449405446e+18 0 0)
(-7.59516407387285e+18 0 0)
(-7.51585730599217e+18 0 0)
(-7.43552652684978e+18 0 0)
(-7.35408534799044e+18 0 0)
(-7.27143748633677e+18 0 0)
(-7.18747569303952e+18 0 0)
(-7.10208028912858e+18 0 0)
(-7.01511764264511e+18 0 0)
(-6.92643845679507e+18 0 0)
(-6.83587551481666e+18 0 0)
(-6.74324207524276e+18 0 0)
(-6.64832758040337e+18 0 0)
(-6.55089844940387e+18 0 0)
(-6.45068669964308e+18 0 0)
(-6.34740257090804e+18 0 0)
(-6.24069705955751e+18 0 0)
(-6.13022194525641e+18 0 0)
(-6.01550037857285e+18 0 0)
(-5.89614938472002e+18 0 0)
(-5.7714653606833e+18 0 0)
(-5.64111585078936e+18 0 0)
(-5.50397596178003e+18 0 0)
(-5.35993655496173e+18 0 0)
(-5.20718255427944e+18 0 0)
(-5.04577265808546e+18 0 0)
(-4.87338604810155e+18 0 0)
(-4.68736274451766e+18 0 0)
(-4.48613581749066e+18 0 0)
(-4.24008954981279e+18 0 0)
(-3.93655057400306e+18 0 0)
(-3.22777959799089e+18 0 0)
(-2.30240482214124e+18 0 0)
(-2.00900670066577e+18 0 0)
(-1.99637698979824e+18 0 0)
(-1.72172768168536e+18 0 0)
(-1.15378991860915e+18 0 0)
(-4.30365358150386e+17 0 0)
(2.22494041947767e+17 0 0)
(6.91123168268517e+17 0 0)
(5.43564882022236e+17 0 0)
(-2.6833409701367e+17 0 0)
(-8.18546742185165e+15 0 0)
(4.22724663500603e+17 0 0)
(-1.43798266053526e+18 0 0)
(-2.25355593996042e+18 0 0)
(-1.93227475018003e+18 0 0)
(-3.74634464443315e+18 0 0)
(-4.38718064816344e+18 0 0)
(-3.86206881788251e+18 0 0)
(-3.86521346322465e+18 0 0)
(-2.88532599186181e+18 0 0)
(-9.24765151328993e+17 0 0)
(1.06004011097784e+18 0 0)
(4.03240405905965e+18 0 0)
(7.3934393963677e+18 0 0)
(1.00526058094356e+19 0 0)
(1.24000384378622e+19 0 0)
(1.4156385263529e+19 0 0)
(1.45217060944751e+19 0 0)
(1.48183998125077e+19 0 0)
(1.29876060390105e+19 0 0)
(1.07466528709863e+19 0 0)
(8.937690196594e+18 0 0)
(6.51432565327698e+18 0 0)
(9.39412156638524e+18 0 0)
(-4.52126036357205e+18 0 0)
(2.29821388688818e+18 0 0)
(-1.93825940025016e+17 0 0)
(-2.089346886942e+18 0 0)
(-2.01479505746513e+18 0 0)
(-1.97601460322211e+18 0 0)
(-2.11895245529329e+18 0 0)
(-2.42317350617195e+18 0 0)
(-2.70041731206455e+18 0 0)
(-2.87483911263516e+18 0 0)
(-2.95569867930581e+18 0 0)
(-2.98223073359402e+18 0 0)
(-2.97427832836105e+18 0 0)
(-2.95265325463624e+18 0 0)
(-2.91877572906418e+18 0 0)
(-2.88549194745301e+18 0 0)
(-2.84566192677304e+18 0 0)
(-2.80147049629767e+18 0 0)
(-2.7554723649013e+18 0 0)
(-2.70956694162727e+18 0 0)
(-2.66416647690644e+18 0 0)
(-2.61719409099227e+18 0 0)
(-2.57028981350342e+18 0 0)
(-2.5235608710538e+18 0 0)
(-2.47622067933333e+18 0 0)
(-2.42887225830187e+18 0 0)
(-2.38155527774833e+18 0 0)
(-2.33440959116466e+18 0 0)
(-2.28752768598832e+18 0 0)
(-2.24099776005576e+18 0 0)
(-2.19489899689924e+18 0 0)
(-2.14930353131872e+18 0 0)
(-2.10427676311936e+18 0 0)
(-2.05987670606623e+18 0 0)
(-2.01615561067148e+18 0 0)
(-1.97315427461661e+18 0 0)
(-1.93092049789581e+18 0 0)
(-1.88940952063966e+18 0 0)
(-1.84877817604741e+18 0 0)
(-1.80910997109989e+18 0 0)
(-1.77019571334748e+18 0 0)
(-1.73216848085061e+18 0 0)
(-1.69501332555091e+18 0 0)
(-1.65873961324962e+18 0 0)
(-1.62335214707714e+18 0 0)
(-1.58884787993771e+18 0 0)
(-1.5552208418948e+18 0 0)
(-1.52246189411324e+18 0 0)
(-1.49055980043617e+18 0 0)
(-1.45950110312869e+18 0 0)
(-1.42927134057517e+18 0 0)
(-1.39985488187029e+18 0 0)
(-1.37123728798946e+18 0 0)
(-1.34339605223658e+18 0 0)
(-1.31633984020382e+18 0 0)
(-1.28994121158489e+18 0 0)
(-1.26432777166659e+18 0 0)
(-1.23944680957683e+18 0 0)
(-1.21516237993243e+18 0 0)
(-1.19156300548683e+18 0 0)
(-1.16859154771697e+18 0 0)
(-1.14623341420844e+18 0 0)
(-1.1244669544231e+18 0 0)
(-1.10327422821421e+18 0 0)
(-1.08264037057458e+18 0 0)
(-1.06254430620637e+18 0 0)
(-1.04296715212749e+18 0 0)
(-1.02389340610764e+18 0 0)
(-1.0053071607121e+18 0 0)
(-9.87184962925125e+17 0 0)
(-9.6952671382173e+17 0 0)
(-9.52182638494397e+17 0 0)
(-9.35481653028205e+17 0 0)
(-9.19127163702274e+17 0 0)
(-9.03146270256325e+17 0 0)
(-8.87546475584481e+17 0 0)
(-8.72319652415613e+17 0 0)
(-8.5745542983047e+17 0 0)
(-8.42942921369948e+17 0 0)
(-8.28770795861346e+17 0 0)
(-8.14929065918494e+17 0 0)
(-8.01399447161667e+17 0 0)
(-7.88182099529697e+17 0 0)
(-7.75116028088653e+17 0 0)
(-7.62532990413165e+17 0 0)
(-7.50426360222394e+17 0 0)
(-7.38442623333992e+17 0 0)
(-7.2672713550414e+17 0 0)
(-7.15302982410716e+17 0 0)
(-7.03734831859834e+17 0 0)
(-6.93345265344108e+17 0 0)
(-6.82861454523761e+17 0 0)
(-6.72352061552437e+17 0 0)
(-6.62534358007921e+17 0 0)
(-6.53182313857691e+17 0 0)
(-6.43834611172841e+17 0 0)
(-6.3563113588095e+17 0 0)
(-6.2830524780147e+17 0 0)
(-6.21881999007329e+17 0 0)
(-6.10822839410511e+17 0 0)
)
;

boundaryField
{
    electrode
    {
        type            calculated;
        value           uniform (-1.60920521603661e+19 0 0);
    }
    ground
    {
        type            calculated;
        value           uniform (-6.08157647891315e+17 0 0);
    }
    otherfaces
    {
        type            empty;
    }
}


// ************************************************************************* //
