/*--------------------------------*- C++ -*----------------------------------*\
| =========                 |                                                 |
| \\      /  F ield         | foam-extend: Open Source CFD                    |
|  \\    /   O peration     | Version:     4.0                                |
|   \\  /    A nd           | Web:         http://www.foam-extend.org         |
|    \\/     M anipulation  |                                                 |
\*---------------------------------------------------------------------------*/
FoamFile
{
    version     2.0;
    format      ascii;
    class       volScalarField;
    location    "9.9e-06";
    object      Phi;
}
// * * * * * * * * * * * * * * * * * * * * * * * * * * * * * * * * * * * * * //

dimensions      [0 0 0 1 0 0 0];

internalField   nonuniform List<scalar> 
300
(
699.999931068525
699.999704060158
699.999175339684
699.99837682576
699.997316816854
699.995989884459
699.994396890223
699.992537421102
699.990410919335
699.988016906665
699.985354810389
699.982424007629
699.979223823462
699.975753527494
699.972012334766
699.967999405202
699.96371384318
699.959154697145
699.954320959152
699.949211564401
699.943825390735
699.938161258113
699.932217928056
699.92599410306
699.919488425979
699.912699479379
699.905625784856
699.898265802328
699.890617929286
699.882680500012
699.874451784766
699.865929988929
699.857113252111
699.84799964722
699.838587179494
699.828873785479
699.818857331979
699.808535614952
699.797906358359
699.78696721297
699.775715755117
699.764149485395
699.752265827313
699.740062125885
699.727535646165
699.714683571726
699.701503003071
699.687990955983
699.674144359806
699.659960055659
699.645434794575
699.630565235564
699.615347943599
699.599779387519
699.583855937847
699.56757386452
699.550929334519
699.533918409413
699.516537042794
699.498781077607
699.48064624337
699.462128153283
699.443222301205
699.423924058516
699.404228670842
699.384131254638
699.363626793628
699.342710135101
699.321375986031
699.299618909043
699.277433318202
699.254813474607
699.231753481805
699.208247280996
699.184288646023
699.159871178135
699.134988300522
699.109633252595
699.083799084002
699.057478648375
699.03066459678
699.003349370858
698.975525195656
698.947184072097
698.918317769104
698.888917815334
698.858975490515
698.828481816351
698.797427546976
698.765803158936
698.733598840654
698.700804481369
698.667409659493
698.633403630375
698.59877531341
698.563513278476
698.527605731636
698.491040500072
698.453805016187
698.415886300843
698.377270945647
698.337945094249
698.297894422568
698.257104117876
698.215558856664
698.173242781199
698.130139474684
698.086231934914
698.041502546325
697.995933050309
697.949504513668
697.90219729505
697.853991009275
697.8048644894
697.754795746058
697.703761923675
697.651739254928
697.598703014545
697.544627463139
697.489485772939
697.433249986401
697.375891048799
697.317378627829
697.257680547845
697.196762912738
697.134590278299
697.071125574668
697.006329996988
696.940162893515
696.872581643722
696.80354152607
696.732995574481
696.66089442232
696.587186132535
696.511816012486
696.434726411738
696.355856500937
696.275142029587
696.192515060271
696.107903676536
696.021231661228
695.932418141663
695.841377197438
695.748017426104
695.652241461172
695.553945436107
695.45301838689
695.349341584718
695.242787788625
695.133220407033
695.020492553289
694.904445982209
694.784909882648
694.661699516775
694.534614654158
694.40343781956
694.267932223013
694.127839500113
693.982876905457
693.832734412744
693.677070800409
693.515509920237
693.34763521127
693.172984428905
692.991042378737
692.801230988616
692.602891998974
692.395153178503
692.176950699053
691.947166935473
691.704561114561
691.447710844738
691.174906814706
690.884119738506
690.572945565928
690.238598464477
689.878087525985
689.488263055902
689.065077332927
688.604047753501
688.101023508812
687.550791682443
686.94763891641
686.28647998798
685.561285108279
684.765993707363
683.895254280433
682.943313099401
681.904805378414
680.775533705788
679.551188927
678.228094003961
676.804098868882
675.277326452897
673.646208556965
671.910107415082
670.069260858746
668.124048378017
666.074837518089
663.922095784388
661.666269554531
659.308159434839
656.848074858326
654.285150206039
651.618724591614
648.848308758032
645.974000091109
642.996312362697
639.916124630346
636.734416391488
633.452197618991
630.070418969982
626.589971864953
623.011643443357
619.336372854976
615.565269202312
611.699357130959
607.739559792857
603.686727715788
599.541621081307
595.304939640739
590.977302001161
586.559277506101
582.051363262035
577.454016538557
572.76762879155
567.992828862725
563.130241020738
558.180470815014
553.144059605231
548.021537666529
542.813375407285
537.52003858711
532.141936334335
526.679478649738
521.133021217305
515.502925308843
509.789499497022
503.993062038238
498.113879461039
492.152231603712
486.108347077215
479.982544462731
473.77523587352
467.486850120121
461.117766277056
454.668383312914
448.139050513674
441.530139977584
434.841973879871
428.074899877261
421.22921524264
414.305245242559
407.303264127327
400.223576529379
393.066435223227
385.832125633975
378.520880360888
371.132966827707
363.66859851729
356.128025887488
348.511444247635
340.819087945864
333.051134916643
325.207804160397
317.289268634002
309.295878677227
301.227910284484
293.08570275992
284.869515697949
276.579674274906
268.21642253477
259.780072358326
251.270853019676
242.689063866065
234.034920124136
225.308709324116
216.510633320036
207.640968488805
198.699903936402
189.687705491212
180.604550078048
171.450693526344
162.226301077167
152.931619055736
143.566801587838
134.132086148558
124.627616286251
115.053621044728
105.410233795837
95.6976755589537
85.9160698662963
76.0656304856281
66.1464718909051
56.1588009165594
46.1027234997449
35.9784405626178
25.7860501721087
15.5257572978829
5.19771074946766
)
;

boundaryField
{
    electrode
    {
        type            fixedValue;
        value           uniform 700;
    }
    ground
    {
        type            fixedValue;
        value           uniform 0;
    }
    otherfaces
    {
        type            empty;
    }
}


// ************************************************************************* //
