/*--------------------------------*- C++ -*----------------------------------*\
| =========                 |                                                 |
| \\      /  F ield         | foam-extend: Open Source CFD                    |
|  \\    /   O peration     | Version:     4.0                                |
|   \\  /    A nd           | Web:         http://www.foam-extend.org         |
|    \\/     M anipulation  |                                                 |
\*---------------------------------------------------------------------------*/
FoamFile
{
    version     2.0;
    format      ascii;
    class       volScalarField;
    location    "9.9e-06";
    object      PhiMean;
}
// * * * * * * * * * * * * * * * * * * * * * * * * * * * * * * * * * * * * * //

dimensions      [0 0 0 1 0 0 0];

internalField   nonuniform List<scalar> 
300
(
699.992531544503
699.991696186069
699.990581157972
699.989213286727
699.987601539828
699.985739703046
699.983627779475
699.981264923631
699.978650244812
699.975783049788
699.972662669944
699.969288496642
699.965659961473
699.961776529007
699.957637691226
699.95324296077
699.948591866004
699.943683947241
699.938518752273
699.933095832208
699.927414738283
699.921475018643
699.915276215303
699.908817861042
699.902099475995
699.895120570376
699.887880637964
699.880379153014
699.872615569235
699.864589314468
699.856299786682
699.847746360055
699.838928379891
699.829845153398
699.820495946943
699.810879983098
699.800996437313
699.790844435734
699.780423051774
699.769731302088
699.758768144199
699.747532474336
699.736023122549
699.724238849807
699.712178344859
699.699840221287
699.687223014276
699.67432517818
699.661145083709
699.647681017379
699.63393117984
699.619893690385
699.605566580135
699.590947791351
699.576035166266
699.560826441853
699.545319241506
699.529511070412
699.513399311514
699.496981220648
699.480253922335
699.463214405357
699.445859517577
699.428185960737
699.410190297225
699.391868944422
699.373218157833
699.354234026365
699.334912467101
699.31524921972
699.295239840597
699.27487969629
699.254163964166
699.233087628362
699.211645464929
699.18983204017
699.16764171151
699.145068616448
699.122106663992
699.098749515485
699.074990593994
699.050823058708
699.026239794378
699.001233403709
698.975796195037
698.949920181638
698.923597067698
698.896818230027
698.869574705383
698.841857183673
698.813655992023
698.784961080169
698.755762027658
698.726048006298
698.695807762718
698.665029602955
698.633701374188
698.601810447441
698.569343696377
698.536287479577
698.502627620411
698.468349381555
698.433437438457
698.397875870221
698.361648118872
698.324736962763
698.287124491811
698.248792067851
698.209720301109
698.169889007853
698.129277168736
698.087862889922
698.045623358435
698.002534801477
697.958572438681
697.913710423914
697.867921802673
697.821178456941
697.773451029428
697.724708851697
697.67491987046
697.624050581216
697.572065933925
697.518929261095
697.464602175184
697.409044451561
697.352213912381
697.294066312919
697.234555194447
697.173631739438
697.111244612309
697.047339788162
696.981860361085
696.91474633315
696.845934391009
696.775357682541
696.702945524895
696.628623097011
696.552311095296
696.473925377546
696.393376545891
696.310569490423
696.225402885685
696.13776862477
696.047551203423
695.954627035053
695.858863640817
695.760118759255
695.658239328675
695.553060340995
695.444403583408
695.332076145086
695.215868728091
695.095553741796
694.970883058725
694.841585423515
694.70736355009
694.567890548727
694.422806084908
694.27171116907
694.114163210027
693.949666446108
693.777652642914
693.597469580754
693.408367351289
693.209481243834
692.999788921397
692.778079005169
692.54296072665
692.292829260647
692.025806442185
691.73969850359
691.431961598801
691.099641119692
690.739341929813
690.347323814021
689.919435577772
689.451002322625
688.93698464182
688.372048948382
687.750563957997
687.066712327467
686.314740681184
685.48892656549
684.58383687744
683.594539741517
682.516510754337
681.345847541284
680.079506490129
678.715015239793
677.250442983961
675.684681085147
674.01724407476
672.248023605294
670.377109838087
668.404994269252
666.332167085201
664.159053558678
661.885986845269
659.51332593828
657.041406879314
654.470511462546
651.800584222292
649.031573656777
646.163617069647
643.197164391831
640.13289531348
636.971654460584
633.714366238896
630.361934872112
626.915230045694
623.375045098099
619.742165021096
616.017410011287
612.201715077946
608.295985537898
604.301068764956
600.217726373285
596.046673235123
591.788547596072
587.443951181845
583.013416804051
578.497449887314
573.896494096562
569.2109741818
564.441317605725
559.588140683621
554.652011853599
549.633493302696
544.53308979676
539.351305776565
534.088591286768
528.745401696447
523.322141733311
517.819226091416
512.237019584416
506.575900600524
500.836198598201
495.018259976948
489.122382872555
483.148885509866
477.098038536709
470.970160221562
464.765650546672
458.484957819276
452.128479314152
445.696637976608
439.189805543207
432.608381910117
425.952715333842
419.223184627527
412.420116275391
405.543869686654
398.594750997934
391.573101652971
384.479208671055
377.313396731213
370.07593480993
362.767131842867
355.387239704653
347.936552457952
340.415305724671
332.823779481253
325.162193752983
317.430815152047
309.629851278413
301.759603820418
293.820338382001
285.812400917955
277.736082998742
269.591739048992
261.379646442881
253.100147686003
244.753505936046
236.340052496454
227.860036905055
219.313779924463
210.701518047526
202.023562100966
193.280136072011
184.471541408776
175.597990060303
166.659774628948
157.657095462622
148.590236894645
139.459388202742
130.264826043978
121.006729021684
111.685366566519
102.300906950272
92.853612772116
83.3436424393501
73.7712524557562
64.1365918523086
54.4399113598887
44.6813512524087
34.8611574080572
24.9794619141697
15.0365074971946
5.0324284387212
)
;

boundaryField
{
    electrode
    {
        type            calculated;
        value           uniform 699.999999999322;
    }
    ground
    {
        type            calculated;
        value           uniform 0;
    }
    otherfaces
    {
        type            empty;
    }
}


// ************************************************************************* //
