/*--------------------------------*- C++ -*----------------------------------*\
| =========                 |                                                 |
| \\      /  F ield         | foam-extend: Open Source CFD                    |
|  \\    /   O peration     | Version:     4.0                                |
|   \\  /    A nd           | Web:         http://www.foam-extend.org         |
|    \\/     M anipulation  |                                                 |
\*---------------------------------------------------------------------------*/
FoamFile
{
    version     2.0;
    format      ascii;
    class       volScalarField;
    location    "9.9e-06";
    object      Te;
}
// * * * * * * * * * * * * * * * * * * * * * * * * * * * * * * * * * * * * * //

dimensions      [0 0 0 1 0 0 0];

internalField   nonuniform List<scalar> 
300
(
40010.4818649942
40010.7586493778
40010.9242632928
40011.0219188091
40011.1773987663
40011.3658688702
40011.5903723817
40011.8527959164
40012.1523898824
40012.4893003935
40012.8635382254
40013.2750882386
40013.7239616029
40014.210169283
40014.7337275741
40015.2946583947
40015.8929887604
40016.5287509793
40017.2019826535
40017.9127266982
40018.6610313748
40019.4469503194
40020.2705425794
40021.1318726504
40022.0310105157
40022.9680316938
40023.9430172826
40024.9560540097
40026.0072342923
40027.0966562903
40028.224423968
40029.3906471617
40030.5954416475
40031.838929215
40033.121237744
40034.4425012844
40035.8028601422
40037.202460971
40038.6414568627
40040.1200074482
40041.6382789988
40043.1964445356
40044.7946839431
40046.4331840858
40048.1121389317
40049.8317496828
40051.5922249078
40053.3937806844
40055.2366407452
40057.121036629
40059.0472078412
40061.0154020208
40063.0258751124
40065.0788915478
40067.1747244328
40069.3136557415
40071.4959765251
40073.7219871196
40075.9919973684
40078.3063268546
40080.6653051398
40083.0692720134
40085.5185777555
40088.0135834074
40090.5546610541
40093.1421941205
40095.7765776785
40098.4582187657
40101.1875367215
40103.9649635358
40106.7909442116
40109.6659371414
40112.590414506
40115.5648626879
40118.5897826991
40121.6656906313
40124.793118128
40127.9726128737
40131.2047391077
40134.4900781588
40137.8292290078
40141.2228088711
40144.6714538182
40148.1758194132
40151.7365813845
40155.3544363319
40159.0301024653
40162.7643203779
40166.5578538593
40170.4114907458
40174.3260438162
40178.3023517311
40182.3412800201
40186.4437221184
40190.6106004577
40194.8428676167
40199.1415075292
40203.507536756
40207.9420058281
40212.4460006646
40217.0206440643
40221.6670972832
40226.3865617023
40231.1802805884
40236.049540958
40240.9956755528
40246.0200649263
40251.1241396592
40256.3093827153
40261.5773319457
40266.9295827228
40272.3677907002
40277.8936749064
40283.5090212966
40289.2156857136
40295.0155954491
40300.9107554576
40306.9032645815
40312.9953077912
40319.1890965578
40325.4869552771
40331.8917291494
40338.40653129
40345.0339515925
40351.7763748296
40358.636579298
40365.6176507749
40372.7228462972
40379.9555866773
40387.3194621535
40394.8182422124
40402.4558875923
40410.2365636239
40418.1646548602
40426.244781097
40434.481814922
40442.8809009797
40451.4474771654
40460.1872979713
40469.1064602721
40478.2114318603
40487.509083088
40497.0067220491
40506.7121337728
40516.6336240247
40526.7800683107
40537.1609670163
40547.7865072496
40558.6676331741
40569.8161246329
40581.2446885093
40592.9670588129
40604.9981186455
40617.3540262977
40630.0523842972
40643.1123945646
40656.5551019528
40670.4035825998
40684.6832943419
40699.42235739
40714.6519789869
40730.4073227654
40746.7279421479
40763.6630922991
40781.2753122092
40799.7014493747
40819.1280051354
40839.559570983
40860.8941856376
40883.2088562336
40906.724922362
40931.6757094791
40958.2447464448
40986.5593893937
41016.6200814193
41048.2791386501
41081.8712602043
41118.1078127728
41156.6631676079
41197.3789032869
41241.5278980456
41289.3127359897
41340.8385155896
41398.1632442919
41463.049226393
41537.6413676521
41626.2831816156
41734.3984417958
41869.8233216891
42044.9393264591
42275.5357322586
42583.1517471405
42999.8760906722
43569.2500361399
44356.2127422462
45451.257250091
46972.8618705066
49120.2660609815
52193.5604789626
56765.1268590801
62749.8553397456
70463.9938146219
82898.5279839564
100272.767811095
124186.237858221
157584.948169802
202603.504645736
259286.149327995
324396.625724474
392709.359981325
459314.785963141
520943.716111458
576071.94827941
624448.757080331
666518.379012175
702951.975941295
734497.103020875
762004.496945452
786181.559746483
807581.735402756
826627.373218901
843691.875470274
859103.162967628
873111.946522677
885933.438817476
897750.285624173
908708.275613313
918928.244142948
928509.762166813
937535.305687336
946073.15758302
954179.763513466
961901.598832802
969276.681443068
976335.790934263
983103.525484841
989599.00646473
995837.650897139
1001829.51321379
1007577.46992214
1013084.33250337
1018352.4182087
1023379.66517434
1028161.88457405
1032692.53569674
1036963.02643078
1040962.9853744
1044680.44377402
1048101.99971313
1051212.96205598
1053997.47235791
1056438.60327643
1058518.2505795
1060217.44701868
1061515.9691209
1062394.07904938
1062820.34853337
1062796.11050631
1062287.40023893
1061273.61687857
1059731.81651054
1057639.6259706
1054974.27712928
1051712.7300904
1047831.17449093
1043305.37217292
1038110.83328429
1032222.65869057
1025615.42414491
1018263.42553117
1010140.10589919
1001222.512956
991481.813701676
980886.408364845
969410.911263065
957025.632140225
943698.44723852
929395.346996701
914080.343870396
897715.266178701
880259.423864092
861669.553187682
841898.933139251
820903.291218614
798632.842513202
775023.794160108
750012.35041255
723526.220165011
695474.044776938
665772.008381238
634311.147439632
600955.30765954
565566.148349649
527955.859990507
487888.386318874
445074.391833379
399116.729200278
349445.624321054
295238.009850616
235414.624832467
)
;

boundaryField
{
    electrode
    {
        type            electronTemperature;
        seec            0.05;
        Tse             1000;
        Edepend         1;
        TFN             1000;
        field_emission  0;
        field_enhancement_factor 55;
        work_function   5;
        value           uniform 40010.4818649942;
    }
    ground
    {
        type            electronTemperature;
        seec            0.05;
        Tse             1000;
        Edepend         1;
        TFN             1000;
        field_emission  0;
        field_enhancement_factor 55;
        work_function   5;
        value           uniform 201494.934471813;
    }
    otherfaces
    {
        type            empty;
    }
}


// ************************************************************************* //
