/*--------------------------------*- C++ -*----------------------------------*\
| =========                 |                                                 |
| \\      /  F ield         | foam-extend: Open Source CFD                    |
|  \\    /   O peration     | Version:     4.0                                |
|   \\  /    A nd           | Web:         http://www.foam-extend.org         |
|    \\/     M anipulation  |                                                 |
\*---------------------------------------------------------------------------*/
FoamFile
{
    version     2.0;
    format      ascii;
    class       volScalarField;
    location    "9.9e-06";
    object      TeMean;
}
// * * * * * * * * * * * * * * * * * * * * * * * * * * * * * * * * * * * * * //

dimensions      [0 0 0 1 0 0 0];

internalField   nonuniform List<scalar> 
300
(
36973.8201285123
36974.1106029917
36974.2540265713
36974.2880161448
36974.3550175796
36974.4327947801
36974.5243522644
36974.6321544561
36974.7559616754
36974.8962513228
36975.0533925667
36975.2277243527
36975.4195902445
36975.6293131265
36975.85720825
36976.1035823774
36976.3687327481
36976.6529502192
36976.9565189788
36977.2797164347
36977.6228150226
36977.9860808663
36978.3697753367
36978.7741546045
36979.1994693926
36979.6459721137
36980.1139121721
36980.6035342817
36981.1150840422
36981.6488004648
36982.2049151645
36982.7836682417
36983.3853067385
36984.0100720006
36984.6582033359
36985.3299354746
36986.0255037849
36986.7451500562
36987.4891169083
36988.2576449366
36989.050974041
36989.8693508145
36990.7130233327
36991.5822394111
36992.4772489434
36993.398303803
36994.3456576236
36995.3195652751
36996.3202808738
36997.3480578048
36998.4031489489
36999.4858162747
37000.596336299
37001.7349883483
37002.9020577776
37004.0978399363
37005.3226300711
37006.5767247326
37007.8604302788
37009.1740589426
37010.5179279628
37011.8923655949
37013.2976956131
37014.7342440865
37016.2023623647
37017.702417655
37019.2347812269
37020.7998298885
37022.3979485933
37024.0295338357
37025.6949886551
37027.3947172285
37029.1291419
37030.8987010107
37032.7038353489
37034.5449900486
37036.4226329138
37038.3372596022
37040.2893691711
37042.2794683072
37044.308093873
37046.3758001527
37048.4831451103
37050.6306956445
37052.8190343581
37055.0487746619
37057.320558332
37059.6350381292
37061.9928798836
37064.3947756857
37066.8414302114
37069.3335688217
37071.871969459
37074.4574238377
37077.0907407753
37079.7727691574
37082.5043799946
37085.2864741469
37088.1199798217
37091.005859202
37093.9451192538
37096.9387836098
37099.9879105919
37103.0936190984
37106.257064825
37109.4794410619
37112.7619822282
37116.1059706037
37119.5127456675
37122.9836966673
37126.5202670927
37130.1239557041
37133.7963154036
37137.5389754537
37141.3536246409
37145.2420124507
37149.2059589419
37153.2473757988
37157.3682707393
37161.5707127326
37165.8568589953
37170.2289706846
37174.6894022458
37179.2406250665
37183.8852452125
37188.6259843724
37193.4656796006
37198.4073197714
37203.4540523079
37208.6091679607
37213.8761240345
37219.2585715623
37224.7603644913
37230.385538033
37236.1383450458
37242.0233242438
37248.0452896132
37254.2093306839
37260.5208457865
37266.9855759606
37273.6096346714
37280.3995343139
37287.362221279
37294.5051117086
37301.8361648831
37309.3639574373
37317.0977283699
37325.0474527777
37333.2238769556
37341.6386359132
37350.3044218369
37359.2350479268
37368.4455980455
37377.9526607851
37387.7744350531
37397.9310249678
37408.4447000378
37419.3404315185
37430.6464864322
37442.3960244962
37454.6347070065
37467.4194225437
37480.8066581794
37494.8546723511
37509.6420684716
37525.2728700296
37541.8296781409
37559.3654190071
37577.975218395
37597.8010360145
37618.9755971863
37641.6207087533
37665.8673017135
37691.7713544471
37719.3375697079
37748.7618947383
37780.3360471599
37814.2590459574
37850.9586602654
37891.3380214653
37936.7189751041
37989.2170774693
38052.327278924
38131.2212684268
38233.7022586927
38371.5286113178
38561.6630822046
38829.0477035736
39210.9465554197
39763.0278672097
40569.8757440984
41763.9548462789
43557.4525175876
46350.5774658681
50555.6895193538
56474.4460848793
65054.763894755
76815.0493423356
92695.9089334124
113087.927622861
138043.392060068
167477.328870242
201325.467724717
238994.41691796
280631.040360914
326433.311177513
376034.604758739
428029.80222062
480147.270476704
530069.916022204
576135.124897988
617539.512709823
654161.221291824
686312.187463815
714498.409404437
739240.61053422
761069.49806655
780483.683203011
797888.798473148
813611.33266306
827907.898453589
840994.42732332
853061.575094261
864264.120035845
874731.198361912
884568.498115053
893862.715727819
902685.246440542
911094.7072667
919139.164244073
926857.811605306
934282.33417076
941438.006319226
948344.541872898
955016.86167007
961465.747239568
967698.328346398
973718.547100884
979527.794065211
985124.012441582
990502.549140184
995657.620050013
1000581.64396964
1005265.5801672
1009698.94083327
1013869.90907629
1017765.33671963
1021371.02264279
1024671.91735994
1027651.99020878
1030294.76967557
1032583.27290701
1034499.74670607
1036025.92927972
1037142.7585314
1037831.06952557
1038064.73272397
1037837.2408691
1037124.65778672
1035905.24125261
1034158.22013242
1031862.87761143
1028998.33204772
1025543.44064476
1021476.72847677
1016776.64660138
1011421.11327821
1005387.55635326
998653.457995736
991195.820452417
982991.193959649
974015.832467241
964243.881572481
953649.259476939
942205.97604702
929885.449529219
916657.640341616
902490.782667205
887351.26890526
871203.377361569
854009.08010205
835727.903387126
816318.999821417
795739.019949114
773934.655429244
750848.715916257
726419.723729792
700572.876819147
673228.390153124
644301.233427707
613682.925682046
581247.264014155
546857.992166491
510330.609903969
471440.126059882
429905.241388399
385332.6581693
337174.605950104
284633.703447112
226660.213040929
)
;

boundaryField
{
    electrode
    {
        type            calculated;
        value           uniform 36973.8201285135;
    }
    ground
    {
        type            calculated;
        value           uniform 193784.873499082;
    }
    otherfaces
    {
        type            empty;
    }
}


// ************************************************************************* //
