/*--------------------------------*- C++ -*----------------------------------*\
| =========                 |                                                 |
| \\      /  F ield         | foam-extend: Open Source CFD                    |
|  \\    /   O peration     | Version:     4.0                                |
|   \\  /    A nd           | Web:         http://www.foam-extend.org         |
|    \\/     M anipulation  |                                                 |
\*---------------------------------------------------------------------------*/
FoamFile
{
    version     2.0;
    format      ascii;
    class       volScalarField;
    location    "9.3e-06";
    object      Ar;
}
// * * * * * * * * * * * * * * * * * * * * * * * * * * * * * * * * * * * * * //

dimensions      [0 0 0 1 0 0 0];

internalField   nonuniform List<scalar> 
300
(
3.21880167515681e+22
3.21880167090594e+22
3.21880167392756e+22
3.21880167521935e+22
3.2188016773721e+22
3.21880168034407e+22
3.21880168395711e+22
3.21880168828002e+22
3.21880169330032e+22
3.21880169901445e+22
3.21880170542298e+22
3.21880171252469e+22
3.21880172031903e+22
3.21880172880563e+22
3.21880173798423e+22
3.2188017478547e+22
3.21880175841734e+22
3.21880176967207e+22
3.2188017816189e+22
3.21880179425804e+22
3.21880180758977e+22
3.21880182161443e+22
3.2188018363324e+22
3.21880185174415e+22
3.21880186785175e+22
3.21880188465449e+22
3.21880190215309e+22
3.21880192034847e+22
3.2188019392404e+22
3.21880195882959e+22
3.2188019791186e+22
3.21880200010754e+22
3.21880202179585e+22
3.21880204418429e+22
3.21880206727367e+22
3.21880209106485e+22
3.21880211555918e+22
3.2188021407574e+22
3.21880216666023e+22
3.21880219326876e+22
3.2188022205841e+22
3.21880224860723e+22
3.21880227733926e+22
3.21880230678136e+22
3.21880233693475e+22
3.21880236780067e+22
3.21880239938062e+22
3.21880243167608e+22
3.21880246468946e+22
3.21880249842256e+22
3.21880253287829e+22
3.21880256805712e+22
3.21880260396126e+22
3.21880264059068e+22
3.21880267794629e+22
3.21880271602819e+22
3.21880275483782e+22
3.21880279437666e+22
3.21880283464623e+22
3.21880287564827e+22
3.21880291738415e+22
3.21880295985548e+22
3.2188030030644e+22
3.21880304701454e+22
3.21880309170731e+22
3.21880313714201e+22
3.21880318332026e+22
3.21880323024371e+22
3.21880327791405e+22
3.218803326333e+22
3.21880337550249e+22
3.21880342542507e+22
3.21880347610274e+22
3.2188035275366e+22
3.21880357972986e+22
3.21880363268424e+22
3.21880368640094e+22
3.21880374088219e+22
3.21880379612784e+22
3.21880385214273e+22
3.21880390892524e+22
3.21880396647693e+22
3.21880402479991e+22
3.21880408389573e+22
3.21880414376764e+22
3.21880420441661e+22
3.21880426584322e+22
3.21880432804917e+22
3.21880439103736e+22
3.21880445480872e+22
3.21880451936554e+22
3.21880458471396e+22
3.21880465085014e+22
3.21880471777554e+22
3.21880478549176e+22
3.2188048540004e+22
3.21880492330306e+22
3.21880499340132e+22
3.21880506429783e+22
3.21880513599409e+22
3.21880520849098e+22
3.21880528178983e+22
3.21880535589526e+22
3.21880543080578e+22
3.21880550652371e+22
3.21880558305135e+22
3.21880566038857e+22
3.21880573853864e+22
3.21880581750182e+22
3.21880589727886e+22
3.21880597787123e+22
3.21880605928037e+22
3.21880614150803e+22
3.21880622455572e+22
3.21880630842618e+22
3.21880639312231e+22
3.21880647864095e+22
3.21880656498468e+22
3.21880665215768e+22
3.21880674016209e+22
3.21880682900247e+22
3.21880691867952e+22
3.21880700919808e+22
3.21880710055906e+22
3.21880719276322e+22
3.21880728581265e+22
3.21880737971201e+22
3.21880747446139e+22
3.21880757006367e+22
3.21880766652084e+22
3.21880776383622e+22
3.21880786201193e+22
3.21880796105022e+22
3.21880806095539e+22
3.21880816173279e+22
3.21880826338223e+22
3.21880836590501e+22
3.21880846930529e+22
3.2188085735866e+22
3.21880867874972e+22
3.21880878479788e+22
3.21880889173436e+22
3.218808999564e+22
3.21880910829161e+22
3.21880921792118e+22
3.2188093284523e+22
3.2188094398879e+22
3.21880955223101e+22
3.218809665486e+22
3.2188097796589e+22
3.21880989474954e+22
3.21881001076106e+22
3.21881012770041e+22
3.21881024556741e+22
3.21881036436445e+22
3.21881048409387e+22
3.21881060476143e+22
3.21881072635887e+22
3.21881084889427e+22
3.21881097234919e+22
3.21881109674925e+22
3.21881122203852e+22
3.21881134828404e+22
3.2188114753583e+22
3.21881160341818e+22
3.21881173231355e+22
3.21881186101264e+22
3.2188119901995e+22
3.21881212087752e+22
3.21881225239973e+22
3.2188123847422e+22
3.21881251707497e+22
3.21881264980557e+22
3.21881278220879e+22
3.21881291461321e+22
3.21881304856995e+22
3.21881318334488e+22
3.21881331418714e+22
3.21881344484683e+22
3.21881357830234e+22
3.21881370506594e+22
3.21881382932958e+22
3.21881395509249e+22
3.21881407132565e+22
3.21881418451493e+22
3.21881429419243e+22
3.21881439372996e+22
3.21881448728573e+22
3.21881457587405e+22
3.21881465210656e+22
3.21881472102373e+22
3.21881478474177e+22
3.21881483842609e+22
3.21881488162806e+22
3.21881491772878e+22
3.21881494427798e+22
3.21881496311739e+22
3.21881497683151e+22
3.21881498612569e+22
3.21881499348286e+22
3.21881499529075e+22
3.21881499233675e+22
3.21881498689118e+22
3.21881498447567e+22
3.2188149879313e+22
3.21881499624316e+22
3.21881500654423e+22
3.21881501720594e+22
3.21881502654175e+22
3.21881503450832e+22
3.2188150411253e+22
3.21881504666616e+22
3.2188150512813e+22
3.21881505637335e+22
3.21881506204103e+22
3.21881506727035e+22
3.21881507191284e+22
3.21881507618142e+22
3.21881508001847e+22
3.21881508360504e+22
3.21881508685141e+22
3.21881508998516e+22
3.21881509288232e+22
3.21881509567302e+22
3.21881509822706e+22
3.21881510205447e+22
3.21881510589705e+22
3.21881510970264e+22
3.21881511325387e+22
3.21881511679049e+22
3.21881512008583e+22
3.21881512338466e+22
3.21881512644786e+22
3.21881512952714e+22
3.21881513237517e+22
3.21881513524807e+22
3.21881513789128e+22
3.21881514056745e+22
3.21881514301357e+22
3.21881514549971e+22
3.21881514775453e+22
3.21881515040344e+22
3.21881515355276e+22
3.21881515673982e+22
3.21881515970171e+22
3.21881516270707e+22
3.21881516548792e+22
3.2188151683203e+22
3.21881517092781e+22
3.21881517359461e+22
3.21881517603708e+22
3.21881517854562e+22
3.21881518083246e+22
3.21881518319363e+22
3.2188151853296e+22
3.21881518754732e+22
3.21881518953545e+22
3.21881519161668e+22
3.21881519346394e+22
3.21881519541434e+22
3.21881519712714e+22
3.21881519895417e+22
3.21881520054215e+22
3.21881520225501e+22
3.21881520373359e+22
3.21881520607408e+22
3.21881520804126e+22
3.21881521030738e+22
3.21881521216015e+22
3.21881521432366e+22
3.21881521606753e+22
3.21881521813412e+22
3.21881521977556e+22
3.21881522175238e+22
3.21881522329768e+22
3.21881522519095e+22
3.21881522664528e+22
3.21881522845911e+22
3.21881522982601e+22
3.21881523156397e+22
3.21881523284789e+22
3.21881523451808e+22
3.21881523574442e+22
3.21881523738917e+22
3.21881523857069e+22
3.2188152401593e+22
3.21881524127166e+22
3.21881524280063e+22
3.21881524384507e+22
3.21881524535807e+22
3.21881524641982e+22
3.21881524792115e+22
3.21881524891697e+22
3.21881525043385e+22
3.21881525147442e+22
3.21881525299536e+22
3.21881525410263e+22
3.21881525577494e+22
3.21881525727584e+22
3.21881526008823e+22
)
;

boundaryField
{
    electrode
    {
        type            zeroGradient;
    }
    ground
    {
        type            zeroGradient;
    }
    otherfaces
    {
        type            empty;
    }
}


// ************************************************************************* //
