/*--------------------------------*- C++ -*----------------------------------*\
| =========                 |                                                 |
| \\      /  F ield         | foam-extend: Open Source CFD                    |
|  \\    /   O peration     | Version:     4.0                                |
|   \\  /    A nd           | Web:         http://www.foam-extend.org         |
|    \\/     M anipulation  |                                                 |
\*---------------------------------------------------------------------------*/
FoamFile
{
    version     2.0;
    format      ascii;
    class       volScalarField;
    location    "9.3e-06";
    object      Arm;
}
// * * * * * * * * * * * * * * * * * * * * * * * * * * * * * * * * * * * * * //

dimensions      [0 0 0 1 0 0 0];

internalField   nonuniform List<scalar> 
300
(
3.57410244110899e+15
3.57597535715912e+15
3.57792241718217e+15
3.57922874117881e+15
3.58004507968806e+15
3.58042370734982e+15
3.5804088196232e+15
3.5800318701626e+15
3.57931852187277e+15
3.57829075297799e+15
3.57696434728201e+15
3.57535339006787e+15
3.57346993563579e+15
3.57132458715752e+15
3.5689268021359e+15
3.56628511926025e+15
3.56340437764818e+15
3.56029315546456e+15
3.55695979062569e+15
3.55341076588661e+15
3.54965228269833e+15
3.54569026269952e+15
3.54153039585395e+15
3.53717809579783e+15
3.53262278163153e+15
3.52788210071591e+15
3.52295978256346e+15
3.51785787059024e+15
3.51258991424692e+15
3.50716077369867e+15
3.50155678288965e+15
3.49578927720387e+15
3.48987632182792e+15
3.48382332612072e+15
3.4776353763552e+15
3.47131726479831e+15
3.46486918858143e+15
3.45829765158297e+15
3.45160971405848e+15
3.44480891883933e+15
3.43789877334327e+15
3.43088454702125e+15
3.42377012331385e+15
3.41655919372381e+15
3.40925525831853e+15
3.40186157635765e+15
3.39437909839771e+15
3.38680925219332e+15
3.37914430722911e+15
3.37138281649888e+15
3.3635122533557e+15
3.35554503228826e+15
3.3474758463054e+15
3.33932234550836e+15
3.33109270065719e+15
3.32280323764084e+15
3.31445728409793e+15
3.30605775621527e+15
3.29760722222974e+15
3.28910611284051e+15
3.28055873057238e+15
3.27196717966092e+15
3.26332809597019e+15
3.25462359331862e+15
3.2458576492217e+15
3.23705575486806e+15
3.22822005219195e+15
3.21935238097865e+15
3.21045432708607e+15
3.20152724587946e+15
3.19257028327044e+15
3.18357631299779e+15
3.17454380512518e+15
3.16548014321824e+15
3.1563718587129e+15
3.14721999105794e+15
3.13803085101505e+15
3.12880038006578e+15
3.11954840348424e+15
3.11024460021604e+15
3.10092335519813e+15
3.0915868508305e+15
3.08223202485992e+15
3.07286109157681e+15
3.06345931331198e+15
3.05403439352251e+15
3.04459800595454e+15
3.03515046922599e+15
3.02567993860127e+15
3.01619409938104e+15
3.00668688489481e+15
2.99711352744761e+15
2.98752898258337e+15
2.9779349955519e+15
2.96833159869867e+15
2.95871881767558e+15
2.94909643419266e+15
2.93946399451438e+15
2.92981060653359e+15
2.92013619984963e+15
2.9104470142377e+15
2.90074427201854e+15
2.89099640107835e+15
2.88123242435876e+15
2.87144320109494e+15
2.86161943643737e+15
2.85177603263932e+15
2.84189350905885e+15
2.83198221832102e+15
2.82204760719364e+15
2.81208781972989e+15
2.80210055913198e+15
2.79207810739842e+15
2.78201824094343e+15
2.77191870756254e+15
2.76176188434855e+15
2.7515289767488e+15
2.74124464600321e+15
2.73090979600548e+15
2.72051632802993e+15
2.71003797167033e+15
2.69948752289815e+15
2.68883615966972e+15
2.67809419777147e+15
2.6672730378861e+15
2.65637045424781e+15
2.64535848176454e+15
2.63425440440463e+15
2.62304747018702e+15
2.61173559234232e+15
2.60030317959718e+15
2.58874633557643e+15
2.57706002148466e+15
2.56521817250263e+15
2.55318445947537e+15
2.54097759349089e+15
2.52860146900395e+15
2.51603111506879e+15
2.50324771813299e+15
2.4902602904382e+15
2.4770528951409e+15
2.46360884687512e+15
2.44989603255371e+15
2.43588236905226e+15
2.42154331927055e+15
2.40689852101073e+15
2.39193317488577e+15
2.37663089112187e+15
2.3609611240887e+15
2.34487514732237e+15
2.32838518828079e+15
2.31146649817236e+15
2.29405701177876e+15
2.27615538098677e+15
2.25774331982209e+15
2.23877117716245e+15
2.21919577701039e+15
2.19901644191251e+15
2.17821401143819e+15
2.15674359781737e+15
2.13456961773435e+15
2.11167689052383e+15
2.08802731533794e+15
2.06363327894405e+15
2.03848175380546e+15
2.01251841078823e+15
1.98576396512463e+15
1.95826290462704e+15
1.93004425555642e+15
1.90115001489705e+15
1.87164865740495e+15
1.84157370341556e+15
1.81101757671139e+15
1.78015167156573e+15
1.74916983947775e+15
1.7182419964967e+15
1.68754734939935e+15
1.65728493805512e+15
1.62769331176748e+15
1.59892820875901e+15
1.57114389464297e+15
1.54448729555562e+15
1.51903997548399e+15
1.49491642956988e+15
1.47211658863189e+15
1.4505506968757e+15
1.4302581596653e+15
1.41118861548652e+15
1.39325635492094e+15
1.37638090041279e+15
1.36046890931861e+15
1.34557268712645e+15
1.33218912629437e+15
1.32541176881493e+15
1.35141060514161e+15
1.41742050165643e+15
1.49758683538731e+15
1.56449265223696e+15
1.6271195715829e+15
1.69885043918815e+15
1.78022141438688e+15
1.86528540176715e+15
1.93196539926534e+15
1.9439117378315e+15
1.90692497536248e+15
1.84242099609103e+15
1.77409861310119e+15
1.71627723568262e+15
1.67401459628893e+15
1.64545226484839e+15
1.62681733535674e+15
1.61563579035019e+15
1.60842072834009e+15
1.60502464065258e+15
1.60305521320858e+15
1.60134497758908e+15
1.60041940130349e+15
1.59969861929255e+15
1.59877265474407e+15
1.59741064644083e+15
1.59543960188193e+15
1.59217160293761e+15
1.58771893964272e+15
1.58235435606474e+15
1.57614704749654e+15
1.56925273502734e+15
1.56172011986754e+15
1.55358490029786e+15
1.54490352335228e+15
1.53574171811018e+15
1.52614467913135e+15
1.51617406124311e+15
1.50589609433005e+15
1.49535928685475e+15
1.48461394317897e+15
1.47372472343402e+15
1.46272103812984e+15
1.45166366865106e+15
1.44058002262964e+15
1.42951447271023e+15
1.4184973636199e+15
1.40754868504621e+15
1.39670855780462e+15
1.38598610633796e+15
1.37540796256515e+15
1.36500719564521e+15
1.35478507505152e+15
1.34476167099563e+15
1.33494962778423e+15
1.32534915337998e+15
1.315973696839e+15
1.30682312604359e+15
1.29787964970483e+15
1.28916025665573e+15
1.28067269123931e+15
1.27242331562485e+15
1.26441474542044e+15
1.25663316843699e+15
1.24908650676453e+15
1.24176461151508e+15
1.23466752334031e+15
1.22777301864604e+15
1.22106622363987e+15
1.21454884820147e+15
1.20822448812024e+15
1.20208734321255e+15
1.19612771785466e+15
1.19034033603959e+15
1.18471246281748e+15
1.17924765641249e+15
1.17393566566871e+15
1.1687784443707e+15
1.16375891370869e+15
1.1588798993888e+15
1.15412794777698e+15
1.14950023231968e+15
1.14499379225061e+15
1.1406074425428e+15
1.13634200822507e+15
1.13219008014306e+15
1.12814941006775e+15
1.12417866258868e+15
1.12013430587087e+15
1.11594469543898e+15
1.11179811563085e+15
1.10773051049884e+15
1.10375068508687e+15
1.09986267178462e+15
1.09605781934771e+15
1.09193344867215e+15
1.08746962637332e+15
1.08310620810471e+15
1.07885408026461e+15
1.07399577153909e+15
1.06887358790908e+15
1.06368244929661e+15
1.05750336132019e+15
1.05077807612722e+15
1.0429878786734e+15
1.03345589540522e+15
)
;

boundaryField
{
    electrode
    {
        type            zeroGradient;
    }
    ground
    {
        type            zeroGradient;
    }
    otherfaces
    {
        type            empty;
    }
}


// ************************************************************************* //
