/*--------------------------------*- C++ -*----------------------------------*\
| =========                 |                                                 |
| \\      /  F ield         | foam-extend: Open Source CFD                    |
|  \\    /   O peration     | Version:     4.0                                |
|   \\  /    A nd           | Web:         http://www.foam-extend.org         |
|    \\/     M anipulation  |                                                 |
\*---------------------------------------------------------------------------*/
FoamFile
{
    version     2.0;
    format      ascii;
    class       volScalarField;
    location    "9.3e-06";
    object      Arp1;
}
// * * * * * * * * * * * * * * * * * * * * * * * * * * * * * * * * * * * * * //

dimensions      [0 0 0 1 0 0 0];

internalField   nonuniform List<scalar> 
300
(
6.83212336496988e+16
6.83637902347615e+16
6.83365013556747e+16
6.83304968880099e+16
6.83196553803312e+16
6.8304366637953e+16
6.82863737770266e+16
6.82649580168355e+16
6.8240221519112e+16
6.82121805950901e+16
6.81808164465971e+16
6.81461301823207e+16
6.81081184937812e+16
6.80667777901061e+16
6.80221047058468e+16
6.7974095576628e+16
6.79227465852061e+16
6.78680537534706e+16
6.78100129351646e+16
6.77486198210211e+16
6.76838699389464e+16
6.76157586558748e+16
6.75442811792743e+16
6.7469432558377e+16
6.73912076862177e+16
6.73096013015363e+16
6.72246079900393e+16
6.71362221868993e+16
6.70444381787398e+16
6.69492501054332e+16
6.6850651962413e+16
6.67486376033603e+16
6.66432007420022e+16
6.65343349547469e+16
6.64220336835818e+16
6.63062902380849e+16
6.6187097798467e+16
6.60644494185363e+16
6.59383380279786e+16
6.58087564356954e+16
6.56756973329631e+16
6.55391532959437e+16
6.53991167892821e+16
6.52555801693866e+16
6.51085356872818e+16
6.49579754923368e+16
6.48038916358387e+16
6.464627607394e+16
6.4485120671683e+16
6.43204172067643e+16
6.41521573725992e+16
6.39803327826769e+16
6.38049349743135e+16
6.3625955412183e+16
6.3443385492495e+16
6.32572165471728e+16
6.30674398475536e+16
6.28740466085394e+16
6.26770279931663e+16
6.24763751161537e+16
6.22720790485362e+16
6.20641308221279e+16
6.18525214333009e+16
6.16372418477359e+16
6.14182830049579e+16
6.11956358222593e+16
6.09692911995585e+16
6.07392400240162e+16
6.0505473174076e+16
6.02679815243279e+16
6.00267559502763e+16
5.97817873324139e+16
5.95330665611689e+16
5.92805845416872e+16
5.90243321979151e+16
5.87643004776974e+16
5.85004803574176e+16
5.82328628463386e+16
5.79614389913636e+16
5.76861998819707e+16
5.74071366544765e+16
5.71242404966665e+16
5.68375026527987e+16
5.65469144277787e+16
5.62524671918049e+16
5.59541523852498e+16
5.56519615227908e+16
5.53458861980418e+16
5.50359180882605e+16
5.47220489584042e+16
5.44042706657041e+16
5.40825751641904e+16
5.37569545088415e+16
5.3427400859695e+16
5.30939064865502e+16
5.27564637727219e+16
5.24150652192974e+16
5.20697034494414e+16
5.1720371212103e+16
5.13670613861352e+16
5.10097669844025e+16
5.06484811572126e+16
5.02831971962253e+16
4.99139085400405e+16
4.95406087765516e+16
4.91632916397823e+16
4.87819510162538e+16
4.83965809807432e+16
4.80071758214085e+16
4.7613729839351e+16
4.72162371773435e+16
4.68146928913361e+16
4.64090942679359e+16
4.59994351902636e+16
4.55856975080113e+16
4.51678763844695e+16
4.47460296249518e+16
4.43201162597128e+16
4.38901047113449e+16
4.34559934560124e+16
4.30177750313975e+16
4.25754414035932e+16
4.21289847399505e+16
4.16783974589885e+16
4.12236722804155e+16
4.07648022411037e+16
4.03017807054934e+16
3.98346013764207e+16
3.9363258306856e+16
3.88877459144079e+16
3.84080589984775e+16
3.79241927604409e+16
3.74361428279702e+16
3.69439052840635e+16
3.64474767012454e+16
3.59468541825873e+16
3.54420354105008e+16
3.49330187044649e+16
3.44198030901462e+16
3.39023883815121e+16
3.33807752785888e+16
3.28549654841196e+16
3.23249618428332e+16
3.17907685083017e+16
3.12523911387156e+16
3.07098371465319e+16
3.01631159501551e+16
2.96122394088998e+16
2.90572220080945e+16
2.84980818881205e+16
2.79348402690344e+16
2.73675246863601e+16
2.67961646847726e+16
2.62208033448218e+16
2.56414780478344e+16
2.50582614545415e+16
2.4471189577047e+16
2.38804000486876e+16
2.32858897117077e+16
2.26879514282319e+16
2.20864326978178e+16
2.14819814963519e+16
2.08740448350939e+16
2.02639722438551e+16
1.9650308735895e+16
1.90347447160964e+16
1.84278546580292e+16
1.78232638457501e+16
1.7211505228093e+16
1.6599501414975e+16
1.59878189032917e+16
1.53851163437639e+16
1.47876693928447e+16
1.42030180686387e+16
1.36280513128499e+16
1.30470983563849e+16
1.24666866531502e+16
1.1932968766829e+16
1.14066272995545e+16
1.0855195210444e+16
1.03697554280528e+16
9.90383473971951e+15
9.41191721296364e+15
8.9976735580655e+15
8.58923007244874e+15
8.1839496741968e+15
7.84056837275222e+15
7.5106176875933e+15
7.17808810517504e+15
6.91246292979811e+15
6.66089401753243e+15
6.40165270290468e+15
6.18406239401132e+15
6.0108762159653e+15
5.82691826970537e+15
5.65550480787314e+15
5.51050728811628e+15
5.39984138966624e+15
5.31363340384463e+15
5.21927279686483e+15
5.15839190148502e+15
5.13119605419951e+15
5.13890096435247e+15
5.16538364102126e+15
5.17767089683412e+15
5.16533316861993e+15
5.13431151789103e+15
5.08753067295034e+15
5.03752154006278e+15
4.98701182930879e+15
4.93981050465736e+15
4.89577579854764e+15
4.85695207165139e+15
4.80949352480551e+15
4.75482364536883e+15
4.70426073007715e+15
4.65877068025313e+15
4.61680871944728e+15
4.57936398047507e+15
4.54485836365434e+15
4.5143633777658e+15
4.48629207070279e+15
4.46177241995998e+15
4.43923063894219e+15
4.41989972204973e+15
4.38852391412863e+15
4.35763646629191e+15
4.32772334764207e+15
4.30090161650051e+15
4.2747081218807e+15
4.25136408614708e+15
4.22836021567686e+15
4.2080211101439e+15
4.18778130752595e+15
4.17006343908258e+15
4.15224161784864e+15
4.13683186570648e+15
4.12114678824141e+15
4.10778901658576e+15
4.09401326596597e+15
4.08250261091227e+15
4.06698267459547e+15
4.04635032103979e+15
4.0252227994235e+15
4.00620255069177e+15
3.98657017827586e+15
3.9690039314878e+15
3.95072349668694e+15
3.93448002603469e+15
3.91743176633528e+15
3.9024013383641e+15
3.88648495252432e+15
3.87257799916061e+15
3.85770313520205e+15
3.84484808641687e+15
3.83093680563985e+15
3.81908015718291e+15
3.80606498109492e+15
3.79515420986903e+15
3.78298670527502e+15
3.77297001541562e+15
3.76160782002042e+15
3.75244809647788e+15
3.74184963392969e+15
3.73340058517372e+15
3.71614475332647e+15
3.70244407070156e+15
3.68558132961568e+15
3.67269221008667e+15
3.65653224177413e+15
3.64441553652148e+15
3.62891638927957e+15
3.61753080674573e+15
3.6026505988765e+15
3.5919582297729e+15
3.57766162847959e+15
3.56763279049634e+15
3.55388868863985e+15
3.54449267536155e+15
3.53127233991335e+15
3.52248090462052e+15
3.50975655366098e+15
3.50154400026282e+15
3.4892924317241e+15
3.4816299052009e+15
3.46981727292641e+15
3.46267931016958e+15
3.45128309603247e+15
3.44464886706288e+15
3.43364828338267e+15
3.42749954975357e+15
3.41685432070666e+15
3.41115272339502e+15
3.40084644717319e+15
3.39556687259244e+15
3.3855521590765e+15
3.38066155407399e+15
3.37066604214577e+15
3.36344813342754e+15
3.34485511054471e+15
)
;

boundaryField
{
    electrode
    {
        type            driftDiffusionPositiveIonDensity;
        seec            0;
        fieldName       Arp1;
        value           uniform 6.81374966920543e+16;
    }
    ground
    {
        type            driftDiffusionPositiveIonDensity;
        seec            0;
        fieldName       Arp1;
        value           uniform 3.34485511054471e+15;
    }
    otherfaces
    {
        type            empty;
    }
}


// ************************************************************************* //
