/*--------------------------------*- C++ -*----------------------------------*\
| =========                 |                                                 |
| \\      /  F ield         | foam-extend: Open Source CFD                    |
|  \\    /   O peration     | Version:     4.0                                |
|   \\  /    A nd           | Web:         http://www.foam-extend.org         |
|    \\/     M anipulation  |                                                 |
\*---------------------------------------------------------------------------*/
FoamFile
{
    version     2.0;
    format      ascii;
    class       volVectorField;
    location    "9.3e-06";
    object      E;
}
// * * * * * * * * * * * * * * * * * * * * * * * * * * * * * * * * * * * * * //

dimensions      [0 0 0 1 0 0 0];

internalField   nonuniform List<vector> 
300
(
(5.46069423013052 -0 -0)
(11.2381964359476 -0 -0)
(19.754554259066 -0 -0)
(27.6635244045312 -0 -0)
(35.528977651577 -0 -0)
(43.4627096271294 -0 -0)
(51.3897734283347 -0 -0)
(59.3315344271638 -0 -0)
(67.2889411731944 -0 -0)
(75.2622541164157 -0 -0)
(83.2536611192187 -0 -0)
(91.2647152143129 -0 -0)
(99.2970501073619 -0 -0)
(107.352336720099 -0 -0)
(115.432240728465 -0 -0)
(123.538442638184 -0 -0)
(131.672635161892 -0 -0)
(139.836523618821 -0 -0)
(148.03182722123 -0 -0)
(156.260279669803 -0 -0)
(164.523630094561 -0 -0)
(172.823643854182 -0 -0)
(181.162103460305 -0 -0)
(189.540809406032 -0 -0)
(197.961581181741 -0 -0)
(206.426258116117 -0 -0)
(214.93670043782 -0 -0)
(223.49479024131 -0 -0)
(232.102432490272 -0 -0)
(240.761556095928 -0 -0)
(249.474115028595 -0 -0)
(258.242089400066 -0 -0)
(267.067486621501 -0 -0)
(275.952342651571 -0 -0)
(284.898723192038 -0 -0)
(293.908724924327 -0 -0)
(302.984476924259 -0 -0)
(312.12814192432 -0 -0)
(321.341917820828 -0 -0)
(330.628039042801 -0 -0)
(339.988778151543 -0 -0)
(349.426447339466 -0 -0)
(358.94340011531 -0 -0)
(368.542032966252 -0 -0)
(378.224787110673 -0 -0)
(387.994150333234 -0 -0)
(397.852658884287 -0 -0)
(407.802899436744 -0 -0)
(417.847511149969 -0 -0)
(427.989187765013 -0 -0)
(438.23067986536 -0 -0)
(448.574797186395 -0 -0)
(459.024411002171 -0 -0)
(469.582456652565 -0 -0)
(480.251936148304 -0 -0)
(491.035920915832 -0 -0)
(501.9375546284 -0 -0)
(512.960056214868 -0 -0)
(524.106722937686 -0 -0)
(535.380933669501 -0 -0)
(546.786152280707 -0 -0)
(558.325931150515 -0 -0)
(570.003914926516 -0 -0)
(581.823844440833 -0 -0)
(593.789560691829 -0 -0)
(605.905009194777 -0 -0)
(618.174244414254 -0 -0)
(630.60143447023 -0 -0)
(643.190866001013 -0 -0)
(655.946949386427 -0 -0)
(668.874224124406 -0 -0)
(681.977364509831 -0 -0)
(695.261185623753 -0 -0)
(708.730649617707 -0 -0)
(722.39087225014 -0 -0)
(736.247129941371 -0 -0)
(750.304866953128 -0 -0)
(764.569703190569 -0 -0)
(779.047442227363 -0 -0)
(793.74407990063 -0 -0)
(808.665813274801 -0 -0)
(823.81905017756 -0 -0)
(839.21041922741 -0 -0)
(854.846780404344 -0 -0)
(870.73523625117 -0 -0)
(886.883143691269 -0 -0)
(903.298126552032 -0 -0)
(919.988088847557 -0 -0)
(936.961228703381 -0 -0)
(954.226053323608 -0 -0)
(971.79139465091 -0 -0)
(989.666426122279 -0 -0)
(1007.86068037161 -0 -0)
(1026.38406809112 -0 -0)
(1045.24689801801 -0 -0)
(1064.4598982008 -0 -0)
(1084.03423867432 -0 -0)
(1103.98155553476 -0 -0)
(1124.31397665685 -0 -0)
(1145.04414906469 -0 -0)
(1166.18526814054 -0 -0)
(1187.75110881666 -0 -0)
(1209.75605893287 -0 -0)
(1232.21515500707 -0 -0)
(1255.14412041712 -0 -0)
(1278.5594054905 -0 -0)
(1302.47823097289 -0 -0)
(1326.91863877916 -0 -0)
(1351.89954675471 -0 -0)
(1377.440783151 -0 -0)
(1403.56311286323 -0 -0)
(1430.28839850196 -0 -0)
(1457.63988118023 -0 -0)
(1485.64178078806 -0 -0)
(1514.31805906087 -0 -0)
(1543.69462042306 -0 -0)
(1573.80665775381 -0 -0)
(1604.69451332288 -0 -0)
(1636.39415614975 -0 -0)
(1668.93952775627 -0 -0)
(1702.36626741168 -0 -0)
(1736.71216154407 -0 -0)
(1772.01724291961 -0 -0)
(1808.32397266733 -0 -0)
(1845.67742832866 -0 -0)
(1884.12550849885 -0 -0)
(1923.719157146 -0 -0)
(1964.51260975301 -0 -0)
(2006.56366384242 -0 -0)
(2049.93397672099 -0 -0)
(2094.68939370113 -0 -0)
(2140.90031035331 -0 -0)
(2188.64207328804 -0 -0)
(2237.99542389779 -0 -0)
(2289.0469908182 -0 -0)
(2341.88983734996 -0 -0)
(2396.62407100307 -0 -0)
(2453.35752361047 -0 -0)
(2512.20651171807 -0 -0)
(2573.29668818061 -0 -0)
(2636.76399822632 -0 -0)
(2702.75575483982 -0 -0)
(2771.43185115708 -0 -0)
(2842.96613049549 -0 -0)
(2917.5479379212 -0 -0)
(2995.38388226018 -0 -0)
(3076.69984038642 -0 -0)
(3161.74324769438 -0 -0)
(3250.78571042993 -0 -0)
(3344.12602202742 -0 -0)
(3442.0935903685 -0 -0)
(3545.05248356182 -0 -0)
(3653.40592024011 -0 -0)
(3767.60187009894 -0 -0)
(3888.13880185448 -0 -0)
(4015.57388280584 -0 -0)
(4150.52977933879 -0 -0)
(4293.70785180239 -0 -0)
(4445.89420093473 -0 -0)
(4607.98384690259 -0 -0)
(4780.98009566067 -0 -0)
(4966.04280834557 -0 -0)
(5164.46945147045 -0 -0)
(5377.79955387699 -0 -0)
(5607.74799199033 -0 -0)
(5856.67648120757 -0 -0)
(6129.45597640594 -0 -0)
(6431.87922458537 -0 -0)
(6767.31358124279 -0 -0)
(7138.67984625528 -0 -0)
(7550.80057502968 -0 -0)
(8011.0566346654 -0 -0)
(8528.61832162482 -0 -0)
(9114.10756873713 -0 -0)
(9778.85987112855 -0 -0)
(10530.4426079969 -0 -0)
(11375.347192234 -0 -0)
(12330.5960487956 -0 -0)
(13413.5829776688 -0 -0)
(14626.8616472127 -0 -0)
(15983.3044001624 -0 -0)
(17502.7594532274 -0 -0)
(19183.744650958 -0 -0)
(21033.3896807226 -0 -0)
(23062.1896519703 -0 -0)
(25259.9597230894 -0 -0)
(27624.506854426 -0 -0)
(30152.2302162605 -0 -0)
(32819.5895405484 -0 -0)
(35613.2949993982 -0 -0)
(38522.4159955499 -0 -0)
(41514.804491442 -0 -0)
(44565.9676175648 -0 -0)
(47667.2773356678 -0 -0)
(50798.4888300362 -0 -0)
(53933.1381877292 -0 -0)
(57057.8807261418 -0 -0)
(60171.6622031393 -0 -0)
(63273.4774441615 -0 -0)
(66361.6568945209 -0 -0)
(69431.4362233803 -0 -0)
(72486.8830024459 -0 -0)
(75553.6506740706 -0 -0)
(78644.2266687396 -0 -0)
(81751.5559583925 -0 -0)
(84863.1490127811 -0 -0)
(87964.7021968979 -0 -0)
(91044.7185193335 -0 -0)
(94096.6244483947 -0 -0)
(97118.7188153484 -0 -0)
(100111.571022302 -0 -0)
(103077.021168433 -0 -0)
(106017.546121572 -0 -0)
(108932.087349994 -0 -0)
(111815.850414233 -0 -0)
(114667.890806154 -0 -0)
(117490.972093769 -0 -0)
(120287.686632321 -0 -0)
(123060.453980209 -0 -0)
(125811.518774776 -0 -0)
(128542.980112918 -0 -0)
(131256.777718369 -0 -0)
(133954.712843664 -0 -0)
(136638.454765808 -0 -0)
(139309.570040364 -0 -0)
(141965.394853561 -0 -0)
(144602.445088802 -0 -0)
(147221.162825992 -0 -0)
(149822.775258623 -0 -0)
(152408.405161186 -0 -0)
(154979.10229092 -0 -0)
(157535.829459501 -0 -0)
(160079.493700938 -0 -0)
(162610.929331918 -0 -0)
(165130.927510431 -0 -0)
(167640.218020327 -0 -0)
(170139.497425533 -0 -0)
(172629.410496073 -0 -0)
(175110.576452182 -0 -0)
(177583.571420251 -0 -0)
(180048.952547045 -0 -0)
(182506.193948774 -0 -0)
(184952.544818353 -0 -0)
(187386.313992251 -0 -0)
(189807.987612293 -0 -0)
(192218.016519319 -0 -0)
(194616.839103871 -0 -0)
(197004.86294213 -0 -0)
(199382.486784165 -0 -0)
(201750.082031327 -0 -0)
(204108.014291406 -0 -0)
(206456.624675395 -0 -0)
(208796.251746169 -0 -0)
(211127.209346318 -0 -0)
(213449.81438208 -0 -0)
(215764.3573575 -0 -0)
(218071.138838882 -0 -0)
(220370.428800704 -0 -0)
(222662.512446292 -0 -0)
(224947.644933903 -0 -0)
(227226.09567873 -0 -0)
(229498.107255105 -0 -0)
(231763.937834771 -0 -0)
(234023.817477209 -0 -0)
(236277.960870201 -0 -0)
(238524.358719567 -0 -0)
(240761.426941985 -0 -0)
(242989.28515124 -0 -0)
(245208.177204698 -0 -0)
(247418.31482994 -0 -0)
(249619.930715312 -0 -0)
(251813.223943131 -0 -0)
(253998.414861091 -0 -0)
(256175.689882669 -0 -0)
(258345.257876778 -0 -0)
(260507.294713048 -0 -0)
(262662.00031795 -0 -0)
(264809.541153104 -0 -0)
(266950.107904415 -0 -0)
(269083.858376437 -0 -0)
(271210.974743479 -0 -0)
(273331.60645279 -0 -0)
(275445.927914114 -0 -0)
(277554.081537445 -0 -0)
(279656.233117657 -0 -0)
(281752.514895648 -0 -0)
(283843.084907196 -0 -0)
(285928.068710675 -0 -0)
(288007.618044831 -0 -0)
(290081.852036141 -0 -0)
(292150.917098064 -0 -0)
(294214.92018094 -0 -0)
(296273.995963009 -0 -0)
(298328.24660819 -0 -0)
(300377.799095706 -0 -0)
(302422.741016964 -0 -0)
(304463.189341297 -0 -0)
(306499.148263499 -0 -0)
(308529.923735972 -0 -0)
(310552.914648244 -0 -0)
)
;

boundaryField
{
    electrode
    {
        type            calculated;
        value           uniform (4.18268718476611 -0 -0);
    }
    ground
    {
        type            calculated;
        value           uniform (311561.602011754 -0 -0);
    }
    otherfaces
    {
        type            empty;
    }
}


// ************************************************************************* //
