/*--------------------------------*- C++ -*----------------------------------*\
| =========                 |                                                 |
| \\      /  F ield         | foam-extend: Open Source CFD                    |
|  \\    /   O peration     | Version:     4.0                                |
|   \\  /    A nd           | Web:         http://www.foam-extend.org         |
|    \\/     M anipulation  |                                                 |
\*---------------------------------------------------------------------------*/
FoamFile
{
    version     2.0;
    format      ascii;
    class       volScalarField;
    location    "9.3e-06";
    object      electron;
}
// * * * * * * * * * * * * * * * * * * * * * * * * * * * * * * * * * * * * * //

dimensions      [0 0 0 1 0 0 0];

internalField   nonuniform List<scalar> 
300
(
6.83326633096789e+16
6.8330742534912e+16
6.83258681544706e+16
6.83176483134767e+16
6.83061459536909e+16
6.82913363537579e+16
6.82732135840115e+16
6.8251777139525e+16
6.82270238943451e+16
6.81989512298046e+16
6.81675563670778e+16
6.81328363062653e+16
6.80947878947603e+16
6.80534078064711e+16
6.80086925442314e+16
6.79606384417519e+16
6.79092416640234e+16
6.78544982084678e+16
6.779640390607e+16
6.7734954422585e+16
6.76701452598481e+16
6.76019717571633e+16
6.75304290927798e+16
6.74555122854585e+16
6.73772161961188e+16
6.72955355295722e+16
6.72104648363434e+16
6.71219985145639e+16
6.70301308119591e+16
6.69348558279174e+16
6.68361675156343e+16
6.67340596843395e+16
6.66285260016112e+16
6.65195599957609e+16
6.64071550582934e+16
6.62913044464577e+16
6.6172001285865e+16
6.60492385731811e+16
6.59230091788968e+16
6.57933058501686e+16
6.56601212137343e+16
6.55234477788964e+16
6.53832779405778e+16
6.52396039824406e+16
6.50924180800772e+16
6.49417123042633e+16
6.47874786242728e+16
6.46297089112562e+16
6.4468394941677e+16
6.4303528400811e+16
6.41351008863012e+16
6.39631039117599e+16
6.3787528910428e+16
6.36083672388847e+16
6.34256101808047e+16
6.32392489507604e+16
6.30492746980692e+16
6.28556785106788e+16
6.26584514190898e+16
6.24575844003159e+16
6.22530683818716e+16
6.20448942457978e+16
6.18330528327137e+16
6.16175349458803e+16
6.13983313552946e+16
6.11754328018005e+16
6.09488300012052e+16
6.0718513648408e+16
6.04844744215396e+16
6.02467029861003e+16
6.00051899990908e+16
5.97599261131435e+16
5.95109019806388e+16
5.92581082578025e+16
5.9001535608791e+16
5.87411747097418e+16
5.84770162527966e+16
5.8209050950089e+16
5.79372695376872e+16
5.76616627794902e+16
5.738222147107e+16
5.70989364434524e+16
5.6811798566826e+16
5.65207987541796e+16
5.6225927964857e+16
5.59271772080229e+16
5.56245375460287e+16
5.53180000976651e+16
5.50075560413041e+16
5.46931966179137e+16
5.43749131339314e+16
5.40526969639962e+16
5.3726539553517e+16
5.33964324210702e+16
5.30623671606105e+16
5.27243354434887e+16
5.23823290202534e+16
5.20363397222237e+16
5.16863594628174e+16
5.13323802386138e+16
5.09743941301389e+16
5.06123933023511e+16
5.0246370004801e+16
4.98763165714306e+16
4.95022254199879e+16
4.91240890511221e+16
4.874190004715e+16
4.83556510700085e+16
4.79653348579653e+16
4.75709442234061e+16
4.71724720548742e+16
4.67699113114923e+16
4.63632549873576e+16
4.59524961018086e+16
4.55376278478482e+16
4.51186436201134e+16
4.46955360162994e+16
4.42682955691782e+16
4.3836911086012e+16
4.34013708109278e+16
4.2961662931483e+16
4.25177756529464e+16
4.2069697204702e+16
4.16174158266021e+16
4.11609197485212e+16
4.07001971669164e+16
4.02352362190826e+16
3.97660249551313e+16
3.92925513075322e+16
3.88148030579972e+16
3.83327678014577e+16
3.78464329068674e+16
3.73557854745199e+16
3.68608122895483e+16
3.63614997712518e+16
3.58578339178351e+16
3.53498002461266e+16
3.48373837257941e+16
3.43205687075178e+16
3.37993388445491e+16
3.32736770070231e+16
3.27435651883346e+16
3.22089844028404e+16
3.1669914574083e+16
3.1126334412695e+16
3.05782212830491e+16
3.00255510578139e+16
2.94682979592293e+16
2.89064343866645e+16
2.83399307284623e+16
2.77687551595404e+16
2.71928734196081e+16
2.66122485806821e+16
2.60268407868968e+16
2.54366069997148e+16
2.48415006921166e+16
2.42414715994736e+16
2.36364653492566e+16
2.30264232929799e+16
2.24112820216754e+16
2.17909733975324e+16
2.11654238047612e+16
2.05345541681829e+16
1.98982774358828e+16
1.92564928411861e+16
1.86090657751152e+16
1.79557186120193e+16
1.72959412075809e+16
1.662913756376e+16
1.59548127341296e+16
1.52725712524472e+16
1.45820203663994e+16
1.38827166946647e+16
1.31742010514474e+16
1.2456104721906e+16
1.17284174581803e+16
1.09917737675996e+16
1.02473306121629e+16
9.49666594266576e+15
8.74230709648554e+15
7.98789420058847e+15
7.23783385084304e+15
6.49756826879803e+15
5.77360241572473e+15
5.07295145978406e+15
4.40302099199036e+15
3.77131777685309e+15
3.18477837422778e+15
2.64935509528098e+15
2.16952866714029e+15
1.74783609488108e+15
1.38479142040991e+15
1.0789205073806e+15
826862931285233
623813612169956
463724162003199
340160428469779
246778665832155
177417465308853
126475149646319
87905918376929.6
59577583783584.5
39648266091284.1
25374221598387.5
15517348994889.8
9240379730990.18
5573738851903.11
3558764305698.15
2472431576308.98
1878773880591.22
1545256404994.8
1352934933349.53
1240309778028.74
1174455672696.4
1136954327950
1116941252941.06
1107618401688.24
1104562897946.56
1104783451857.37
1106695600029.61
1109015991076.82
1110823851162.89
1111564145151.76
1110949766591
1108715024971.17
1104737809162.9
1098977254976.4
1091451585451.63
1082219709032.97
1071369722434.94
1059010183269.03
1045263449230.6
1030260441937.19
1014136512695
997028160889.436
979070440281.384
960394776199.941
941127180980.938
921384000780.007
901264752691.806
880867704030.507
860295081670.059
839641633363.426
818995107064.179
798434833159.805
778031490796.325
757847365520.693
737936737545.541
718346341027.79
699115860085.434
680278448207.419
661861281159.875
643886176354.89
626370273644.497
609326114436.896
592763980675.93
576687658270.275
561094137856.563
545982749779.507
531351899271.87
517195721933.861
503506710438.958
490275851674.546
477493179197.391
465148121547.501
453229735553.839
441726960458.25
430628487591.716
419922675378.419
409597699887.738
399641086672.351
390040203157.619
380770745422.801
371808319124.923
363141573969.83
354761502706.27
346660367752.224
338831055970.914
331267076763.523
323962603879.489
316912530391.751
310112572007.409
303558615438.191
297246483813.614
291155779156.946
285254517105.689
279535076314.397
274011843110.67
268701738366.51
263622871727.949
258743107523.522
254042534712.01
249574292759.201
245368034739.107
241444181554.118
237893933477.361
234851716265.294
232593091469.253
231625097549.609
232784650087.873
)
;

boundaryField
{
    electrode
    {
        type            driftDiffusionElectronDensity;
        seec            0.05;
        Edepend         1;
        field_emission  0;
        field_enhancement_factor 55;
        work_function   5;
        value           uniform 6.8332663309679e+16;
    }
    ground
    {
        type            driftDiffusionElectronDensity;
        seec            0.05;
        Edepend         1;
        field_emission  0;
        field_enhancement_factor 55;
        work_function   5;
        value           uniform 235034420065.638;
    }
    otherfaces
    {
        type            empty;
    }
}


// ************************************************************************* //
