/*--------------------------------*- C++ -*----------------------------------*\
| =========                 |                                                 |
| \\      /  F ield         | foam-extend: Open Source CFD                    |
|  \\    /   O peration     | Version:     4.0                                |
|   \\  /    A nd           | Web:         http://www.foam-extend.org         |
|    \\/     M anipulation  |                                                 |
\*---------------------------------------------------------------------------*/
FoamFile
{
    version     2.0;
    format      ascii;
    class       volVectorField;
    location    "9.3e-06";
    object      J_Arp1;
}
// * * * * * * * * * * * * * * * * * * * * * * * * * * * * * * * * * * * * * //

dimensions      [1 -1 -1 0 0 0 0];

internalField   nonuniform List<vector> 
300
(
(2.16003941457958e+16 -0 -0)
(7.66359077815785e+16 -0 -0)
(1.36247551453071e+17 -0 -0)
(1.89562433368741e+17 -0 -0)
(2.43553045940452e+17 -0 -0)
(2.97871299516719e+17 -0 -0)
(3.52047165068579e+17 -0 -0)
(4.06279102226134e+17 -0 -0)
(4.60537457855658e+17 -0 -0)
(5.14820696915217e+17 -0 -0)
(5.69136009004692e+17 -0 -0)
(6.23485130984436e+17 -0 -0)
(6.77871019155382e+17 -0 -0)
(7.3229661237306e+17 -0 -0)
(7.867647230344e+17 -0 -0)
(8.41278175817759e+17 -0 -0)
(8.95839764559088e+17 -0 -0)
(9.50452254018643e+17 -0 -0)
(1.00511838105652e+18 -0 -0)
(1.0598408513914e+18 -0 -0)
(1.11462233892164e+18 -0 -0)
(1.16946548380527e+18 -0 -0)
(1.22437289131325e+18 -0 -0)
(1.27934712984308e+18 -0 -0)
(1.33439073004215e+18 -0 -0)
(1.3895061826523e+18 -0 -0)
(1.44469593759261e+18 -0 -0)
(1.49996240223878e+18 -0 -0)
(1.55530793981056e+18 -0 -0)
(1.61073486801334e+18 -0 -0)
(1.66624545767817e+18 -0 -0)
(1.7218419310522e+18 -0 -0)
(1.77752646031939e+18 -0 -0)
(1.83330116644792e+18 -0 -0)
(1.88916811750952e+18 -0 -0)
(1.94512932695023e+18 -0 -0)
(2.00118675274517e+18 -0 -0)
(2.05734229532442e+18 -0 -0)
(2.11359779672798e+18 -0 -0)
(2.16995503854577e+18 -0 -0)
(2.22641574108301e+18 -0 -0)
(2.28298156144366e+18 -0 -0)
(2.33965409247232e+18 -0 -0)
(2.39643486120299e+18 -0 -0)
(2.45332532742198e+18 -0 -0)
(2.51032688235034e+18 -0 -0)
(2.56744084734051e+18 -0 -0)
(2.62466847239591e+18 -0 -0)
(2.68201093490431e+18 -0 -0)
(2.73946933811087e+18 -0 -0)
(2.79704471000586e+18 -0 -0)
(2.8547380019948e+18 -0 -0)
(2.91255008748991e+18 -0 -0)
(2.97048176069469e+18 -0 -0)
(3.02853373523297e+18 -0 -0)
(3.08670664300007e+18 -0 -0)
(3.14500103277992e+18 -0 -0)
(3.20341736918197e+18 -0 -0)
(3.26195603127658e+18 -0 -0)
(3.32061731152916e+18 -0 -0)
(3.3794014145429e+18 -0 -0)
(3.43830845568303e+18 -0 -0)
(3.49733846014688e+18 -0 -0)
(3.55649136197446e+18 -0 -0)
(3.6157670024163e+18 -0 -0)
(3.67516512929334e+18 -0 -0)
(3.73468539566893e+18 -0 -0)
(3.79432735892473e+18 -0 -0)
(3.85409047934802e+18 -0 -0)
(3.91397411946309e+18 -0 -0)
(3.97397754282019e+18 -0 -0)
(4.0340999128994e+18 -0 -0)
(4.09434029219479e+18 -0 -0)
(4.15469764130264e+18 -0 -0)
(4.21517081751893e+18 -0 -0)
(4.27575857451545e+18 -0 -0)
(4.33645956067121e+18 -0 -0)
(4.39727231870445e+18 -0 -0)
(4.45819528425273e+18 -0 -0)
(4.5192267852691e+18 -0 -0)
(4.58036504082431e+18 -0 -0)
(4.64160816033233e+18 -0 -0)
(4.70295414265449e+18 -0 -0)
(4.76440087503398e+18 -0 -0)
(4.8259461322012e+18 -0 -0)
(4.8875875754206e+18 -0 -0)
(4.94932275158769e+18 -0 -0)
(5.01114909248888e+18 -0 -0)
(5.07306391337405e+18 -0 -0)
(5.13506441255765e+18 -0 -0)
(5.19714766996964e+18 -0 -0)
(5.25931064646503e+18 -0 -0)
(5.32155018267079e+18 -0 -0)
(5.38386299808205e+18 -0 -0)
(5.44624568994561e+18 -0 -0)
(5.50869473209536e+18 -0 -0)
(5.57120647400158e+18 -0 -0)
(5.63377713950324e+18 -0 -0)
(5.69640282574737e+18 -0 -0)
(5.75907950187057e+18 -0 -0)
(5.82180300769935e+18 -0 -0)
(5.88456905232338e+18 -0 -0)
(5.9473732127067e+18 -0 -0)
(6.01021093304962e+18 -0 -0)
(6.07307752352832e+18 -0 -0)
(6.13596815404623e+18 -0 -0)
(6.19887784991518e+18 -0 -0)
(6.26180151075584e+18 -0 -0)
(6.3247339394705e+18 -0 -0)
(6.38766973117572e+18 -0 -0)
(6.45060305823839e+18 -0 -0)
(6.51352819642614e+18 -0 -0)
(6.57644088237702e+18 -0 -0)
(6.63933581122362e+18 -0 -0)
(6.70219861210487e+18 -0 -0)
(6.76501652760273e+18 -0 -0)
(6.8278231316262e+18 -0 -0)
(6.89065279215767e+18 -0 -0)
(6.95350944795305e+18 -0 -0)
(7.01638575876307e+18 -0 -0)
(7.07927338944145e+18 -0 -0)
(7.14216369268317e+18 -0 -0)
(7.20504778537138e+18 -0 -0)
(7.26791662040726e+18 -0 -0)
(7.33076099273229e+18 -0 -0)
(7.39357153556688e+18 -0 -0)
(7.45633871421567e+18 -0 -0)
(7.51905281906901e+18 -0 -0)
(7.58170395810002e+18 -0 -0)
(7.64428204905728e+18 -0 -0)
(7.70677681134684e+18 -0 -0)
(7.76917775704164e+18 -0 -0)
(7.8314741821257e+18 -0 -0)
(7.89365515664657e+18 -0 -0)
(7.95570951455799e+18 -0 -0)
(8.01762584310476e+18 -0 -0)
(8.07939247140801e+18 -0 -0)
(8.1409974584215e+18 -0 -0)
(8.20242858054644e+18 -0 -0)
(8.26367331801562e+18 -0 -0)
(8.32471884093554e+18 -0 -0)
(8.38555199425597e+18 -0 -0)
(8.44615928193261e+18 -0 -0)
(8.50652685064854e+18 -0 -0)
(8.56664047067078e+18 -0 -0)
(8.62648552229181e+18 -0 -0)
(8.68604696146287e+18 -0 -0)
(8.74530933829626e+18 -0 -0)
(8.80425667873919e+18 -0 -0)
(8.86287268660206e+18 -0 -0)
(8.92114022063747e+18 -0 -0)
(8.97904234119166e+18 -0 -0)
(9.03656004663002e+18 -0 -0)
(9.09367680768826e+18 -0 -0)
(9.15036947467689e+18 -0 -0)
(9.20662585800213e+18 -0 -0)
(9.26241120042408e+18 -0 -0)
(9.31773078165906e+18 -0 -0)
(9.37251490616505e+18 -0 -0)
(9.42682542274476e+18 -0 -0)
(9.48049493414467e+18 -0 -0)
(9.53373733447884e+18 -0 -0)
(9.58614789025409e+18 -0 -0)
(9.63829148497455e+18 -0 -0)
(9.68927693845151e+18 -0 -0)
(9.73979488687288e+18 -0 -0)
(9.79060705258817e+18 -0 -0)
(9.83948556799048e+18 -0 -0)
(9.88794624422821e+18 -0 -0)
(9.93627164794664e+18 -0 -0)
(9.98286305643545e+18 -0 -0)
(1.00305088580135e+19 -0 -0)
(1.00750024870769e+19 -0 -0)
(1.01217460319912e+19 -0 -0)
(1.0164924420937e+19 -0 -0)
(1.02081899308489e+19 -0 -0)
(1.02482917173314e+19 -0 -0)
(1.02952579652418e+19 -0 -0)
(1.03297248781776e+19 -0 -0)
(1.03678732789213e+19 -0 -0)
(1.04116186997784e+19 -0 -0)
(1.04420556070942e+19 -0 -0)
(1.04747146013408e+19 -0 -0)
(1.05155699017393e+19 -0 -0)
(1.05364674014131e+19 -0 -0)
(1.05713218481342e+19 -0 -0)
(1.05973049677473e+19 -0 -0)
(1.06235045222121e+19 -0 -0)
(1.06433498943154e+19 -0 -0)
(1.0675436070177e+19 -0 -0)
(1.06893247623145e+19 -0 -0)
(1.0716651210401e+19 -0 -0)
(1.07375618187277e+19 -0 -0)
(1.07671421018982e+19 -0 -0)
(1.07880423172953e+19 -0 -0)
(1.08253685522537e+19 -0 -0)
(1.08592490391053e+19 -0 -0)
(1.09133914311598e+19 -0 -0)
(1.09754094581004e+19 -0 -0)
(1.10730638502999e+19 -0 -0)
(1.12217695888473e+19 -0 -0)
(1.14178439838888e+19 -0 -0)
(1.16718012680699e+19 -0 -0)
(1.19520928406753e+19 -0 -0)
(1.21822428683276e+19 -0 -0)
(1.23966737504016e+19 -0 -0)
(1.25762479700639e+19 -0 -0)
(1.26978585948992e+19 -0 -0)
(1.27913878180183e+19 -0 -0)
(1.28642574643109e+19 -0 -0)
(1.29272696945575e+19 -0 -0)
(1.29813148590968e+19 -0 -0)
(1.30331731504207e+19 -0 -0)
(1.30796386554741e+19 -0 -0)
(1.31274789988429e+19 -0 -0)
(1.31727347776638e+19 -0 -0)
(1.32194677199824e+19 -0 -0)
(1.32644352584156e+19 -0 -0)
(1.33114456131379e+19 -0 -0)
(1.3356805578055e+19 -0 -0)
(1.3404413011805e+19 -0 -0)
(1.34502539913141e+19 -0 -0)
(1.34982861337935e+19 -0 -0)
(1.35442893601156e+19 -0 -0)
(1.35925848274258e+19 -0 -0)
(1.36378443431702e+19 -0 -0)
(1.36864804824405e+19 -0 -0)
(1.37313066228793e+19 -0 -0)
(1.37794657939784e+19 -0 -0)
(1.38234948564617e+19 -0 -0)
(1.3870897503919e+19 -0 -0)
(1.39138414455861e+19 -0 -0)
(1.39602341237565e+19 -0 -0)
(1.40018612719213e+19 -0 -0)
(1.40470317259411e+19 -0 -0)
(1.40871502548815e+19 -0 -0)
(1.41309223433046e+19 -0 -0)
(1.4169380579126e+19 -0 -0)
(1.42116113033256e+19 -0 -0)
(1.42482980741445e+19 -0 -0)
(1.42889175470039e+19 -0 -0)
(1.43236807784019e+19 -0 -0)
(1.43624719090534e+19 -0 -0)
(1.43956530134202e+19 -0 -0)
(1.44327089649856e+19 -0 -0)
(1.44640249265451e+19 -0 -0)
(1.44994224466064e+19 -0 -0)
(1.45289080067019e+19 -0 -0)
(1.4562687888944e+19 -0 -0)
(1.45903915223123e+19 -0 -0)
(1.46226075881444e+19 -0 -0)
(1.46485893836753e+19 -0 -0)
(1.46793151295207e+19 -0 -0)
(1.47036209571781e+19 -0 -0)
(1.47329507240658e+19 -0 -0)
(1.47556289972138e+19 -0 -0)
(1.47836863950947e+19 -0 -0)
(1.48047874368253e+19 -0 -0)
(1.48316654109697e+19 -0 -0)
(1.48512802294121e+19 -0 -0)
(1.48770437281231e+19 -0 -0)
(1.48952583799553e+19 -0 -0)
(1.49200025582316e+19 -0 -0)
(1.49368815604999e+19 -0 -0)
(1.49607230759961e+19 -0 -0)
(1.49747066579474e+19 -0 -0)
(1.50008521728072e+19 -0 -0)
(1.50121019770017e+19 -0 -0)
(1.5037511838035e+19 -0 -0)
(1.50475556998061e+19 -0 -0)
(1.50723172520491e+19 -0 -0)
(1.50812158879288e+19 -0 -0)
(1.51053841840658e+19 -0 -0)
(1.51131780420897e+19 -0 -0)
(1.51368023777328e+19 -0 -0)
(1.51435406185157e+19 -0 -0)
(1.51666874107389e+19 -0 -0)
(1.5172420792324e+19 -0 -0)
(1.51951365857296e+19 -0 -0)
(1.51999111407857e+19 -0 -0)
(1.52222385518975e+19 -0 -0)
(1.52260908437982e+19 -0 -0)
(1.52480702622369e+19 -0 -0)
(1.52510443869366e+19 -0 -0)
(1.52726903618811e+19 -0 -0)
(1.52747721285974e+19 -0 -0)
(1.5296102046799e+19 -0 -0)
(1.52973157675458e+19 -0 -0)
(1.53183571750627e+19 -0 -0)
(1.53187253191152e+19 -0 -0)
(1.53395081648219e+19 -0 -0)
(1.53389569707499e+19 -0 -0)
(1.53594111776686e+19 -0 -0)
(1.535796383769e+19 -0 -0)
(1.53780698148003e+19 -0 -0)
(1.53756014534647e+19 -0 -0)
(1.53952958165333e+19 -0 -0)
(1.53906584133053e+19 -0 -0)
(1.54116092219639e+19 -0 -0)
(1.538519300517e+19 -0 -0)
)
;

boundaryField
{
    electrode
    {
        type            calculated;
        value           uniform (-13791914943.9601 -0 -0);
    }
    ground
    {
        type            calculated;
        value           uniform (1.54142115524126e+19 -0 -0);
    }
    otherfaces
    {
        type            empty;
    }
}


// ************************************************************************* //
