/*--------------------------------*- C++ -*----------------------------------*\
| =========                 |                                                 |
| \\      /  F ield         | foam-extend: Open Source CFD                    |
|  \\    /   O peration     | Version:     4.0                                |
|   \\  /    A nd           | Web:         http://www.foam-extend.org         |
|    \\/     M anipulation  |                                                 |
\*---------------------------------------------------------------------------*/
FoamFile
{
    version     2.0;
    format      ascii;
    class       volVectorField;
    location    "9.3e-06";
    object      J_electron;
}
// * * * * * * * * * * * * * * * * * * * * * * * * * * * * * * * * * * * * * //

dimensions      [1 -1 -1 0 0 0 0];

internalField   nonuniform List<vector> 
300
(
(-1.34261323403031e+19 0 0)
(-1.37819073022816e+19 0 0)
(-1.62964252827424e+19 0 0)
(-1.57868706213207e+19 0 0)
(-1.577988292009e+19 0 0)
(-1.57651095832473e+19 0 0)
(-1.56959669086862e+19 0 0)
(-1.56437449775852e+19 0 0)
(-1.55890927981809e+19 0 0)
(-1.55337110333512e+19 0 0)
(-1.54787113156243e+19 0 0)
(-1.54235768951327e+19 0 0)
(-1.53684037857093e+19 0 0)
(-1.53131974871073e+19 0 0)
(-1.52579441452753e+19 0 0)
(-1.52026442244902e+19 0 0)
(-1.51472946000993e+19 0 0)
(-1.50918921996677e+19 0 0)
(-1.50364343946033e+19 0 0)
(-1.49809183037987e+19 0 0)
(-1.4925341234949e+19 0 0)
(-1.48697004022601e+19 0 0)
(-1.48139931760641e+19 0 0)
(-1.47582168061029e+19 0 0)
(-1.47023687524245e+19 0 0)
(-1.46464463206169e+19 0 0)
(-1.45904469730017e+19 0 0)
(-1.45343681983637e+19 0 0)
(-1.44782074761406e+19 0 0)
(-1.44219623262152e+19 0 0)
(-1.43656303587016e+19 0 0)
(-1.43092091845846e+19 0 0)
(-1.42526964119127e+19 0 0)
(-1.41960897701595e+19 0 0)
(-1.41393870295221e+19 0 0)
(-1.40825858880877e+19 0 0)
(-1.40256842653155e+19 0 0)
(-1.39686799426561e+19 0 0)
(-1.39115709267465e+19 0 0)
(-1.38543550909616e+19 0 0)
(-1.37970305110311e+19 0 0)
(-1.37395952041541e+19 0 0)
(-1.36820472938365e+19 0 0)
(-1.36243849316267e+19 0 0)
(-1.35666063233906e+19 0 0)
(-1.35087097208531e+19 0 0)
(-1.34506934347809e+19 0 0)
(-1.33925558071274e+19 0 0)
(-1.33342952866479e+19 0 0)
(-1.32759103067081e+19 0 0)
(-1.32173993794952e+19 0 0)
(-1.31587610960155e+19 0 0)
(-1.30999940664947e+19 0 0)
(-1.30410969781581e+19 0 0)
(-1.29820685499847e+19 0 0)
(-1.29229075838353e+19 0 0)
(-1.28636128893857e+19 0 0)
(-1.28041833809662e+19 0 0)
(-1.27446179829997e+19 0 0)
(-1.26849157033658e+19 0 0)
(-1.26250756184133e+19 0 0)
(-1.25650967971831e+19 0 0)
(-1.25049783715318e+19 0 0)
(-1.24447196200155e+19 0 0)
(-1.23843197290737e+19 0 0)
(-1.23237780365902e+19 0 0)
(-1.22630938674261e+19 0 0)
(-1.22022666671801e+19 0 0)
(-1.21412958298316e+19 0 0)
(-1.20801808672049e+19 0 0)
(-1.20189213153081e+19 0 0)
(-1.19575167299066e+19 0 0)
(-1.18959667133491e+19 0 0)
(-1.18342709664594e+19 0 0)
(-1.17724290709402e+19 0 0)
(-1.17104408452562e+19 0 0)
(-1.16483059395812e+19 0 0)
(-1.15860241758604e+19 0 0)
(-1.1523595302952e+19 0 0)
(-1.14610191631379e+19 0 0)
(-1.13982955378683e+19 0 0)
(-1.13354242608862e+19 0 0)
(-1.12724051879563e+19 0 0)
(-1.1209238135712e+19 0 0)
(-1.11459229398535e+19 0 0)
(-1.10824594158078e+19 0 0)
(-1.10188473325616e+19 0 0)
(-1.09550865301703e+19 0 0)
(-1.08911766631591e+19 0 0)
(-1.08271175100814e+19 0 0)
(-1.07629086843056e+19 0 0)
(-1.06985497955994e+19 0 0)
(-1.0634040340096e+19 0 0)
(-1.05693797881967e+19 0 0)
(-1.05045675007667e+19 0 0)
(-1.04396026990858e+19 0 0)
(-1.03744845411459e+19 0 0)
(-1.03092119996507e+19 0 0)
(-1.02437839402948e+19 0 0)
(-1.01781990528574e+19 0 0)
(-1.0112455828233e+19 0 0)
(-1.00465525451884e+19 0 0)
(-9.98048721610106e+18 0 0)
(-9.91425763009836e+18 0 0)
(-9.84786168548898e+18 0 0)
(-9.78129668909826e+18 0 0)
(-9.71455776750043e+18 0 0)
(-9.64763966699314e+18 0 0)
(-9.5805476064833e+18 0 0)
(-9.51329050426763e+18 0 0)
(-9.44581808050353e+18 0 0)
(-9.37803383062921e+18 0 0)
(-9.31014360556791e+18 0 0)
(-9.24266641603166e+18 0 0)
(-9.17452751740653e+18 0 0)
(-9.10202922469897e+18 0 0)
(-9.02752479979661e+18 0 0)
(-8.95599897743406e+18 0 0)
(-8.88620174416753e+18 0 0)
(-8.8163735709192e+18 0 0)
(-8.74626171590043e+18 0 0)
(-8.6757860561592e+18 0 0)
(-8.60491131381927e+18 0 0)
(-8.53361543676533e+18 0 0)
(-8.46187749534492e+18 0 0)
(-8.38967512203946e+18 0 0)
(-8.31698365787826e+18 0 0)
(-8.24377573515461e+18 0 0)
(-8.17002097109264e+18 0 0)
(-8.0956856293104e+18 0 0)
(-8.02073231736334e+18 0 0)
(-7.94511943098224e+18 0 0)
(-7.86880090162384e+18 0 0)
(-7.79172553781779e+18 0 0)
(-7.71383648641561e+18 0 0)
(-7.63507062155824e+18 0 0)
(-7.55535776726909e+18 0 0)
(-7.47461983765529e+18 0 0)
(-7.39277001203804e+18 0 0)
(-7.309711530834e+18 0 0)
(-7.22533659303005e+18 0 0)
(-7.13952493071499e+18 0 0)
(-7.05214222311411e+18 0 0)
(-6.9630384597243e+18 0 0)
(-6.87204555598332e+18 0 0)
(-6.77897600050187e+18 0 0)
(-6.68361783461387e+18 0 0)
(-6.58573742061912e+18 0 0)
(-6.48506300550244e+18 0 0)
(-6.38130912286055e+18 0 0)
(-6.27411332270391e+18 0 0)
(-6.16315080028769e+18 0 0)
(-6.04789202319154e+18 0 0)
(-5.92805416708289e+18 0 0)
(-5.80273245769538e+18 0 0)
(-5.67197798382017e+18 0 0)
(-5.53392682976569e+18 0 0)
(-5.38985960050367e+18 0 0)
(-5.23538834305162e+18 0 0)
(-5.07515849187682e+18 0 0)
(-4.89877626178922e+18 0 0)
(-4.71708719865817e+18 0 0)
(-4.50469951837097e+18 0 0)
(-4.26725811455263e+18 0 0)
(-3.92758178952511e+18 0 0)
(-3.1420740798597e+18 0 0)
(-2.3052331125257e+18 0 0)
(-2.08746585297256e+18 0 0)
(-2.03280826151888e+18 0 0)
(-1.73408857109614e+18 0 0)
(-1.13000027906481e+18 0 0)
(-4.34745962369384e+17 0 0)
(2.00020649059549e+17 0 0)
(6.30731432689402e+17 0 0)
(2.82588721455301e+17 0 0)
(-4.04149057438614e+17 0 0)
(-2.89638262809559e+16 0 0)
(6.64795035058831e+16 0 0)
(-1.64849493403396e+18 0 0)
(-2.2629273933206e+18 0 0)
(-2.26675332699547e+18 0 0)
(-3.92827724042967e+18 0 0)
(-4.33992633440272e+18 0 0)
(-3.76975175304138e+18 0 0)
(-3.91798607628678e+18 0 0)
(-2.83080117886701e+18 0 0)
(-8.05507705097683e+17 0 0)
(1.25594841268512e+18 0 0)
(4.31559220226635e+18 0 0)
(7.53834421000864e+18 0 0)
(1.01363170992188e+19 0 0)
(1.23869920406536e+19 0 0)
(1.40090526110313e+19 0 0)
(1.4154504943705e+19 0 0)
(1.47276833459698e+19 0 0)
(1.21748481486142e+19 0 0)
(1.05323994565445e+19 0 0)
(8.44935114923298e+18 0 0)
(6.1774088787272e+18 0 0)
(8.76883501998067e+18 0 0)
(-4.86421362823289e+18 0 0)
(2.53449162804435e+18 0 0)
(-6.62338392944591e+17 0 0)
(-2.1088610534673e+18 0 0)
(-2.02938148006185e+18 0 0)
(-1.99277696113645e+18 0 0)
(-2.15464968782076e+18 0 0)
(-2.45824417875133e+18 0 0)
(-2.72587790343964e+18 0 0)
(-2.88829855530356e+18 0 0)
(-2.96238584116348e+18 0 0)
(-2.98383196353858e+18 0 0)
(-2.97463100841095e+18 0 0)
(-2.95122183804546e+18 0 0)
(-2.91710216655066e+18 0 0)
(-2.88314539050395e+18 0 0)
(-2.84288295740885e+18 0 0)
(-2.79846211748748e+18 0 0)
(-2.75242074156468e+18 0 0)
(-2.70636602158364e+18 0 0)
(-2.66075823539095e+18 0 0)
(-2.61373411935264e+18 0 0)
(-2.56684505434277e+18 0 0)
(-2.51993592769814e+18 0 0)
(-2.47253033265324e+18 0 0)
(-2.42511648426137e+18 0 0)
(-2.37775165670248e+18 0 0)
(-2.33056884381048e+18 0 0)
(-2.28366053366363e+18 0 0)
(-2.23711395569537e+18 0 0)
(-2.19100760292942e+18 0 0)
(-2.14541298197761e+18 0 0)
(-2.10039473688883e+18 0 0)
(-2.0560103983622e+18 0 0)
(-2.01231105861068e+18 0 0)
(-1.96933928691805e+18 0 0)
(-1.92713413420149e+18 0 0)
(-1.88569431995384e+18 0 0)
(-1.84504032552795e+18 0 0)
(-1.8054517932751e+18 0 0)
(-1.7665803317458e+18 0 0)
(-1.72860453172141e+18 0 0)
(-1.69150038259105e+18 0 0)
(-1.65527935569325e+18 0 0)
(-1.61994544823987e+18 0 0)
(-1.58549549634299e+18 0 0)
(-1.55192315435439e+18 0 0)
(-1.51921909449719e+18 0 0)
(-1.48737177428753e+18 0 0)
(-1.45636757226253e+18 0 0)
(-1.42619153696743e+18 0 0)
(-1.39682749959545e+18 0 0)
(-1.36826061328666e+18 0 0)
(-1.34046908149552e+18 0 0)
(-1.31346133505437e+18 0 0)
(-1.28711072006209e+18 0 0)
(-1.2615441492541e+18 0 0)
(-1.23670870479759e+18 0 0)
(-1.21246913464638e+18 0 0)
(-1.1889134390432e+18 0 0)
(-1.16598462911809e+18 0 0)
(-1.14366824754128e+18 0 0)
(-1.12194298447846e+18 0 0)
(-1.10079088368859e+18 0 0)
(-1.08019710370111e+18 0 0)
(-1.06014005265024e+18 0 0)
(-1.04060086218501e+18 0 0)
(-1.02156389918164e+18 0 0)
(-1.00301352045228e+18 0 0)
(-9.84925221590475e+17 0 0)
(-9.67302220015599e+17 0 0)
(-9.49974580928631e+17 0 0)
(-9.33339282763153e+17 0 0)
(-9.16997360686365e+17 0 0)
(-9.01048146063315e+17 0 0)
(-8.85476905978199e+17 0 0)
(-8.70279082405441e+17 0 0)
(-8.55443009533927e+17 0 0)
(-8.40958018732952e+17 0 0)
(-8.26812677002168e+17 0 0)
(-8.12997141344137e+17 0 0)
(-7.9949239723392e+17 0 0)
(-7.86300788578468e+17 0 0)
(-7.73247227834508e+17 0 0)
(-7.60715671470347e+17 0 0)
(-7.48617750136574e+17 0 0)
(-7.36657927015531e+17 0 0)
(-7.24963929194037e+17 0 0)
(-7.13562610840487e+17 0 0)
(-7.02007366500305e+17 0 0)
(-6.91661630294211e+17 0 0)
(-6.81186425141843e+17 0 0)
(-6.70689411738597e+17 0 0)
(-6.60912380254753e+17 0 0)
(-6.51560462743511e+17 0 0)
(-6.42251295906565e+17 0 0)
(-6.34048593966238e+17 0 0)
(-6.2674873116974e+17 0 0)
(-6.20334568699422e+17 0 0)
(-6.09310842161904e+17 0 0)
)
;

boundaryField
{
    electrode
    {
        type            calculated;
        value           uniform (-1.60586547693827e+19 0 0);
    }
    ground
    {
        type            calculated;
        value           uniform (-6.06649161072315e+17 0 0);
    }
    otherfaces
    {
        type            empty;
    }
}


// ************************************************************************* //
