/*--------------------------------*- C++ -*----------------------------------*\
| =========                 |                                                 |
| \\      /  F ield         | foam-extend: Open Source CFD                    |
|  \\    /   O peration     | Version:     4.0                                |
|   \\  /    A nd           | Web:         http://www.foam-extend.org         |
|    \\/     M anipulation  |                                                 |
\*---------------------------------------------------------------------------*/
FoamFile
{
    version     2.0;
    format      ascii;
    class       volScalarField;
    location    "9.3e-06";
    object      N_electronMean;
}
// * * * * * * * * * * * * * * * * * * * * * * * * * * * * * * * * * * * * * //

dimensions      [0 0 0 1 0 0 0];

internalField   nonuniform List<scalar> 
300
(
6.22743148695516e+16
6.22727430644922e+16
6.22685091729056e+16
6.22611689434472e+16
6.22507672503364e+16
6.22372718133693e+16
6.22206671810884e+16
6.22009455974706e+16
6.2178098870673e+16
6.21521208323433e+16
6.21230067154875e+16
6.20907529847179e+16
6.20553572683983e+16
6.20168182438992e+16
6.1975135565551e+16
6.19303097927077e+16
6.18823423279795e+16
6.18312353643837e+16
6.17769918339473e+16
6.1719615359037e+16
6.16591102093689e+16
6.15954812612969e+16
6.15287339585487e+16
6.14588742720393e+16
6.13859086705327e+16
6.13098440976283e+16
6.12306879296877e+16
6.11484479339909e+16
6.10631322346176e+16
6.09747492664808e+16
6.08833077455953e+16
6.07888166611128e+16
6.06912852335151e+16
6.05907228473658e+16
6.04871390030075e+16
6.03805432779451e+16
6.02709452888584e+16
6.01583546568296e+16
6.00427809693322e+16
5.99242337416665e+16
5.98027223853805e+16
5.96782561761303e+16
5.95508442154813e+16
5.94204953960453e+16
5.92872183714847e+16
5.91510215273241e+16
5.90119129538554e+16
5.88699004221024e+16
5.8724991365494e+16
5.85771928670607e+16
5.84265116599451e+16
5.82729541285551e+16
5.81165262886776e+16
5.79572337498228e+16
5.77950816610326e+16
5.76300746551388e+16
5.74622168011526e+16
5.72915115671803e+16
5.7117961792307e+16
5.69415696594448e+16
5.67623366710945e+16
5.65802636269599e+16
5.63953505990294e+16
5.62075969269597e+16
5.60170012378853e+16
5.58235614230102e+16
5.56272745736489e+16
5.54281369436868e+16
5.52261439322583e+16
5.50212900662773e+16
5.48135689829178e+16
5.46029734228105e+16
5.43894952435301e+16
5.41731254113921e+16
5.39538539682327e+16
5.37316700347992e+16
5.35065618277867e+16
5.32785166443391e+16
5.30475208157496e+16
5.28135596796539e+16
5.25766175783753e+16
5.23366778110398e+16
5.20937225876068e+16
5.18477330148765e+16
5.15986890916832e+16
5.13465697194624e+16
5.10913526827699e+16
5.08330146052896e+16
5.05715309321003e+16
5.03068759309157e+16
5.00390226766949e+16
4.97679430652946e+16
4.94936078351929e+16
4.92159865128098e+16
4.89350473612659e+16
4.86507573698639e+16
4.83630822431955e+16
4.80719863908319e+16
4.77774329173562e+16
4.74793836205197e+16
4.71777989887497e+16
4.68726381828016e+16
4.65638590409539e+16
4.62514180989953e+16
4.59352705664234e+16
4.56153703123841e+16
4.52916698682422e+16
4.49641204207855e+16
4.46326718180968e+16
4.42972725556499e+16
4.39578697551953e+16
4.36144091611259e+16
4.32668351455972e+16
4.29150907269551e+16
4.25591175747387e+16
4.21988560128627e+16
4.18342450626956e+16
4.14652224780119e+16
4.10917247395714e+16
4.07136870468489e+16
4.03310433426872e+16
3.99437263494867e+16
3.95516675985562e+16
3.91547974665326e+16
3.87530451673413e+16
3.83463387128324e+16
3.79346049205441e+16
3.75177694406566e+16
3.70957567550384e+16
3.6668490183414e+16
3.62358919092787e+16
3.57978830044804e+16
3.53543834455574e+16
3.49053121273586e+16
3.44505869228649e+16
3.39901247551683e+16
3.35238415933098e+16
3.30516524138799e+16
3.25734711994714e+16
3.20892109624012e+16
3.159878374404e+16
3.11021006076359e+16
3.05990716450209e+16
3.00896059910045e+16
2.95736118786119e+16
2.90509966808678e+16
2.85216668824391e+16
2.79855280363251e+16
2.74424847150749e+16
2.68924405074091e+16
2.63352980627834e+16
2.57709590680762e+16
2.51993242334746e+16
2.46202933259656e+16
2.40337651357009e+16
2.34396375151058e+16
2.2837807458454e+16
2.22281712516116e+16
2.16106244105716e+16
2.09850612767986e+16
2.03513730309498e+16
1.9709436255087e+16
1.90590963727677e+16
1.84001599594642e+16
1.77323935030359e+16
1.70555097598282e+16
1.63691465055596e+16
1.56728949303639e+16
1.49663665052623e+16
1.42492257551579e+16
1.35212088566826e+16
1.27821852007236e+16
1.20322710041709e+16
1.12719765424307e+16
1.05024238384887e+16
9.7255903449541e+15
8.94442647344774e+15
8.16294396160619e+15
7.38635880099748e+15
6.62107771124476e+15
5.87446750090398e+15
5.1545595961669e+15
4.46961053165299e+15
3.82748288990046e+15
3.23506650733065e+15
2.69774489147135e+15
2.21893909696149e+15
1.7999277746199e+15
1.43988959666598e+15
1.1361043579201e+15
884344876790433
679363519556598
515351582600570
386349858020065
286302259864085
209768219946900
152099170701858
109216173093122
77619849703024.4
54349376781597.7
37297750925274.8
25153427107848.2
16640376902794.3
10765031814047.4
6930138410082.58
4598557527224.19
3263831719651.3
2521210723477.08
2105025763982.69
1864545708599.23
1720033547303.11
1629697087656.57
1570963692778.49
1531179228352.08
1502932276130.58
1481662164773.25
1464418083337.24
1449244878900.79
1434895416250.93
1420623669573.49
1405861674854.64
1390219900325.46
1373503991515.92
1355606197891.59
1336491504143.97
1316182362181.19
1294740203430.94
1272252074019.19
1248821584266.86
1224562426615.28
1199593511047.9
1174035772380.09
1148008832241.45
1121629105247.17
1095008378623.16
1068252349260.07
1041459725622.32
1014721973454.56
988122429942.144
961734243349.42
935621755225.583
909843487312.192
884452772528
859497388725.291
835019037035.092
811053109648.765
787628232456.906
764767132560.459
742487168499.226
720800981027.636
699717715742.774
679242998895.525
659378872535.676
640124158573.422
621475032819.769
603426578047.657
585970159380.356
569092588673.209
552782021676.772
537027344311.576
521815444773.774
507131930302.68
492961825262.543
479289671513.514
466099818101.005
453376728986.267
441104303569.782
429266206223.759
417846415945.846
406828874927.62
396197089281.931
385933938900.228
376021810493.386
366446351439.118
357196643157.945
348262644775.687
339635056971.441
331305126362.599
323264837781.596
315506952231.601
308024932362.607
300812422042.935
293862513578.623
287160215455.294
280679727283.665
274406132000.225
268344085982.051
262504502013.882
256899314120.998
251523313814.52
246349627997.845
241383502761.944
236670504137.485
232217404702.909
228050644452.62
224254157672.58
220954481759.123
218412624104.527
217065591710.307
217682324586.721
)
;

boundaryField
{
    electrode
    {
        type            calculated;
        value           uniform 6.22743148696791e+16;
    }
    ground
    {
        type            calculated;
        value           uniform 219523520133.067;
    }
    otherfaces
    {
        type            empty;
    }
}


// ************************************************************************* //
