/*--------------------------------*- C++ -*----------------------------------*\
| =========                 |                                                 |
| \\      /  F ield         | foam-extend: Open Source CFD                    |
|  \\    /   O peration     | Version:     4.0                                |
|   \\  /    A nd           | Web:         http://www.foam-extend.org         |
|    \\/     M anipulation  |                                                 |
\*---------------------------------------------------------------------------*/
FoamFile
{
    version     2.0;
    format      ascii;
    class       volScalarField;
    location    "9.3e-06";
    object      Phi;
}
// * * * * * * * * * * * * * * * * * * * * * * * * * * * * * * * * * * * * * //

dimensions      [0 0 0 1 0 0 0];

internalField   nonuniform List<scalar> 
300
(
699.999930288547
699.999705665171
699.999181075451
699.998388694887
699.997336840491
699.996020096377
699.994439326516
699.992594111482
699.990483890887
699.98810818207
699.98546640728
699.982557937996
699.979382092932
699.975938134655
699.972225270485
699.968242651939
699.963989374308
699.959464476262
699.9546669394
699.949595687781
699.944249587422
699.938627445775
699.932728011165
699.926549972211
699.920091957204
699.913352533466
699.906330206663
699.899023420103
699.891430553981
699.883549924604
699.875379783574
699.866918316935
699.858163644281
699.849113817827
699.839766821437
699.830120569614
699.820172906442
699.809921604486
699.799364363647
699.788498809965
699.777322494377
699.765832891422
699.754027397888
699.741903331414
699.729457929024
699.716688345607
699.703591652335
699.690164835014
699.676404792372
699.662308334271
699.647872179855
699.633092955614
699.617967193376
699.602491328213
699.586661696265
699.57047453247
699.553925968204
699.537012028828
699.519728631123
699.502071580632
699.484036568879
699.46561917048
699.446814840136
699.427618909485
699.40802658384
699.388032938772
699.36763291656
699.346821322478
699.325592820929
699.303941931411
699.281863024303
699.259350316469
699.236397866669
699.212999570761
699.189149156695
699.164840179277
699.140066014699
699.114819854814
699.089094701153
699.062883358665
699.03617842916
699.008972304447
698.981257159148
698.953024943165
698.924267373787
698.894975927415
698.865141830875
698.834756052311
698.803809291619
698.772291970397
698.740194221397
698.707505877421
698.674216459656
698.640315165396
698.605790855116
698.570632038861
698.534826861903
698.498363089617
698.461228091534
698.423408824506
698.384891814929
698.345663139963
698.305708407675
698.265012736034
698.223560730674
698.18133646134
698.138323436975
698.094504579275
698.049862194389
698.004377942825
697.958032808846
697.910807068634
697.862680248946
697.813631076556
697.76363746356
697.712676539285
697.660724488865
697.607756095435
697.553744854644
697.498663151691
697.44248221946
697.385172067197
697.32670140869
697.267037584336
697.206146477179
697.143992422447
697.080538109946
697.015744478638
696.949570602629
696.881973567715
696.812908337514
696.742327608135
696.670181650157
696.596418136582
696.520981955231
696.443815003861
696.364855966074
696.284040065795
696.201298797833
696.11655963168
696.029745685288
695.940775365131
695.849561968298
695.756013241721
695.660030892932
695.56151004586
695.460338634115
695.356396723167
695.249555750935
695.139677675805
695.026614016133
694.91020476978
694.790277183896
694.666644375098
694.539103725889
694.407435121641
694.271398800369
694.130733136352
693.985151610248
693.834340189623
693.677952687121
693.515608183246
693.346883166565
693.171310219815
692.988363196307
692.797460353682
692.597918097559
692.388829955255
692.169126149254
691.937675716505
691.693214159503
691.434289011503
691.159143717192
690.865714456728
690.551536545943
690.213790465319
689.849507038744
689.455433985837
689.027467302158
688.561195120659
688.052343192344
687.495641493981
686.885492562128
686.216725183918
685.483266583413
684.679245873786
683.799269268541
682.837612083491
681.789120587457
680.649639447455
679.41490092083
678.081478381085
676.647247288067
675.110413873247
673.469428799023
671.723847951245
669.873886253174
667.919989236168
665.862442106299
663.701757406557
661.438331646664
659.072994991665
656.605872779834
654.036084946727
651.362924335251
648.585981216168
645.705381067733
642.721667736375
639.635733166444
636.448559439815
633.161151912087
629.774454704994
626.289350500858
622.70661829689
619.027211344193
615.252228269274
611.382685290449
607.419496796356
603.363506181627
599.215466531009
594.976071596642
590.645934523481
586.225619748752
581.715620333903
577.116389431031
572.428315664545
567.652029774127
562.788152658625
557.837285585728
552.799967641384
547.676725241648
542.468027488656
537.174336611015
531.796061241925
526.333607988888
520.78733274123
515.157593454199
509.444699579528
503.648966087794
497.770661149382
491.810061326444
485.767397646246
479.642981729859
473.43722799169
467.150560797042
460.783362150869
454.336026362422
447.80890621061
441.202368832946
434.516740425001
427.752363364192
420.90953947224
413.988588385831
406.989789355829
399.913441096076
392.759801730356
385.529150605577
378.221725807764
370.83778868553
363.377558311344
355.841279023269
348.229151932764
340.541405206263
332.778222743778
324.939817374449
317.026358685766
309.03819345981
300.975596889633
292.838907783061
284.628385075987
276.344353461065
267.987056361632
259.556805198189
251.053828704224
242.478425872677
233.83081151244
225.111272891809
216.320011491244
207.457303481602
198.52333763095
189.51837958984
180.442605981383
171.296272492987
162.079544120443
152.792667057157
143.435795245934
134.009166064113
124.512922918786
114.947294816736
105.31241504913
95.6085046809911
85.8356872425944
75.99417666893
66.0840875117261
56.1056268950515
46.0589009053474
35.9441108272539
25.7613549492602
15.510834276352
5.19269336686091
)
;

boundaryField
{
    electrode
    {
        type            fixedValue;
        value           uniform 700;
    }
    ground
    {
        type            fixedValue;
        value           uniform 0;
    }
    otherfaces
    {
        type            empty;
    }
}


// ************************************************************************* //
