/*--------------------------------*- C++ -*----------------------------------*\
| =========                 |                                                 |
| \\      /  F ield         | foam-extend: Open Source CFD                    |
|  \\    /   O peration     | Version:     4.0                                |
|   \\  /    A nd           | Web:         http://www.foam-extend.org         |
|    \\/     M anipulation  |                                                 |
\*---------------------------------------------------------------------------*/
FoamFile
{
    version     2.0;
    format      ascii;
    class       volScalarField;
    location    "9.3e-06";
    object      PhiMean;
}
// * * * * * * * * * * * * * * * * * * * * * * * * * * * * * * * * * * * * * //

dimensions      [0 0 0 1 0 0 0];

internalField   nonuniform List<scalar> 
300
(
699.992054186002
699.991179503161
699.990026516775
699.98862171658
699.986974112692
699.985077439743
699.982931645379
699.980535856427
699.977889160778
699.974990851475
699.971840253875
699.96843676044
699.964779809838
699.960868879442
699.956703479317
699.952283145171
699.947607432981
699.942675915108
699.937488175535
699.932043805446
699.926342399913
699.920383554448
699.914166861831
699.907691908848
699.900958272703
699.893965523922
699.886713219525
699.879200899717
699.871428086908
699.863394280049
699.855098950451
699.846541548304
699.837721497351
699.828638185049
699.819290959819
699.809679127894
699.799801949865
699.789658638426
699.779248354826
699.76857020459
699.757623235152
699.746406433618
699.734918721607
699.723158952283
699.711125907154
699.698818292936
699.68623473831
699.673373791344
699.660233916744
699.646813495209
699.633110821937
699.619124111436
699.604851490475
699.590290997392
699.57544057046
699.560298042384
699.544861131625
699.529127437673
699.513094436791
699.496759477155
699.480119774446
699.463172407417
699.445914312499
699.428342278485
699.410452953996
699.392242841584
699.373708280124
699.354845439907
699.335650317418
699.316118729615
699.296246307924
699.276028491597
699.255460528664
699.234537471977
699.213254163645
699.191605233684
699.16958510124
699.147187963249
699.124407785637
699.101238283364
699.077672930843
699.053704935098
699.029327225009
699.00453244367
698.979312935852
698.953660747679
698.927567612404
698.901024931366
698.874023761283
698.846554807505
698.818608407842
698.790174517694
698.761242718446
698.731802178347
698.701841634691
698.671349378364
698.640313235274
698.60872054895
698.57655815898
698.5438123832
698.510468997455
698.476513209672
698.441929632869
698.406702276824
698.370814506157
698.334249013482
698.296987794715
698.259012108566
698.22030245323
698.180838523346
698.140599167581
698.099562349467
698.057705102172
698.015003487714
697.971432548849
697.926966249443
697.881577431436
697.835237761631
697.787917659023
697.739586223233
697.690211160174
697.63975871668
697.588193586311
697.535478835448
697.481575794225
697.426443936449
697.370040762339
697.312321684314
697.253239877642
697.192746134278
697.130788701817
697.067313110622
697.002261979784
696.935574803599
696.867187725747
696.797033314645
696.725040267052
696.651133096457
696.575231783788
696.497251417402
696.417101769889
696.334686835475
696.249904319387
696.16264506368
696.07279242299
695.980221570121
695.88479867275
695.786379988991
695.684810832721
695.57992440799
695.471540530928
695.359464109289
695.243483422966
695.123368183872
694.998867249177
694.869705976534
694.735583270017
694.596167921058
694.451094707635
694.299959026224
694.14231190085
693.97765000292
693.805395530064
693.624884167228
693.435351209294
693.235913563722
693.02552619587
692.802956924823
692.566794044095
692.315401708773
692.046861389562
691.758930500403
691.449012827473
691.114095147275
690.750720266962
690.355087455863
689.922969981973
689.449597763568
688.929869158313
688.358393482221
687.729447807052
687.037177555415
686.275823171038
685.439623865118
684.523186175395
683.521645310348
682.430531533798
681.246060867272
679.965332939909
678.585985371103
677.10623946009
675.525144478131
673.842321510007
672.057773741604
670.171697720325
668.184651776357
666.097143066158
663.909597723625
661.622349307699
659.235748205222
656.750125198092
654.165727314872
651.482481394353
648.700388999199
645.819640240089
642.840743112051
639.764414034653
636.591518075561
633.322982154797
629.959705559515
626.502549089119
622.952296149367
619.309725179895
615.575658778534
611.751031310573
607.836735280008
603.833606944049
599.742397767865
595.563814151936
591.298486689572
586.947011026619
582.509914593808
577.98769890139
573.380804264414
568.689653516844
563.914676494871
559.0564886987
554.115655020678
549.09273503134
543.988231153248
538.802646326543
533.53642926699
528.190034827133
522.763867406592
517.258342148544
511.67382438626
506.01069375142
500.269280958776
494.449934358073
488.552954012431
482.578660755065
476.527327816773
470.399273687914
464.194897450239
457.914648834719
451.558926161042
445.128154091224
438.62270567134
432.042982764999
425.389335164451
418.662143869293
411.861737094147
404.988476629852
398.042670510279
391.024662734869
383.934742366622
376.773236800902
369.540417190647
362.236595336269
354.862025414079
347.4170044888
339.901770603226
332.316606867483
324.661735837418
316.937427387175
309.143891455651
301.281426702972
293.350298083772
285.35085199866
277.283382099917
269.148244714954
260.945719385364
252.676150606512
244.339803737128
235.937012153578
227.468027619161
218.933173049077
210.332687179664
201.666883066535
192.935986953832
184.140302592447
175.280044196242
166.355506743792
157.366892851513
148.314489307722
139.198487659868
130.019167093526
120.776708473503
111.471383833456
102.103363694376
92.6729133327433
83.1801934008947
73.6254631515743
64.0088738390918
54.3306790159319
44.5910211650502
34.7901490541949
24.9281969592919
15.0054101685902
5.02192216084076
)
;

boundaryField
{
    electrode
    {
        type            calculated;
        value           uniform 699.999999999376;
    }
    ground
    {
        type            calculated;
        value           uniform 0;
    }
    otherfaces
    {
        type            empty;
    }
}


// ************************************************************************* //
