/*--------------------------------*- C++ -*----------------------------------*\
| =========                 |                                                 |
| \\      /  F ield         | foam-extend: Open Source CFD                    |
|  \\    /   O peration     | Version:     4.0                                |
|   \\  /    A nd           | Web:         http://www.foam-extend.org         |
|    \\/     M anipulation  |                                                 |
\*---------------------------------------------------------------------------*/
FoamFile
{
    version     2.0;
    format      ascii;
    class       volScalarField;
    location    "9.3e-06";
    object      Sy_electron;
}
// * * * * * * * * * * * * * * * * * * * * * * * * * * * * * * * * * * * * * //

dimensions      [1 -3 -1 0 0 0 0];

internalField   nonuniform List<scalar> 
300
(
3.08648803315807e-09
3.08714374766706e-09
3.08736879256511e-09
3.08726081806183e-09
3.08715960448595e-09
3.08699772981712e-09
3.08678307322574e-09
3.08652045407959e-09
3.08620761912974e-09
3.08584469272113e-09
3.08543140916427e-09
3.08496740637564e-09
3.08445236487423e-09
3.08388593680367e-09
3.08326776064083e-09
3.08259746183459e-09
3.08187465126727e-09
3.08109892565216e-09
3.0802698673831e-09
3.07938704442161e-09
3.07845001022648e-09
3.07745830364557e-09
3.07641144882023e-09
3.07530895509519e-09
3.07415031688755e-09
3.07293501365863e-09
3.0716625097391e-09
3.07033225424299e-09
3.06894368097882e-09
3.06749620830872e-09
3.06598923901347e-09
3.06442216024722e-09
3.06279434339191e-09
3.0611051439008e-09
3.0593539011859e-09
3.05753993849616e-09
3.05566256277771e-09
3.05372106454991e-09
3.05171471776014e-09
3.04964277962885e-09
3.04750449050307e-09
3.04529907371534e-09
3.04302573541771e-09
3.04068366441124e-09
3.03827203198843e-09
3.03578999176166e-09
3.03323667947151e-09
3.03061121280925e-09
3.02791269120825e-09
3.02514019567955e-09
3.02229278857578e-09
3.01936951343286e-09
3.01636939468755e-09
3.01329143751102e-09
3.01013462752532e-09
3.00689793058633e-09
3.00358029249889e-09
3.00018063877402e-09
2.99669787435348e-09
2.99313088333206e-09
2.9894785286621e-09
2.98573965184461e-09
2.98191307261472e-09
2.97799758858547e-09
2.97399197496794e-09
2.96989498421742e-09
2.96570534558511e-09
2.96142176476449e-09
2.95704292350058e-09
2.95256747916314e-09
2.94799406430442e-09
2.94332128620208e-09
2.93854772639857e-09
2.93367194021189e-09
2.92869245617328e-09
2.92360777553794e-09
2.91841637171194e-09
2.91311668963419e-09
2.90770714521427e-09
2.90218612458423e-09
2.89655198359294e-09
2.890803046958e-09
2.88493760757735e-09
2.87895392577026e-09
2.87285022843779e-09
2.86662470828759e-09
2.86027552292476e-09
2.85380079389911e-09
2.8471986057342e-09
2.8404670049698e-09
2.8336039990449e-09
2.8266075551478e-09
2.8194755992435e-09
2.81220601462711e-09
2.80479664071212e-09
2.79724527167352e-09
2.78954965503201e-09
2.78170749015647e-09
2.77371642667881e-09
2.76557406287413e-09
2.75727794390927e-09
2.7488255600013e-09
2.74021434446683e-09
2.73144167181885e-09
2.72250485541542e-09
2.71340114524843e-09
2.70412772594971e-09
2.6946817144997e-09
2.68506015581942e-09
2.67526001739969e-09
2.66527819575885e-09
2.65511153103323e-09
2.6447567586075e-09
2.63421039943953e-09
2.62346898233077e-09
2.61252977260229e-09
2.60200511976982e-09
2.59292795109403e-09
2.58366068083695e-09
2.57419851368574e-09
2.56453692144018e-09
2.55467130070721e-09
2.54459692253569e-09
2.53430891287704e-09
2.52380224093224e-09
2.51307170987652e-09
2.50211194762928e-09
2.49091739726932e-09
2.47948230664343e-09
2.46780071741088e-09
2.45586645323113e-09
2.44367310717421e-09
2.4312140281755e-09
2.41848230648467e-09
2.40547075808383e-09
2.39217190799759e-09
2.37857797216392e-09
2.36468083799919e-09
2.35047204350555e-09
2.33594275472098e-09
2.32108374129668e-09
2.30588535020236e-09
2.29033747726739e-09
2.27442953642559e-09
2.25815042645679e-09
2.24148849485204e-09
2.22443149890845e-09
2.20696656279993e-09
2.18908013289681e-09
2.17075792521512e-09
2.15198487685945e-09
2.13274507630952e-09
2.11302172072284e-09
2.09279700716854e-09
2.0720521301218e-09
2.05076706919086e-09
2.02892073339264e-09
2.00649046299939e-09
1.98345261188014e-09
1.95978138173547e-09
1.93545043608513e-09
1.91043084423024e-09
1.88469551164052e-09
1.85822091791258e-09
1.83100382379908e-09
1.80318011417873e-09
1.77486490228062e-09
1.74730243741191e-09
1.71903839131926e-09
1.68953796649269e-09
1.65890404213571e-09
1.62718530952777e-09
1.594270256446e-09
1.55990133247e-09
1.52347500621219e-09
1.48428524386555e-09
1.44251124456594e-09
1.3984725374916e-09
1.3510480770609e-09
1.29977975401433e-09
1.24574459117883e-09
1.18548980034849e-09
1.12180864670064e-09
1.0572317942335e-09
9.92928289495394e-10
9.3044428900053e-10
8.73174733587488e-10
8.1699111768172e-10
7.71174932477429e-10
7.43741903656664e-10
7.21057854112796e-10
7.22622820779067e-10
7.46446902515132e-10
7.95493766196366e-10
8.80904508331968e-10
1.02642311915118e-09
1.2507354194494e-09
1.62538653286725e-09
2.25639579214304e-09
3.38756647948232e-09
4.73452307670228e-09
5.91616486401393e-09
7.19503279468831e-09
7.33492815682518e-09
6.50128385258321e-09
5.21955647957211e-09
3.93575397932142e-09
2.96513413662052e-09
2.30085079404164e-09
1.8821843559401e-09
1.6258253276577e-09
1.47020053098213e-09
1.37544242925146e-09
1.3220295915842e-09
1.29613786299777e-09
1.28117871087325e-09
1.2772736710853e-09
1.2796877000863e-09
1.28518961450262e-09
1.29208719388007e-09
1.29898185304452e-09
1.303515536521e-09
1.30600099080297e-09
1.30675073060112e-09
1.3054688053326e-09
1.30202456941715e-09
1.29637983673461e-09
1.2885640937851e-09
1.2786533007538e-09
1.26675677018562e-09
1.25300714980633e-09
1.23755276719437e-09
1.22055159657139e-09
1.20216648766275e-09
1.1825613714473e-09
1.16189826021904e-09
1.14033471222697e-09
1.11802179868098e-09
1.09509906484934e-09
1.07168559457768e-09
1.04789914288125e-09
1.02386253101912e-09
9.99689490349295e-10
9.75485477785843e-10
9.51345940367224e-10
9.27356046967005e-10
9.03590997066108e-10
8.80116479421493e-10
8.56989213529154e-10
8.34257534747235e-10
8.11962006234416e-10
7.90100525513626e-10
7.68642649138855e-10
7.47732948238138e-10
7.27386394039235e-10
7.0761526066916e-10
6.88424067443904e-10
6.69809221929244e-10
6.51769924607881e-10
6.34304271736565e-10
6.17405262552869e-10
6.01063935169628e-10
5.85225913933691e-10
5.6981696284931e-10
5.54910320368599e-10
5.40493626059628e-10
5.2655434417789e-10
5.13079600780942e-10
5.00056077501695e-10
4.87470204188879e-10
4.7530757619309e-10
4.63553740155647e-10
4.52180079300114e-10
4.41157843330901e-10
4.30474054768065e-10
4.20118291378549e-10
4.10081571988184e-10
4.00355582091382e-10
3.9093267456023e-10
3.81805911803482e-10
3.72969119939619e-10
3.64417008962272e-10
3.56144376382009e-10
3.47771803053841e-10
3.39350499928612e-10
3.31132345245092e-10
3.23107652571742e-10
3.15291721946366e-10
3.07701542037942e-10
3.00306795371407e-10
2.91858416954477e-10
2.8357864154251e-10
2.75520642868725e-10
2.66980101990222e-10
2.57193547095377e-10
2.47729240928208e-10
2.35409097780579e-10
2.21899378055097e-10
2.04691188187979e-10
1.79850885180805e-10
)
;

boundaryField
{
    electrode
    {
        type            zeroGradient;
    }
    ground
    {
        type            zeroGradient;
    }
    otherfaces
    {
        type            empty;
    }
}


// ************************************************************************* //
