/*--------------------------------*- C++ -*----------------------------------*\
| =========                 |                                                 |
| \\      /  F ield         | foam-extend: Open Source CFD                    |
|  \\    /   O peration     | Version:     4.0                                |
|   \\  /    A nd           | Web:         http://www.foam-extend.org         |
|    \\/     M anipulation  |                                                 |
\*---------------------------------------------------------------------------*/
FoamFile
{
    version     2.0;
    format      ascii;
    class       volScalarField;
    location    "9.3e-06";
    object      Te;
}
// * * * * * * * * * * * * * * * * * * * * * * * * * * * * * * * * * * * * * //

dimensions      [0 0 0 1 0 0 0];

internalField   nonuniform List<scalar> 
300
(
40042.9945718857
40043.2744476147
40043.4422679809
40043.5415609968
40043.6993322336
40043.8906187243
40044.1185246864
40044.3849163483
40044.6890461585
40045.0310615666
40045.4109732037
40045.8287666332
40046.2844536424
40046.7780458823
40047.309560428
40047.8790200488
40048.4864526857
40049.1318916508
40049.8153756283
40050.5369486929
40051.296660345
40052.0945655404
40052.9307247249
40053.8052038753
40054.7180745389
40055.6694138798
40056.6593047296
40057.6878356354
40058.7551009169
40059.8612007285
40061.0062411189
40062.1903340978
40063.4135977095
40064.6761561069
40065.9781396252
40067.319684871
40068.700934806
40070.1220388389
40071.5831529214
40073.0844396487
40074.6260683653
40076.2082152744
40077.8310635546
40079.4948034784
40081.1996325396
40082.9457555853
40084.7333849518
40086.5627406089
40088.4340503081
40090.3475497391
40092.3034826943
40094.302101235
40096.3436658696
40098.4284457366
40100.5567187974
40102.7287720346
40104.9449016618
40107.2054133392
40109.5106223988
40111.860854081
40114.2564437761
40116.697737282
40119.1850910724
40121.7188725683
40124.2994604287
40126.9272448535
40129.602627894
40132.3260237794
40135.0978592586
40137.918573956
40140.7886207391
40143.7084661067
40146.6785905923
40149.6994891818
40152.7716717564
40155.8956635483
40159.0720056198
40162.3012553647
40165.5839870295
40168.9207922603
40172.3122806742
40175.7590804584
40179.2618389927
40182.8212235052
40186.437921758
40190.1126427652
40193.8461175473
40197.6390999161
40201.4923673051
40205.4067216373
40209.3829902346
40213.4220267777
40217.524712311
40221.6919562998
40225.9246977407
40230.223906334
40234.5905837151
40239.025764752
40243.530518914
40248.1059517124
40252.7532062239
40257.4734646988
40262.2679502635
40267.1379287156
40272.0847103943
40277.109652183
40282.2141597884
40287.3996901358
40292.6677529901
40298.0199123798
40303.4577932386
40308.9830921233
40314.5975614752
40320.3029659034
40326.1011805425
40331.9945208924
40337.9854980758
40344.0761523785
40350.268327471
40356.5641860213
40362.9661450087
40369.4767509882
40376.0986691832
40382.8346853377
40389.6877114628
40396.6607932841
40403.7571185531
40410.9800261093
40418.3330157157
40425.8197587348
40433.444109726
40441.2101190763
40449.122046765
40457.1843773898
40465.4018366116
40473.779409168
40482.3223586487
40491.0362492544
40499.9269697686
40509.000760035
40518.2642402653
40527.7244435416
40537.3888519606
40547.2654369045
40557.3627040541
40567.6897437432
40578.2562876774
40589.0727724131
40600.1504119225
40611.5012779247
40623.1383949748
40635.0758410916
40647.3288780601
40659.9140715092
40672.8494840062
40686.1547974034
40699.851636264
40713.9636224728
40728.5169965949
40743.5404416745
40759.0663431042
40775.1303147841
40791.7741420783
40809.0477268632
40827.0196317957
40845.8460026868
40865.6948737934
40886.5405756252
40908.3052881364
40931.0903387284
40955.1223486153
40980.6297749826
41007.7882110591
41036.7266775307
41067.3965886593
41099.6884798655
41134.0466247101
41171.0585073941
41210.3895180775
41252.0895835613
41297.2942649128
41346.1719480984
41399.1231724952
41458.2693473739
41525.2346797509
41602.2645387485
41694.0741426381
41806.3683436218
41947.458981555
42130.1236953739
42370.6332111369
42691.5875547435
43126.2993757873
43719.590946638
44540.7374227912
45681.1723270472
47263.0147557498
49501.8085781426
52697.7298529308
57435.3785147579
63598.284747561
71602.4088892484
84525.5570023165
102345.010386273
126970.307282599
161264.988350186
207228.994590008
264620.919833074
329955.546728413
398002.255218081
464022.315181666
524929.306622007
579321.301485655
627010.491641794
668479.107360951
704398.96908934
735521.356237504
762681.484362463
786570.759343504
807731.524069898
826580.010710312
843481.561157483
858755.41135157
872649.255349754
885375.756221654
897113.094591807
908004.522128347
918168.664931615
927703.350506685
936689.615758756
945194.555364906
953273.623915474
960972.465356892
968328.393904955
975371.595271592
982126.133278063
988610.748898897
994840.004495696
1000824.7076967
1006567.441574
1012069.57911926
1017333.7976637
1022357.79009245
1027137.25417772
1031665.52064847
1035933.89236833
1039931.90777258
1043647.52405194
1047067.27973597
1050176.43829498
1052959.11400857
1055398.37938306
1057476.25940426
1059173.81005674
1060470.82454839
1061347.54878373
1061772.65297968
1061747.41555769
1061237.93460894
1060223.64171205
1058681.63635271
1056589.58625888
1053924.75370881
1050664.03159146
1046783.62486514
1042259.33975221
1037066.74875768
1031181.02095132
1024576.79843418
1017228.47303583
1009109.50748608
1000197.58095936
990463.052523163
979874.366601725
968407.155122095
956031.07279507
942714.106943171
928422.265854084
913119.629189021
896768.090827795
879327.028245688
860753.275438981
841000.148499627
820023.966536571
797774.363100294
774187.53727737
749200.324876326
722739.861690054
694714.935022759
665042.280943262
633612.690966702
600290.028524809
564936.765376984
527364.515804546
487337.645861714
444567.075651404
398655.641856609
349034.164560233
294880.138303834
235115.139482213
)
;

boundaryField
{
    electrode
    {
        type            electronTemperature;
        seec            0.05;
        Tse             1000;
        Edepend         1;
        TFN             1000;
        field_emission  0;
        field_enhancement_factor 55;
        work_function   5;
        value           uniform 40042.9945718857;
    }
    ground
    {
        type            electronTemperature;
        seec            0.05;
        Tse             1000;
        Edepend         1;
        TFN             1000;
        field_emission  0;
        field_enhancement_factor 55;
        work_function   5;
        value           uniform 201227.54632459;
    }
    otherfaces
    {
        type            empty;
    }
}


// ************************************************************************* //
