/*--------------------------------*- C++ -*----------------------------------*\
| =========                 |                                                 |
| \\      /  F ield         | foam-extend: Open Source CFD                    |
|  \\    /   O peration     | Version:     4.0                                |
|   \\  /    A nd           | Web:         http://www.foam-extend.org         |
|    \\/     M anipulation  |                                                 |
\*---------------------------------------------------------------------------*/
FoamFile
{
    version     2.0;
    format      ascii;
    class       volScalarField;
    location    "9.3e-06";
    object      TeMean;
}
// * * * * * * * * * * * * * * * * * * * * * * * * * * * * * * * * * * * * * //

dimensions      [0 0 0 1 0 0 0];

internalField   nonuniform List<scalar> 
300
(
36776.8714176318
36777.162676828
36777.3045988623
36777.3344295233
36777.3956506389
36777.4661978578
36777.5490712394
36777.6467731427
36777.7590967213
36777.8865407057
36778.0294973907
36778.188328544
36778.3633991552
36778.5550522111
36778.7636222243
36778.9894343096
36779.2328031092
36779.4940361303
36779.7734334364
36780.0712875262
36780.3878852602
36780.7235064289
36781.0784254132
36781.4529107033
36781.8472246342
36782.2616309784
36782.6963899454
36783.1517563837
36783.6279857172
36784.1253259816
36784.6440169625
36785.1843070952
36785.746451821
36786.3307001241
36786.9372984247
36787.5664878687
36788.2185098735
36788.8936122808
36789.5920433966
36790.3140489472
36791.0598734876
36791.8297682561
36792.6239856258
36793.4427772375
36794.286396483
36795.155098391
36796.0491393844
36796.9687767147
36797.9142663323
36798.8858629022
36799.8838200335
36800.9084004819
36801.9598819487
36803.0385445747
36804.144674352
36805.2785673376
36806.4405188871
36807.63082514
36808.8497920584
36810.0977312252
36811.3749589008
36812.6818024084
36814.0185836199
36815.3856261484
36816.7832797997
36818.2119105242
36819.6718878377
36821.1635863715
36822.6873886314
36824.2436885818
36825.8328863095
36827.4553822414
36829.1115952442
36830.8019602913
36832.5269140086
36834.2868966663
36836.0823716561
36837.9138309756
36839.7817691644
36841.6866877708
36843.6291193183
36845.6096136875
36847.6287234506
36849.6870094215
36851.7850478188
36853.9234462985
36856.1028413056
36858.3238795215
36860.5872200299
36862.8935483033
36865.2435615918
36867.6379774744
36870.07756776
36872.5631170982
36875.0954264602
36877.6753375066
36880.3037134094
36882.9814469912
36885.7094579766
36888.4886999538
36891.3201717811
36894.2048875569
36897.1438956934
36900.1383063603
36903.1892660518
36906.2979583052
36909.4656073268
36912.6934850128
36915.9829207372
36919.3352932895
36922.7520354704
36926.2346349375
36929.7846327553
36933.4036471822
36937.0933558623
36940.8554948177
36944.6918652543
36948.6043579668
36952.594963331
36956.6657335882
36960.8188080409
36965.0564310661
36969.3809450526
36973.7948125348
36978.3006273503
36982.9010937137
36987.5990286106
36992.3974008313
36997.2993376351
37002.3081079069
37007.4271461516
37012.6600806235
37018.0107422283
37023.4831405172
37029.0815013712
37034.8103384666
37040.6744407436
37046.6788713187
37052.8290013539
37059.1305444713
37065.5895865221
37072.2126117304
37079.0065377245
37085.9787510333
37093.1371823475
37100.4903823199
37108.0475658688
37115.8186866328
37123.8144697246
37132.0465317064
37140.5275539054
37149.2713439018
37158.2929866986
37167.609085943
37177.2378646614
37187.1994702178
37197.5162330631
37208.2132295953
37219.3188838486
37230.8666630013
37242.9031237041
37255.4865434485
37268.6744303579
37282.5256041105
37297.1195220713
37312.5574783183
37328.9159613746
37346.2519767226
37364.6725657649
37384.3231033151
37405.3304730607
37427.8094500568
37451.8878131177
37477.6168811865
37505.0031552747
37534.2635557106
37565.6836172462
37599.433182574
37635.9888847649
37676.3158625734
37721.7434242764
37774.511639814
37838.3247421647
37918.5556127146
38023.395643053
38165.2227488052
38361.8096978913
38639.3397850647
39036.9642897435
39613.1313705547
40456.8486765191
41707.7043103152
43589.4667928815
46525.3156791203
50949.8903271604
57178.4424093573
66212.287680439
78589.9160994055
95293.2625122921
116700.719110383
142874.670255015
173701.148575299
208915.106252965
247879.259410829
290636.569607908
337210.424917552
387076.983564424
438746.68416425
490018.17074481
538762.355774088
583520.775387155
623643.237183067
659094.429082813
690220.536080347
717530.29657572
741534.690738056
762750.293093308
781653.483196927
798630.941184033
813994.869367448
827991.38136412
840826.506361541
852682.32017229
863707.510588186
874025.742997341
883737.882915862
892926.895939064
901661.058587566
909996.40176652
917978.817832151
925645.662597623
933027.055347896
940146.929466802
947023.840571781
953671.705535447
960100.431731245
966316.387628973
972322.802197676
978120.483759387
983707.066748518
989077.461867311
994225.351287941
999142.805623923
1003820.47486765
1008247.62076663
1012412.22182996
1016300.95370237
1019899.47368665
1023192.62798193
1026164.30102654
1028797.98269577
1031076.6866388
1032982.67834088
1034497.74084652
1035602.88653274
1036278.98778908
1036500.25438336
1036259.67441631
1035533.95697872
1034301.28516217
1032541.02665979
1030232.57020456
1027355.15483559
1023887.76178251
1019809.06669927
1015097.69279924
1009731.71174783
1003688.69935279
996946.323184604
989481.757061143
981271.751019924
972292.488087777
962518.331138356
951923.552944265
940482.092638101
928165.460335765
914943.747414086
900785.332213647
885656.758543094
869522.460687383
852344.580317612
834082.82060847
814696.711911776
794142.945836777
772368.004823558
749315.124705335
724922.957623054
699116.557366758
671816.880993051
642938.802583016
612373.879905904
579996.551475739
545670.670103555
509211.966981213
470396.151562249
428942.4350151
384457.768430132
336395.782233466
283960.734541397
226104.766209147
)
;

boundaryField
{
    electrode
    {
        type            calculated;
        value           uniform 36776.8714176331;
    }
    ground
    {
        type            calculated;
        value           uniform 193295.799668141;
    }
    otherfaces
    {
        type            empty;
    }
}


// ************************************************************************* //
