/*--------------------------------*- C++ -*----------------------------------*\
| =========                 |                                                 |
| \\      /  F ield         | foam-extend: Open Source CFD                    |
|  \\    /   O peration     | Version:     4.0                                |
|   \\  /    A nd           | Web:         http://www.foam-extend.org         |
|    \\/     M anipulation  |                                                 |
\*---------------------------------------------------------------------------*/
FoamFile
{
    version     2.0;
    format      ascii;
    class       volScalarField;
    location    "6.5e-06";
    object      Ar;
}
// * * * * * * * * * * * * * * * * * * * * * * * * * * * * * * * * * * * * * //

dimensions      [0 0 0 1 0 0 0];

internalField   nonuniform List<scalar> 
300
(
3.21880256177221e+22
3.21880255748969e+22
3.21880256033381e+22
3.21880256143262e+22
3.21880256332973e+22
3.21880256596684e+22
3.21880256918211e+22
3.21880257303939e+22
3.2188025775265e+22
3.2188025826402e+22
3.21880258838093e+22
3.21880259474753e+22
3.21880260173947e+22
3.2188026093564e+22
3.21880261759811e+22
3.21880262646453e+22
3.218802635956e+22
3.21880264607253e+22
3.21880265681418e+22
3.21880266818126e+22
3.21880268017413e+22
3.21880269279324e+22
3.2188027060391e+22
3.21880271991226e+22
3.21880273441498e+22
3.21880274954666e+22
3.2188027653082e+22
3.21880278170069e+22
3.21880279872408e+22
3.2188028163793e+22
3.21880283466911e+22
3.21880285359386e+22
3.21880287315326e+22
3.2188028933483e+22
3.21880291418009e+22
3.21880293564979e+22
3.21880295775907e+22
3.21880298050901e+22
3.21880300390068e+22
3.21880302793554e+22
3.21880305261511e+22
3.21880307794077e+22
3.21880310391408e+22
3.21880313053667e+22
3.21880315781021e+22
3.21880318573647e+22
3.21880321431746e+22
3.21880324355521e+22
3.2188032734527e+22
3.21880330401231e+22
3.21880333523757e+22
3.21880336712957e+22
3.2188033996912e+22
3.21880343292309e+22
3.21880346682686e+22
3.21880350140333e+22
3.2188035366547e+22
3.2188035725832e+22
3.21880360919115e+22
3.2188036464811e+22
3.21880368445527e+22
3.2188037231161e+22
3.21880376246662e+22
3.21880380251134e+22
3.2188038432526e+22
3.21880388469061e+22
3.21880392682795e+22
3.21880396966724e+22
3.21880401321115e+22
3.21880405746239e+22
3.2188041024239e+22
3.21880414809923e+22
3.2188041944914e+22
3.21880424160265e+22
3.21880428943751e+22
3.21880433799894e+22
3.2188043872882e+22
3.21880443730676e+22
3.21880448805865e+22
3.21880453955058e+22
3.21880459178245e+22
3.21880464475754e+22
3.21880469847964e+22
3.218804752952e+22
3.21880480817953e+22
3.21880486416487e+22
3.21880492091022e+22
3.21880497841889e+22
3.21880503669536e+22
3.21880509574211e+22
3.21880515556298e+22
3.21880521616562e+22
3.21880527754768e+22
3.21880533971205e+22
3.2188054026618e+22
3.21880546639992e+22
3.21880553092937e+22
3.21880559625311e+22
3.21880566237506e+22
3.21880572929805e+22
3.21880579702417e+22
3.21880586555599e+22
3.2188059348993e+22
3.21880600505376e+22
3.21880607602281e+22
3.21880614780981e+22
3.21880622041566e+22
3.21880629384465e+22
3.21880636809799e+22
3.21880644317733e+22
3.218806519085e+22
3.21880659582329e+22
3.21880667339496e+22
3.21880675180219e+22
3.21880683104706e+22
3.21880691113313e+22
3.21880699206403e+22
3.21880707383895e+22
3.2188071564594e+22
3.21880723992774e+22
3.21880732424807e+22
3.21880740942051e+22
3.2188074954493e+22
3.2188075823347e+22
3.21880767007679e+22
3.21880775867696e+22
3.21880784813913e+22
3.21880793846261e+22
3.2188080296495e+22
3.21880812170096e+22
3.21880821461944e+22
3.2188083084062e+22
3.21880840306254e+22
3.21880849859184e+22
3.21880859499847e+22
3.21880869228124e+22
3.2188087904404e+22
3.21880888947906e+22
3.21880898939967e+22
3.21880909020184e+22
3.21880919188767e+22
3.21880929445926e+22
3.21880939792019e+22
3.21880950227402e+22
3.21880960752348e+22
3.21880971366672e+22
3.21880982070524e+22
3.2188099286408e+22
3.21881003747629e+22
3.21881014721515e+22
3.2188102578566e+22
3.21881036940496e+22
3.21881048185765e+22
3.218810595212e+22
3.21881070947272e+22
3.21881082464473e+22
3.2188109407199e+22
3.21881105771377e+22
3.21881117557796e+22
3.21881129439084e+22
3.21881141400398e+22
3.21881153462629e+22
3.21881165592106e+22
3.21881177834609e+22
3.2188119013334e+22
3.21881202393378e+22
3.21881214745148e+22
3.21881227231374e+22
3.21881239789442e+22
3.21881252424361e+22
3.21881265037303e+22
3.21881277705321e+22
3.21881290315321e+22
3.21881302932278e+22
3.21881315767376e+22
3.21881328567983e+22
3.21881341001681e+22
3.21881353524175e+22
3.21881366161539e+22
3.21881378197714e+22
3.21881390045617e+22
3.21881401980043e+22
3.21881412956342e+22
3.21881423750215e+22
3.21881434113162e+22
3.21881443569067e+22
3.21881452391766e+22
3.21881460838362e+22
3.21881468040472e+22
3.21881474567249e+22
3.21881480620736e+22
3.21881485791891e+22
3.21881489967307e+22
3.21881493658332e+22
3.21881496582166e+22
3.21881498530322e+22
3.21881499709473e+22
3.21881500600107e+22
3.21881501348138e+22
3.21881501895639e+22
3.21881502065599e+22
3.21881501988613e+22
3.21881502024986e+22
3.218815020971e+22
3.21881502650289e+22
3.21881503350366e+22
3.21881504164023e+22
3.2188150492828e+22
3.21881505614995e+22
3.21881506215458e+22
3.21881506742433e+22
3.21881507203237e+22
3.21881507599264e+22
3.21881508161212e+22
3.21881508693027e+22
3.21881509187681e+22
3.21881509630671e+22
3.21881510047075e+22
3.21881510420412e+22
3.21881510775495e+22
3.21881511092818e+22
3.21881511400699e+22
3.21881511677288e+22
3.21881511948734e+22
3.21881512189416e+22
3.21881512584756e+22
3.21881512944512e+22
3.21881513307893e+22
3.21881513636239e+22
3.21881513970889e+22
3.21881514271271e+22
3.2188151458023e+22
3.21881514855229e+22
3.21881515140665e+22
3.21881515392499e+22
3.2188151565643e+22
3.21881515886899e+22
3.21881516130992e+22
3.21881516341376e+22
3.21881516566797e+22
3.21881516757952e+22
3.21881516983586e+22
3.21881517260653e+22
3.21881517552991e+22
3.21881517811669e+22
3.21881518086674e+22
3.21881518327879e+22
3.21881518586728e+22
3.21881518811524e+22
3.21881519055235e+22
3.21881519264737e+22
3.21881519494401e+22
3.21881519689615e+22
3.21881519906196e+22
3.21881520087932e+22
3.21881520292285e+22
3.21881520461296e+22
3.21881520654049e+22
3.21881520810999e+22
3.21881520992583e+22
3.21881521137877e+22
3.21881521308666e+22
3.21881521442826e+22
3.21881521603261e+22
3.21881521726873e+22
3.21881521905184e+22
3.21881522085201e+22
3.21881522292641e+22
3.21881522462549e+22
3.21881522660597e+22
3.21881522820882e+22
3.21881523009972e+22
3.21881523161233e+22
3.21881523341958e+22
3.21881523484757e+22
3.21881523657751e+22
3.21881523792584e+22
3.21881523958282e+22
3.21881524085525e+22
3.21881524244227e+22
3.21881524364246e+22
3.21881524516672e+22
3.21881524631914e+22
3.21881524780943e+22
3.21881524890895e+22
3.21881525034101e+22
3.21881525137999e+22
3.21881525275545e+22
3.21881525373586e+22
3.21881525509547e+22
3.21881525607359e+22
3.21881525739916e+22
3.21881525832167e+22
3.2188152596523e+22
3.21881526059227e+22
3.21881526191119e+22
3.2188152628844e+22
3.2188152642762e+22
3.21881526533428e+22
3.21881526750839e+22
)
;

boundaryField
{
    electrode
    {
        type            zeroGradient;
    }
    ground
    {
        type            zeroGradient;
    }
    otherfaces
    {
        type            empty;
    }
}


// ************************************************************************* //
