/*--------------------------------*- C++ -*----------------------------------*\
| =========                 |                                                 |
| \\      /  F ield         | foam-extend: Open Source CFD                    |
|  \\    /   O peration     | Version:     4.0                                |
|   \\  /    A nd           | Web:         http://www.foam-extend.org         |
|    \\/     M anipulation  |                                                 |
\*---------------------------------------------------------------------------*/
FoamFile
{
    version     2.0;
    format      ascii;
    class       volScalarField;
    location    "6.5e-06";
    object      Arm;
}
// * * * * * * * * * * * * * * * * * * * * * * * * * * * * * * * * * * * * * //

dimensions      [0 0 0 1 0 0 0];

internalField   nonuniform List<scalar> 
300
(
3.57412411484801e+15
3.57599952797593e+15
3.57794758660489e+15
3.57925370913934e+15
3.58006997911639e+15
3.58044854567219e+15
3.5804336111372e+15
3.58005661977624e+15
3.57934323173048e+15
3.57831542888217e+15
3.57698898893549e+15
3.57537799769285e+15
3.57349450877932e+15
3.57134912501855e+15
3.5689513036242e+15
3.5663095872378e+15
3.56342880472284e+15
3.56031753978048e+15
3.55698413264032e+15
3.55343506393742e+15
3.54967653512752e+15
3.54571446787899e+15
3.54155455220277e+15
3.53720222353432e+15
3.53264683978224e+15
3.52790610670304e+15
3.52298373688513e+15
3.51788175556261e+15
3.51261374018105e+15
3.50718456453096e+15
3.50158050234175e+15
3.49581291430408e+15
3.48989989253541e+15
3.48384682937905e+15
3.47765881109387e+15
3.47134063596102e+15
3.46489248602282e+15
3.45832087316833e+15
3.45163286334378e+15
3.44483199457034e+15
3.43792177182543e+15
3.43090746895825e+15
3.42379296776513e+15
3.41658195979979e+15
3.40927794521202e+15
3.40188418615136e+15
3.3944016293341e+15
3.38683171584262e+15
3.3791666937663e+15
3.37140514012196e+15
3.3635344783707e+15
3.35556718208761e+15
3.34749788800535e+15
3.33934429119884e+15
3.33111453807065e+15
3.32282498389498e+15
3.31447893889836e+15
3.3060793192402e+15
3.29762869564609e+15
3.28912749050464e+15
3.28058001477589e+15
3.27198837721284e+15
3.26334922619886e+15
3.25464462516463e+15
3.24587855213036e+15
3.23707656045899e+15
3.22824076022449e+15
3.21937299117123e+15
3.21047483914239e+15
3.2015476622549e+15
3.19259061204603e+15
3.18359654578877e+15
3.17456392896415e+15
3.16550018634612e+15
3.15639180039899e+15
3.14723982335016e+15
3.13805058766973e+15
3.12881998737191e+15
3.11956795031849e+15
3.11026399639912e+15
3.10094264481456e+15
3.09160604065135e+15
3.0822511071026e+15
3.07288008923437e+15
3.06347819483676e+15
3.05405315295339e+15
3.04461665857411e+15
3.03516903144612e+15
3.02569838294709e+15
3.0162124444178e+15
3.00670518373358e+15
2.9971316414918e+15
2.98754698508344e+15
2.97795288846235e+15
2.96834938167873e+15
2.95873649070387e+15
2.94911399724467e+15
2.93948146167792e+15
2.9298279624567e+15
2.92015343541863e+15
2.91046413601066e+15
2.90076132500621e+15
2.89101330097157e+15
2.8812492236078e+15
2.87145989950033e+15
2.8616360000904e+15
2.85179250875262e+15
2.84190985592261e+15
2.83199844235122e+15
2.82206371812304e+15
2.81210381779559e+15
2.80211645147261e+15
2.79209388602356e+15
2.78203390548169e+15
2.7719342788425e+15
2.76177736351439e+15
2.75154430313067e+15
2.74125985202939e+15
2.73092489362856e+15
2.72053134192243e+15
2.71005284718837e+15
2.69950231710032e+15
2.68885081777657e+15
2.67810871769431e+15
2.66728743791781e+15
2.6563847694477e+15
2.64537264890109e+15
2.63426846170222e+15
2.62306140504267e+15
2.61174942282324e+15
2.60031688887061e+15
2.58875992453812e+15
2.5770735184879e+15
2.56523159097209e+15
2.55319772236573e+15
2.54099072045521e+15
2.52861449909619e+15
2.5160440388673e+15
2.50326049618783e+15
2.49027295632843e+15
2.47706544888782e+15
2.46362130876156e+15
2.44990840137069e+15
2.43589463312528e+15
2.42155541616289e+15
2.40691049710554e+15
2.39194503105113e+15
2.3766426455639e+15
2.3609728005535e+15
2.34488665990595e+15
2.32839658658481e+15
2.31147783219009e+15
2.2940681957274e+15
2.27616643652673e+15
2.25775428845244e+15
2.23878204797577e+15
2.21920648915098e+15
2.19902701887547e+15
2.17822448669327e+15
2.15675395628578e+15
2.13457982892647e+15
2.11168698389111e+15
2.08803721870256e+15
2.06364302518507e+15
2.03849139779965e+15
2.01252784643991e+15
1.98577315737676e+15
1.95827187282324e+15
1.9300529798928e+15
1.9011584570446e+15
1.87165686431748e+15
1.84158159242218e+15
1.81102503780004e+15
1.78015867338511e+15
1.74917641553806e+15
1.7182481349964e+15
1.68755302450088e+15
1.65729009727029e+15
1.62769807250023e+15
1.59893257599005e+15
1.57114788144381e+15
1.5444909949657e+15
1.51904334268672e+15
1.49491962250994e+15
1.4721197267516e+15
1.45055358534224e+15
1.43026088123964e+15
1.41119113319463e+15
1.39325847044207e+15
1.37638212761861e+15
1.36046781893847e+15
1.34556518917116e+15
1.33215856518635e+15
1.32529729293884e+15
1.35113885293077e+15
1.41673404129475e+15
1.49555665895738e+15
1.5582732944316e+15
1.60850403273938e+15
1.65104842366608e+15
1.68597926672838e+15
1.70572728120654e+15
1.6979086277268e+15
1.66754964861326e+15
1.6257597103505e+15
1.5839830617186e+15
1.54897315200856e+15
1.5226599291428e+15
1.50442012017018e+15
1.4922994897767e+15
1.48403839023775e+15
1.47809871646505e+15
1.47410102515258e+15
1.47116423100037e+15
1.46822825381903e+15
1.46556898472005e+15
1.46297588354024e+15
1.46023879828161e+15
1.45719680463592e+15
1.4537558391528e+15
1.44986136128529e+15
1.44526098224333e+15
1.43989346606878e+15
1.43388281067638e+15
1.42731702714949e+15
1.42035858260681e+15
1.41305390326046e+15
1.40543036528649e+15
1.3975318870895e+15
1.38940866012313e+15
1.38108816740636e+15
1.37261308142803e+15
1.36402991668605e+15
1.35536713213911e+15
1.3466550910538e+15
1.33793899727085e+15
1.32922927219292e+15
1.32056875302643e+15
1.31196768795424e+15
1.3034556468029e+15
1.29504973507054e+15
1.28675623952003e+15
1.27860191039412e+15
1.27058334042881e+15
1.26271582705695e+15
1.25502233850838e+15
1.24749507013617e+15
1.24014622227399e+15
1.23298157372465e+15
1.2259953903303e+15
1.21919614579026e+15
1.21258059661068e+15
1.2061461657013e+15
1.19989778707992e+15
1.19382822227492e+15
1.18793600282109e+15
1.1822196124459e+15
1.17666371003699e+15
1.17127658706758e+15
1.1660503471343e+15
1.16099015500877e+15
1.15608275843727e+15
1.15133019531698e+15
1.14672339377223e+15
1.14225921370309e+15
1.13793300152205e+15
1.13373622135805e+15
1.12966481991938e+15
1.1257072863117e+15
1.12186854298961e+15
1.11813968121926e+15
1.11452463926993e+15
1.11100947326902e+15
1.10759945945656e+15
1.10428209002574e+15
1.10105548412683e+15
1.09791748880304e+15
1.09486768327647e+15
1.09190761577239e+15
1.08903050865471e+15
1.08623476513848e+15
1.08347964927409e+15
1.08062187660278e+15
1.07772053190108e+15
1.07488659152208e+15
1.07210943938414e+15
1.06939783483256e+15
1.06675404837223e+15
1.0641682439617e+15
1.06127334350418e+15
1.05827328225497e+15
1.0553449651324e+15
1.05249391890382e+15
1.04915598728222e+15
1.04575076462986e+15
1.04221658738805e+15
1.03812632709434e+15
1.03360272118329e+15
1.02839272494656e+15
1.02205472397925e+15
)
;

boundaryField
{
    electrode
    {
        type            zeroGradient;
    }
    ground
    {
        type            zeroGradient;
    }
    otherfaces
    {
        type            empty;
    }
}


// ************************************************************************* //
