/*--------------------------------*- C++ -*----------------------------------*\
| =========                 |                                                 |
| \\      /  F ield         | foam-extend: Open Source CFD                    |
|  \\    /   O peration     | Version:     4.0                                |
|   \\  /    A nd           | Web:         http://www.foam-extend.org         |
|    \\/     M anipulation  |                                                 |
\*---------------------------------------------------------------------------*/
FoamFile
{
    version     2.0;
    format      ascii;
    class       volVectorField;
    location    "6.5e-06";
    object      E;
}
// * * * * * * * * * * * * * * * * * * * * * * * * * * * * * * * * * * * * * //

dimensions      [0 0 0 1 0 0 0];

internalField   nonuniform List<vector> 
300
(
(5.40743211041584 -0 -0)
(10.7717379391192 -0 -0)
(19.019355095018 -0 -0)
(26.6399586223989 -0 -0)
(34.2141242337661 -0 -0)
(41.855238271105 -0 -0)
(49.4894751137958 -0 -0)
(57.1384464534407 -0 -0)
(64.8029036806615 -0 -0)
(72.4831988221937 -0 -0)
(80.1815335210716 -0 -0)
(87.8994847033918 -0 -0)
(95.6387186695783 -0 -0)
(103.400940110186 -0 -0)
(111.187853440998 -0 -0)
(119.001182533053 -0 -0)
(126.842668339564 -0 -0)
(134.714069728594 -0 -0)
(142.617164956839 -0 -0)
(150.55375264805 -0 -0)
(158.525652925458 -0 -0)
(166.534708494205 -0 -0)
(174.582785840424 -0 -0)
(182.671776259582 -0 -0)
(190.80359706797 -0 -0)
(198.980192731009 -0 -0)
(207.20353600401 -0 -0)
(215.475629139486 -0 -0)
(223.798505032119 -0 -0)
(232.174228413653 -0 -0)
(240.604897110167 -0 -0)
(249.092643228537 -0 -0)
(257.639634389265 -0 -0)
(266.248075066227 -0 -0)
(274.920207782248 -0 -0)
(283.658314478881 -0 -0)
(292.46471784375 -0 -0)
(301.341782647729 -0 -0)
(310.291917168836 -0 -0)
(319.317574611098 -0 -0)
(328.421254558387 -0 -0)
(337.605504469076 -0 -0)
(346.872921248887 -0 -0)
(356.226152792224 -0 -0)
(365.667899643353 -0 -0)
(375.200916660807 -0 -0)
(384.828014787708 -0 -0)
(394.552062792136 -0 -0)
(404.375989189506 -0 -0)
(414.302784133764 -0 -0)
(424.335501407513 -0 -0)
(434.477260548335 -0 -0)
(444.731248952412 -0 -0)
(455.100724156045 -0 -0)
(465.589016161772 -0 -0)
(476.19952991675 -0 -0)
(486.935747781628 -0 -0)
(497.801232302081 -0 -0)
(508.799628916211 -0 -0)
(519.934668906425 -0 -0)
(531.210172424797 -0 -0)
(542.630051708516 -0 -0)
(554.198314393967 -0 -0)
(565.919067074871 -0 -0)
(577.796519046653 -0 -0)
(589.834986548856 -0 -0)
(602.038896648019 -0 -0)
(614.412790045247 -0 -0)
(626.961322937383 -0 -0)
(639.689274063775 -0 -0)
(652.601566282367 -0 -0)
(665.703295513261 -0 -0)
(678.999706023375 -0 -0)
(692.496014910309 -0 -0)
(706.19719232397 -0 -0)
(720.108396741537 -0 -0)
(734.23687260141 -0 -0)
(748.59330770484 -0 -0)
(763.188074932938 -0 -0)
(778.028624022326 -0 -0)
(793.121524631045 -0 -0)
(808.473467597908 -0 -0)
(824.091363744843 -0 -0)
(839.982368677854 -0 -0)
(856.153901590634 -0 -0)
(872.613658893337 -0 -0)
(889.369627235613 -0 -0)
(906.430096955879 -0 -0)
(923.80367629328 -0 -0)
(941.49930648805 -0 -0)
(959.526278036901 -0 -0)
(977.894247989974 -0 -0)
(996.61325845278 -0 -0)
(1015.69375645104 -0 -0)
(1035.14661509132 -0 -0)
(1054.98315625545 -0 -0)
(1075.21517489091 -0 -0)
(1095.85496494263 -0 -0)
(1116.91534719776 -0 -0)
(1138.40969906281 -0 -0)
(1160.35198643704 -0 -0)
(1182.7567979393 -0 -0)
(1205.63938160467 -0 -0)
(1229.01568418962 -0 -0)
(1252.90239345472 -0 -0)
(1277.31698349604 -0 -0)
(1302.27776359269 -0 -0)
(1327.80393058569 -0 -0)
(1353.91562540873 -0 -0)
(1380.63399388016 -0 -0)
(1407.98125230503 -0 -0)
(1435.98075820639 -0 -0)
(1464.6570867177 -0 -0)
(1494.03611317975 -0 -0)
(1524.14510247322 -0 -0)
(1555.01280572037 -0 -0)
(1586.66956518883 -0 -0)
(1619.14742806288 -0 -0)
(1652.48026999071 -0 -0)
(1686.70392958914 -0 -0)
(1721.85635470575 -0 -0)
(1757.977761958 -0 -0)
(1795.11081081926 -0 -0)
(1833.30079386195 -0 -0)
(1872.59584490358 -0 -0)
(1913.04716705025 -0 -0)
(1954.70928297819 -0 -0)
(1997.64030981115 -0 -0)
(2041.90226171123 -0 -0)
(2087.5613833365 -0 -0)
(2134.68851778072 -0 -0)
(2183.35951360245 -0 -0)
(2233.65567540877 -0 -0)
(2285.66426376068 -0 -0)
(2339.47905077551 -0 -0)
(2395.20093872921 -0 -0)
(2452.93865004887 -0 -0)
(2512.80949844113 -0 -0)
(2574.940252566 -0 -0)
(2639.46810585088 -0 -0)
(2706.54176581531 -0 -0)
(2776.32267989994 -0 -0)
(2848.98643308854 -0 -0)
(2924.72431420614 -0 -0)
(3003.74506587736 -0 -0)
(3086.27698311852 -0 -0)
(3172.57027237954 -0 -0)
(3262.89938013566 -0 -0)
(3357.5661556367 -0 -0)
(3456.90466348224 -0 -0)
(3561.28302955766 -0 -0)
(3671.10511721369 -0 -0)
(3786.82887870498 -0 -0)
(3908.9775945429 -0 -0)
(4038.12857847413 -0 -0)
(4174.91574092225 -0 -0)
(4320.05371632691 -0 -0)
(4474.33740082461 -0 -0)
(4638.68666615622 -0 -0)
(4814.10492731063 -0 -0)
(5001.79544360889 -0 -0)
(5203.04648096628 -0 -0)
(5419.46474097082 -0 -0)
(5652.72915276796 -0 -0)
(5905.43390443575 -0 -0)
(6183.13078912715 -0 -0)
(6491.16830052373 -0 -0)
(6832.24440570172 -0 -0)
(7209.51257037684 -0 -0)
(7628.06082314346 -0 -0)
(8095.58456973314 -0 -0)
(8621.15913550612 -0 -0)
(9215.32632498176 -0 -0)
(9889.19085625168 -0 -0)
(10648.4805893394 -0 -0)
(11500.0714509306 -0 -0)
(12461.909751607 -0 -0)
(13548.1741290883 -0 -0)
(14761.557805669 -0 -0)
(16116.0001545091 -0 -0)
(17628.0541860466 -0 -0)
(19295.4791021319 -0 -0)
(21126.6621645003 -0 -0)
(23129.5124301585 -0 -0)
(25293.1132133892 -0 -0)
(27615.7352768203 -0 -0)
(30093.7665391285 -0 -0)
(32703.5605451512 -0 -0)
(35432.0228108673 -0 -0)
(38270.5243822408 -0 -0)
(41188.0847338602 -0 -0)
(44159.6241408104 -0 -0)
(47177.3282658467 -0 -0)
(50226.0643715354 -0 -0)
(53279.9592854334 -0 -0)
(56323.716140481 -0 -0)
(59357.208250463 -0 -0)
(62379.5542461996 -0 -0)
(65393.9176917959 -0 -0)
(68396.0444075332 -0 -0)
(71385.7112785964 -0 -0)
(74387.8714185442 -0 -0)
(77411.7262353987 -0 -0)
(80456.5694966555 -0 -0)
(83513.7822244579 -0 -0)
(86564.7308452711 -0 -0)
(89597.0400220521 -0 -0)
(92602.4560913502 -0 -0)
(95578.6827844081 -0 -0)
(98525.8266035399 -0 -0)
(101445.424192051 -0 -0)
(104339.690557762 -0 -0)
(107211.220902643 -0 -0)
(110056.014298033 -0 -0)
(112869.628631083 -0 -0)
(115653.994777446 -0 -0)
(118411.679902284 -0 -0)
(121145.060261051 -0 -0)
(123856.365058706 -0 -0)
(126547.655191252 -0 -0)
(129220.877482721 -0 -0)
(131877.804748556 -0 -0)
(134520.112082149 -0 -0)
(137149.325552638 -0 -0)
(139766.891017362 -0 -0)
(142369.360063374 -0 -0)
(144953.366579362 -0 -0)
(147520.076998531 -0 -0)
(150070.619692035 -0 -0)
(152606.013722814 -0 -0)
(155127.231464294 -0 -0)
(157635.155428957 -0 -0)
(160130.631803909 -0 -0)
(162614.427898155 -0 -0)
(165087.282320727 -0 -0)
(167549.860650478 -0 -0)
(170002.807301478 -0 -0)
(172446.704482938 -0 -0)
(174882.125627374 -0 -0)
(177309.589452223 -0 -0)
(179729.617315519 -0 -0)
(182142.136934872 -0 -0)
(184544.481527762 -0 -0)
(186934.556462189 -0 -0)
(189312.829632175 -0 -0)
(191679.72551819 -0 -0)
(194035.668192634 -0 -0)
(196381.040575606 -0 -0)
(198716.227763288 -0 -0)
(201041.576500341 -0 -0)
(203357.437298712 -0 -0)
(205664.121493106 -0 -0)
(207961.949456031 -0 -0)
(210251.20444305 -0 -0)
(212532.182250001 -0 -0)
(214805.143851232 -0 -0)
(217070.365668515 -0 -0)
(219328.09553819 -0 -0)
(221578.597501134 -0 -0)
(223822.108199766 -0 -0)
(226058.880065555 -0 -0)
(228289.141891198 -0 -0)
(230513.136129022 -0 -0)
(232731.08387392 -0 -0)
(234943.215705017 -0 -0)
(237148.907356145 -0 -0)
(239346.376615245 -0 -0)
(241534.667663102 -0 -0)
(243714.012758515 -0 -0)
(245884.624477083 -0 -0)
(248046.723626704 -0 -0)
(250200.512543113 -0 -0)
(252346.198489293 -0 -0)
(254483.971509971 -0 -0)
(256614.026834534 -0 -0)
(258736.541961323 -0 -0)
(260851.702710249 -0 -0)
(262959.675460678 -0 -0)
(265060.635136687 -0 -0)
(267154.74035665 -0 -0)
(269242.159088882 -0 -0)
(271323.043544554 -0 -0)
(273397.556155225 -0 -0)
(275465.843171302 -0 -0)
(277528.056750168 -0 -0)
(279584.334756179 -0 -0)
(281634.822647502 -0 -0)
(283679.650759554 -0 -0)
(285718.957468657 -0 -0)
(287752.866011449 -0 -0)
(289781.508098945 -0 -0)
(291804.99610285 -0 -0)
(293823.452542995 -0 -0)
(295836.985486113 -0 -0)
(297845.708916353 -0 -0)
(299849.716837667 -0 -0)
(301849.114559952 -0 -0)
(303843.979651819 -0 -0)
(305834.402018891 -0 -0)
(307818.557173571 -0 -0)
)
;

boundaryField
{
    electrode
    {
        type            calculated;
        value           uniform (4.41708439211653 -0 -0);
    }
    ground
    {
        type            calculated;
        value           uniform (308808.306410396 -0 -0);
    }
    otherfaces
    {
        type            empty;
    }
}


// ************************************************************************* //
