/*--------------------------------*- C++ -*----------------------------------*\
| =========                 |                                                 |
| \\      /  F ield         | foam-extend: Open Source CFD                    |
|  \\    /   O peration     | Version:     4.0                                |
|   \\  /    A nd           | Web:         http://www.foam-extend.org         |
|    \\/     M anipulation  |                                                 |
\*---------------------------------------------------------------------------*/
FoamFile
{
    version     2.0;
    format      ascii;
    class       volScalarField;
    location    "6.5e-06";
    object      electron;
}
// * * * * * * * * * * * * * * * * * * * * * * * * * * * * * * * * * * * * * //

dimensions      [0 0 0 1 0 0 0];

internalField   nonuniform List<scalar> 
300
(
6.38998802790998e+16
6.38982711577833e+16
6.38940415011394e+16
6.38868049742727e+16
6.3876621207488e+16
6.38634665872258e+16
6.3847335753239e+16
6.38282280427428e+16
6.38061403533376e+16
6.37810700215956e+16
6.37530141849349e+16
6.37219697343824e+16
6.36879333739778e+16
6.36509016001129e+16
6.36108707023458e+16
6.35678367633648e+16
6.35217956575267e+16
6.347274304996e+16
6.34206743955559e+16
6.33655849379405e+16
6.33074697084552e+16
6.32463235251456e+16
6.31821409917553e+16
6.31149164967469e+16
6.30446442123555e+16
6.29713180936735e+16
6.28949318777884e+16
6.28154790829729e+16
6.27329530079409e+16
6.26473467311836e+16
6.25586531103836e+16
6.24668647819213e+16
6.23719741604938e+16
6.22739734388367e+16
6.21728545875715e+16
6.2068609355191e+16
6.19612292681779e+16
6.18507056312821e+16
6.17370295279571e+16
6.16201918209654e+16
6.15001831531639e+16
6.13769939484824e+16
6.12506144130945e+16
6.11210345367972e+16
6.09882440946078e+16
6.08522326485824e+16
6.07129895498633e+16
6.05705039409686e+16
6.04247647583268e+16
6.02757607350601e+16
6.01234804040335e+16
5.99679121011638e+16
5.98090439689986e+16
5.96468639605764e+16
5.94813598435625e+16
5.93125192046676e+16
5.91403294543609e+16
5.89647778318698e+16
5.87858514104688e+16
5.86035371030709e+16
5.84178216681127e+16
5.82286917157403e+16
5.80361337142947e+16
5.78401339970931e+16
5.76406787694916e+16
5.74377541161939e+16
5.72313460088552e+16
5.7021440314218e+16
5.6808022803011e+16
5.6591079158934e+16
5.63705949852794e+16
5.61465558074142e+16
5.59189470788896e+16
5.56877542161462e+16
5.54529626754958e+16
5.52145579766139e+16
5.49725254070884e+16
5.4726849306636e+16
5.44775127052746e+16
5.42244978570639e+16
5.39677868629144e+16
5.3707361886099e+16
5.34432052109994e+16
5.31752992641012e+16
5.29036266233132e+16
5.26281700240756e+16
5.23489123647517e+16
5.20658367120083e+16
5.17789263063702e+16
5.1488164567985e+16
5.11935351025654e+16
5.08950217074661e+16
5.05926083778633e+16
5.02862793129769e+16
4.99760189222933e+16
4.96618118317441e+16
4.93436428897835e+16
4.90214971733234e+16
4.86953599934756e+16
4.83652169010443e+16
4.80310536917276e+16
4.76928564109726e+16
4.73506113584233e+16
4.70043050919174e+16
4.66539244309733e+16
4.62994564597113e+16
4.59408885291472e+16
4.55782082588034e+16
4.52114035375753e+16
4.48404625237855e+16
4.44653736443635e+16
4.40861255930786e+16
4.37027073277592e+16
4.33151080664202e+16
4.29233172822159e+16
4.25273246971442e+16
4.21271202744091e+16
4.17226942093453e+16
4.1314036918817e+16
4.09011390289758e+16
4.04839913612668e+16
4.00625849165683e+16
3.96369108573316e+16
3.9206960487579e+16
3.87727252306127e+16
3.83341966042742e+16
3.78913661935697e+16
3.74442256204753e+16
3.69927665107146e+16
3.65369804572685e+16
3.60768589803848e+16
3.5612393483807e+16
3.51435752069193e+16
3.46703951724975e+16
3.41928441297027e+16
3.37109124919287e+16
3.32245902690839e+16
3.27338669938542e+16
3.2238731641447e+16
3.17391725422359e+16
3.12351772867484e+16
3.07267326226393e+16
3.02138243422945e+16
2.96964371603683e+16
2.91745545835898e+16
2.86481587674552e+16
2.81172303536537e+16
2.75817483109376e+16
2.70416897770412e+16
2.6497029800094e+16
2.59477410983958e+16
2.53937940947598e+16
2.4835156304319e+16
2.42717907059728e+16
2.37036550833245e+16
2.31307029179126e+16
2.25528836567251e+16
2.19701430111634e+16
2.13824220201472e+16
2.07896579124265e+16
2.01917825373764e+16
1.95887232906493e+16
1.89803995019014e+16
1.83667172930355e+16
1.77475451525103e+16
1.71225829594736e+16
1.64913113230628e+16
1.58531857193358e+16
1.52077800983537e+16
1.45547498476208e+16
1.38937402362196e+16
1.32243514558867e+16
1.25461892177908e+16
1.18589668752377e+16
1.11628030513904e+16
1.04584622085851e+16
9.74715236469122e+15
9.03051573555488e+15
8.31108125941238e+15
7.59232599110205e+15
6.87848061743036e+15
6.17478106119025e+15
5.48737512983459e+15
4.82287981226625e+15
4.18827878712061e+15
3.59052289515393e+15
3.03592650377708e+15
2.52985456877352e+15
2.07629579751637e+15
1.67743775457637e+15
1.33361926703521e+15
1.0433842718017e+15
803579710773878
609674308147920
456021861137812
336799224587973
246125927122112
178250133853711
127966572117828
89602206996580.8
61226952129533.1
41138480148448.7
26653548669999
16528923042906.1
9966049879099.3
6052152647707.4
3860739147318.54
2663386504725.32
2003935983323.82
1631411123085.45
1415225621728.34
1287709494080.78
1212197996043.63
1168146640180.13
1143543115478.7
1131021271423.25
1125741146276.52
1124463568006.34
1125180304278.88
1126632876068.16
1127807937961.81
1128088908924.53
1127070036870.27
1124477862146.75
1120170760932.89
1114092769737
1106251736474.04
1096700614170.75
1085523896732.87
1072828309158.04
1058735614107.49
1043377029002.91
1026888822885.69
1009408840355
991073761968.24
972016966508.616
952366857006.434
932245649357.054
911768003010.371
891040960064.871
870154924739.007
849189629692.357
828227812389.882
807349369602.742
786626498777.509
766123153201.468
745895152413.681
725990596789.515
706450353098.586
687308576201.575
668593241724.652
650326685016.338
632526121495.433
615204252021.04
598369676387.192
582029149392.888
566183408269.126
550827014043.649
535957173225.174
521570449316.253
507659508631.719
494215646498.537
481228867142.539
468688262676.449
456582230608.892
444898759535.047
433625775297.603
422751235081.042
412263038979.411
402148465980.869
392394667113.645
382977895292.08
373874619150.889
365073363622.095
356564429893.198
348339295656.359
340390012100.229
332709223529.146
325290195150.006
318126892141.855
311214004498.019
304547088950.789
298121397660.983
291932398462.755
285949277567.389
280142928131.414
274519581506.529
269093309845.988
263880193422.838
258888817629.348
254086474999.069
249464356050.8
245078227232.589
240944868985.335
237086993399.698
233597551607.553
230611952732.453
228407842493.627
227471668684.113
228634912207.022
)
;

boundaryField
{
    electrode
    {
        type            driftDiffusionElectronDensity;
        seec            0.05;
        Edepend         1;
        field_emission  0;
        field_enhancement_factor 55;
        work_function   5;
        value           uniform 6.38998802790998e+16;
    }
    ground
    {
        type            driftDiffusionElectronDensity;
        seec            0.05;
        Edepend         1;
        field_emission  0;
        field_enhancement_factor 55;
        work_function   5;
        value           uniform 230862967245.874;
    }
    otherfaces
    {
        type            empty;
    }
}


// ************************************************************************* //
