/*--------------------------------*- C++ -*----------------------------------*\
| =========                 |                                                 |
| \\      /  F ield         | foam-extend: Open Source CFD                    |
|  \\    /   O peration     | Version:     4.0                                |
|   \\  /    A nd           | Web:         http://www.foam-extend.org         |
|    \\/     M anipulation  |                                                 |
\*---------------------------------------------------------------------------*/
FoamFile
{
    version     2.0;
    format      ascii;
    class       volScalarField;
    location    "6.5e-06";
    object      N_electronMean;
}
// * * * * * * * * * * * * * * * * * * * * * * * * * * * * * * * * * * * * * //

dimensions      [0 0 0 1 0 0 0];

internalField   nonuniform List<scalar> 
300
(
6.05849316432944e+16
6.05834424181997e+16
6.05793450621423e+16
6.05721718490045e+16
6.05619605581865e+16
6.05486754469939e+16
6.05322968630429e+16
6.05128139934792e+16
6.04902164973069e+16
6.04644967295401e+16
6.04356491326142e+16
6.04036700165108e+16
6.03685574339928e+16
6.03303110251897e+16
6.0288931913615e+16
6.02444226026178e+16
6.01967868870052e+16
6.01460297771357e+16
6.00921574250846e+16
6.00351770547185e+16
5.99750968998246e+16
5.99119261454937e+16
5.9845674871532e+16
5.97763539945209e+16
5.97039752253589e+16
5.9628551035832e+16
5.95500945978617e+16
5.94686197230411e+16
5.93841408132085e+16
5.92966727940052e+16
5.920623107164e+16
5.91128315207348e+16
5.90164904237332e+16
5.89172243738406e+16
5.88150502050435e+16
5.87099849359368e+16
5.8602045714402e+16
5.84912497668377e+16
5.83776143427213e+16
5.82611566583156e+16
5.81418938503201e+16
5.80198429286873e+16
5.78950207206949e+16
5.77674438197687e+16
5.76371285411802e+16
5.75040908788896e+16
5.73683464652906e+16
5.72299105353128e+16
5.70887978986171e+16
5.6945022919653e+16
5.67985995166942e+16
5.66495411617787e+16
5.64978608504364e+16
5.63435710459917e+16
5.6186683600129e+16
5.60272096711921e+16
5.58651596540669e+16
5.57005431250731e+16
5.55333687996476e+16
5.53636444913348e+16
5.51913770749261e+16
5.50165724521789e+16
5.48392355138922e+16
5.46593701309527e+16
5.44769791803242e+16
5.42920645091287e+16
5.41046268406981e+16
5.39146657183713e+16
5.37221794781856e+16
5.35271652213373e+16
5.33296187865128e+16
5.31295347375903e+16
5.29269063803833e+16
5.27217257482629e+16
5.25139835516421e+16
5.23036691793812e+16
5.20907707205932e+16
5.18752749439306e+16
5.16571672378224e+16
5.14364315770404e+16
5.12130505221494e+16
5.09870051497799e+16
5.07582749850048e+16
5.05268379793282e+16
5.02926705017958e+16
5.00557473522589e+16
4.98160417316899e+16
4.95735251771529e+16
4.93281675340367e+16
4.9079936955701e+16
4.8828799879662e+16
4.85747210453704e+16
4.83176635236676e+16
4.80575886372046e+16
4.77944558860292e+16
4.75282229315052e+16
4.72588455797017e+16
4.69862777655999e+16
4.6710471537808e+16
4.6431377055128e+16
4.61489425823818e+16
4.58631144639434e+16
4.55738371314574e+16
4.52810531331585e+16
4.49847031007429e+16
4.4684725730277e+16
4.43810577872207e+16
4.407363409843e+16
4.37623875626773e+16
4.34472491331657e+16
4.3128147790138e+16
4.2805010538883e+16
4.24777624200748e+16
4.21463265389066e+16
4.18106240766873e+16
4.14705743028634e+16
4.11260946386161e+16
4.07771006899538e+16
4.04235062143493e+16
4.00652230974603e+16
3.97021613909865e+16
3.93342293709616e+16
3.89613335876135e+16
3.85833789262616e+16
3.82002686054459e+16
3.78119041311265e+16
3.74181853192343e+16
3.70190103467126e+16
3.66142757637318e+16
3.62038765172923e+16
3.57877060044061e+16
3.53656561247922e+16
3.49376173233204e+16
3.45034786302932e+16
3.40631277696613e+16
3.36164512866669e+16
3.31633345687551e+16
3.27036618199036e+16
3.22373160903336e+16
3.17641793452339e+16
3.12841325017383e+16
3.07970554600137e+16
3.0302827157933e+16
2.98013256408324e+16
2.92924281940736e+16
2.87760114610894e+16
2.8251951466279e+16
2.77201236220452e+16
2.71804027333924e+16
2.66326630738717e+16
2.60767785382593e+16
2.55126227017525e+16
2.49400688978049e+16
2.43589903911406e+16
2.37692604875789e+16
2.31707527435428e+16
2.25633412090817e+16
2.19469007817817e+16
2.13213071919541e+16
2.06864366336058e+16
2.00421628237832e+16
1.93883411932072e+16
1.87247848711441e+16
1.80512563609814e+16
1.73674687411714e+16
1.66730890215462e+16
1.59677649994161e+16
1.52511556778424e+16
1.45229361553347e+16
1.37828066022917e+16
1.30305465836453e+16
1.22661393496302e+16
1.14899379841471e+16
1.07028446613394e+16
9.90655677114595e+15
9.10377223527058e+15
8.29831045170268e+15
7.49533769355788e+15
6.70146928228498e+15
5.92457630808818e+15
5.17353620049437e+15
4.45781071563894e+15
3.78672066196955e+15
3.16870665041174e+15
2.61061130193115e+15
2.11697769249382e+15
1.6896659793776e+15
1.32780328266338e+15
1.02799169973757e+15
784831317586074
591596826843593
440929633241532
325479723728627
238394135404613
173251151083542
124873324591106
89250447882515.4
63176146901992.5
44123666500622.1
30326112429971.2
20593858489592
13823222816821.8
9184499312716.73
6156991659689.81
4299502592046.92
3217543896991.53
2601678369331.07
2247447388580.52
2036706987564.28
1905601416055
1820032439381.6
1761313176515.78
1718797208910.36
1686168183631.67
1659506166738.44
1636302174534.63
1614892732134.13
1594164986512.5
1573438126852.55
1552267889324.7
1530341422084.81
1507461168956.36
1483530484336.21
1458536454047.65
1432516947189.14
1405544782137.17
1377716458716.32
1349142437849.19
1319940986550.93
1290233486169.8
1260140938861.59
1229782075539.1
1199270684614.18
1168714565757.34
1138214812285.46
1107864760393.1
1077749510523.34
1047946336545.12
1018523921191.25
989542800921.526
961055550844.674
933105733075.278
905730309523.365
878961231244.108
852825212194.405
827343632902.165
802531760681.538
778399823339.923
754953563092.556
732194949995.967
710123706008.213
688737039427.065
668029320834.43
647992315138.126
628615853547.899
609889079121.929
591798523771.945
574327028420.423
557458305164.286
541177467200.044
525468543042.257
510314376777.346
495697565802.227
481600410329.632
468005252966.077
454894779805.226
442250908413.171
430055273883.317
418290058374.775
406937534756.668
395979561733.89
385398844176.674
375180821277.477
365313385737.997
355785215754.58
346585743994.03
337705022059.674
329133637169.067
320862963581.421
312885194287.882
305193214988.701
297779808094.744
290636979039.385
283745143896.336
277078063439.971
270627655171.413
264401359389.336
258408623913.379
252659382062.04
247139579897.091
241825391137.304
236731473248.399
231898973601.749
227327099278.488
223044432010.076
219131469698.236
215711227026.797
213037978038.519
211522186052.81
211904487784.56
)
;

boundaryField
{
    electrode
    {
        type            calculated;
        value           uniform 6.05849316434764e+16;
    }
    ground
    {
        type            calculated;
        value           uniform 213573455025.212;
    }
    otherfaces
    {
        type            empty;
    }
}


// ************************************************************************* //
