/*--------------------------------*- C++ -*----------------------------------*\
| =========                 |                                                 |
| \\      /  F ield         | foam-extend: Open Source CFD                    |
|  \\    /   O peration     | Version:     4.0                                |
|   \\  /    A nd           | Web:         http://www.foam-extend.org         |
|    \\/     M anipulation  |                                                 |
\*---------------------------------------------------------------------------*/
FoamFile
{
    version     2.0;
    format      ascii;
    class       volScalarField;
    location    "6.5e-06";
    object      Phi;
}
// * * * * * * * * * * * * * * * * * * * * * * * * * * * * * * * * * * * * * //

dimensions      [0 0 0 1 0 0 0];

internalField   nonuniform List<scalar> 
300
(
699.999926381927
699.999713122599
699.999208266064
699.998445165593
699.997432268823
699.996164223978
699.994641919604
699.992864925637
699.990832689841
699.988544732058
699.986000476586
699.98319929649
699.980140510939
699.976823381912
699.973247114932
699.969410858349
699.965313702763
699.96095468046
699.956332764781
699.951446869463
699.946295847938
699.940878492601
699.935193534038
699.929239640212
699.923015415621
699.916519400407
699.909750069439
699.90270583134
699.895385027496
699.887785931005
699.879906745602
699.871745604531
699.863300569387
699.854569628905
699.845550697716
699.836241615053
699.826640143417
699.816743967196
699.80655069124
699.796057839385
699.785262852933
699.774163089081
699.762755819302
699.751038227665
699.739007409115
699.726660367689
699.713994014671
699.701005166703
699.687690543818
699.674046767424
699.66007035821
699.645757733996
699.631105207506
699.616108984066
699.600765159229
699.585069716322
699.569018523902
699.552607333136
699.535831775082
699.518687357875
699.501169463821
699.48327334638
699.464994127041
699.446326792087
699.427266189236
699.40780702415
699.3879438568
699.367671097707
699.34698300413
699.325873676178
699.304337052526
699.282366905092
699.259956832825
699.237100258024
699.213790431831
699.190020445202
699.165783205382
699.141071320362
699.115876984868
699.090192115367
699.064008409933
699.037317347058
699.01011017876
698.982377922809
698.954111354181
698.925300996036
698.895937110255
698.866009687554
698.835508437125
698.804422775801
698.772741816692
698.740454357265
698.707548866826
698.674013473368
698.639835949729
698.605003699029
698.569503739312
698.533322687369
698.496446741649
698.458861664223
698.420552761712
698.381504865127
698.341702308516
698.301128906353
698.25976792957
698.217602080123
698.174613464003
698.130783562551
698.086093201964
698.040522520857
697.994050935706
697.946657104036
697.898318885158
697.849013298255
697.798716477613
697.747403624757
697.695048957232
697.641625653744
697.587105795361
697.531460302411
697.474658866722
697.416669878764
697.357460349258
697.29699582471
697.235240296334
697.172156101716
697.10770381853
697.041842149518
696.974527797876
696.90571533207
696.835357038987
696.763402764218
696.68979973808
696.614492385857
696.537422120497
696.458527115806
696.377742057914
696.294997872469
696.210221424685
696.123335188965
696.034256884295
695.942899071244
695.849168705635
695.752966642371
695.654187084688
695.552716971313
695.448435285814
695.341212286487
695.230908660471
695.117374542778
695.000448349572
694.879955674141
694.755708008425
694.627500415561
694.495109502122
694.358291843662
694.21678178606
694.070288262574
693.918492626005
693.76104248483
693.597552297518
693.427589455256
693.25068253212
693.066291805858
692.873833921936
692.672596212229
692.461625202661
692.239851658861
692.00614224228
691.759217487502
691.497604854071
691.21951184952
690.922860911704
690.605156761188
690.263581521287
689.895258055232
689.496910091225
689.064464071791
688.59369848262
688.08036021808
687.519298472319
686.905156605677
686.232933198844
685.496712461377
684.6909657035
683.810504913817
682.849916685045
681.804253811209
680.669679315368
679.442118957151
678.118311023219
676.69624664156
675.174336080498
673.551091423837
671.825931789063
669.999094138142
668.071017379697
666.041946921444
663.912380429951
661.682352408657
659.352644136115
656.923304990084
654.393452708212
651.762523241058
649.029681408436
646.194937759427
643.258699352084
640.221801757957
637.085202279327
633.84988957233
630.51681383909
627.086861292859
623.560834468573
619.939446566017
616.223766848705
612.414804657278
608.513500530209
604.520692663792
600.437163179472
596.263601659879
592.000652833388
587.648876494363
583.208799183485
578.68086902222
574.065510813309
569.36307628773
564.574220142418
559.699518515771
554.739548342516
549.694810536303
544.565814094327
539.352995105351
534.056803732397
528.677619651755
523.215841872521
517.671800830374
512.045851162488
506.338280343609
500.549404196959
494.67947196845
488.728764900145
482.697497480749
476.585955771153
470.394532045565
464.123652007007
457.773676736753
451.345003639129
444.83796552391
438.252934267421
431.590217006358
424.850162500732
418.033054519777
411.139221067858
404.168924556042
397.122474104988
390.00011240604
382.802131181573
375.528754694806
368.180258145694
360.75684819473
353.258784265709
345.686256190362
338.039508139629
330.31871378176
322.524102548035
314.655832734759
306.714175390957
298.699407627076
290.611864213418
282.451806776508
274.219555914946
265.915358534728
257.539521745404
249.092278635439
240.573923644738
231.984676846472
223.324820847318
214.594563332456
205.794175816607
196.923854323344
187.983859792831
178.97437705075
169.89565688986
160.747873307069
151.531267345106
142.246002857059
132.892311694694
123.470348013892
113.980334977392
104.42241751598
94.7968105766259
85.1036503093856
75.3431441697709
65.5154201398515
55.6206784706975
45.6590395454297
35.6306973481863
25.5357652414321
15.3744320380631
5.1468051068383
)
;

boundaryField
{
    electrode
    {
        type            fixedValue;
        value           uniform 700;
    }
    ground
    {
        type            fixedValue;
        value           uniform 0;
    }
    otherfaces
    {
        type            empty;
    }
}


// ************************************************************************* //
