/*--------------------------------*- C++ -*----------------------------------*\
| =========                 |                                                 |
| \\      /  F ield         | foam-extend: Open Source CFD                    |
|  \\    /   O peration     | Version:     4.0                                |
|   \\  /    A nd           | Web:         http://www.foam-extend.org         |
|    \\/     M anipulation  |                                                 |
\*---------------------------------------------------------------------------*/
FoamFile
{
    version     2.0;
    format      ascii;
    class       volScalarField;
    location    "6.5e-06";
    object      Sy_electron;
}
// * * * * * * * * * * * * * * * * * * * * * * * * * * * * * * * * * * * * * //

dimensions      [1 -3 -1 0 0 0 0];

internalField   nonuniform List<scalar> 
300
(
3.32745083653927e-09
3.32821225980412e-09
3.32850558554514e-09
3.32843916993843e-09
3.32839667630524e-09
3.32830369477119e-09
3.32816953353758e-09
3.32799913077705e-09
3.32779008228296e-09
3.32754253403921e-09
3.32725619172752e-09
3.32693066650366e-09
3.32656561259263e-09
3.32616065290577e-09
3.32571539503213e-09
3.32522943151192e-09
3.32470233818032e-09
3.324133674462e-09
3.32352298308826e-09
3.32286978985308e-09
3.32217360339736e-09
3.32143391496882e-09
3.32065019816779e-09
3.3198219087071e-09
3.31894848412354e-09
3.31802934358584e-09
3.31706388755642e-09
3.31605149752943e-09
3.31499153577697e-09
3.31388334503172e-09
3.31272624817337e-09
3.31151954800257e-09
3.31026252691876e-09
3.30895444657747e-09
3.30759454760018e-09
3.30618204926642e-09
3.30471614918822e-09
3.30319602300996e-09
3.3016208240783e-09
3.29998968311052e-09
3.29830170786945e-09
3.29655598284798e-09
3.29475156892466e-09
3.2928875030276e-09
3.2909627978137e-09
3.28897644132524e-09
3.28692739664584e-09
3.28481460157483e-09
3.28263696826654e-09
3.28039338291537e-09
3.27808270539029e-09
3.27570376894727e-09
3.27325537981461e-09
3.2707363169222e-09
3.26814533149918e-09
3.26548114675443e-09
3.26274245750025e-09
3.25992792981913e-09
3.25703620071575e-09
3.25406587776383e-09
3.25101553875411e-09
3.24788373133781e-09
3.24466897265942e-09
3.24136974899023e-09
3.237984515446e-09
3.23451169557832e-09
3.23094968073912e-09
3.22729682954982e-09
3.22355146808902e-09
3.21971189145829e-09
3.2157763646867e-09
3.21174311582399e-09
3.20761031543304e-09
3.20337606627341e-09
3.199038482771e-09
3.19459590542682e-09
3.1900469690654e-09
3.18616928286284e-09
3.18303409933692e-09
3.17980846370251e-09
3.17649000311026e-09
3.17307645023198e-09
3.16956553457309e-09
3.16595495804693e-09
3.16224238614311e-09
3.15842544453289e-09
3.15450171716104e-09
3.15046874478581e-09
3.14632402363546e-09
3.14206500412869e-09
3.13768908945935e-09
3.13319363413493e-09
3.12857594270835e-09
3.12383326800777e-09
3.1189628096039e-09
3.11396171212307e-09
3.10882706345627e-09
3.10355589290603e-09
3.09814516919573e-09
3.09259179841568e-09
3.0868926218293e-09
3.08104441353739e-09
3.07504387798298e-09
3.0688876474736e-09
3.06257227929591e-09
3.05609425283395e-09
3.04944996649629e-09
3.04263573433627e-09
3.03564778261895e-09
3.0284822460475e-09
3.02113516378288e-09
3.01360247521801e-09
3.00588001546032e-09
2.99796351053591e-09
2.98984857226027e-09
2.98153069274725e-09
2.97300523858362e-09
2.96426744465944e-09
2.95531240741684e-09
2.94613507775152e-09
2.9367302533924e-09
2.92709257082812e-09
2.91721649649756e-09
2.90709631756055e-09
2.89672613184772e-09
2.88609983713675e-09
2.87521111964549e-09
2.86405344178815e-09
2.85262002885636e-09
2.84090385484503e-09
2.82889762713567e-09
2.81659377010291e-09
2.80398440740552e-09
2.79106134291932e-09
2.77781604022957e-09
2.76423960057547e-09
2.75032273889754e-09
2.73605575803465e-09
2.72142852097749e-09
2.70643042077792e-09
2.69105034753648e-09
2.67527665417185e-09
2.65909711829543e-09
2.64249889642015e-09
2.62546848576601e-09
2.60799168415751e-09
2.59005350231349e-09
2.57163810748545e-09
2.55272891746729e-09
2.53330835627483e-09
2.51335736320293e-09
2.49285676488636e-09
2.47208097589174e-09
2.45228192638993e-09
2.43188833811806e-09
2.41087409597875e-09
2.38921140264058e-09
2.36687291312992e-09
2.34382635666337e-09
2.32004178729922e-09
2.29548314519361e-09
2.27012041297197e-09
2.24392618926267e-09
2.21690995111418e-09
2.18930885348929e-09
2.16120887382079e-09
2.13212939127346e-09
2.10163804137862e-09
2.06971059710927e-09
2.0364790817583e-09
2.00197284609108e-09
1.96601221977644e-09
1.92827719167269e-09
1.88637358787018e-09
1.83857069686035e-09
1.78775165667511e-09
1.73407449219646e-09
1.67632483135021e-09
1.61431418602778e-09
1.54891239761309e-09
1.47969029248874e-09
1.40718303053367e-09
1.3298583476877e-09
1.24783451403764e-09
1.16850203123183e-09
1.09588616312666e-09
1.03369679622846e-09
9.69596481142345e-10
9.24880930317519e-10
8.9494558584007e-10
8.87041261238742e-10
8.97530973781755e-10
9.41430452785804e-10
1.02963541294753e-09
1.17185383232465e-09
1.40688425805938e-09
1.79012226407845e-09
2.42814665003228e-09
3.55136335544651e-09
4.84533572214799e-09
5.98009155317247e-09
7.20924101393984e-09
7.45209352839533e-09
6.69414189267583e-09
5.41908976669395e-09
4.13413556270545e-09
3.13883780325942e-09
2.43202761381378e-09
1.97914414563971e-09
1.6999473672113e-09
1.52245710242093e-09
1.4194018365812e-09
1.35630728039792e-09
1.32418467539529e-09
1.30747292041847e-09
1.30013421054502e-09
1.30015436593834e-09
1.30405025848508e-09
1.30966032863925e-09
1.31563449460578e-09
1.32086749532322e-09
1.32355903122819e-09
1.32387061226954e-09
1.32220508048842e-09
1.31840951453491e-09
1.3124285448533e-09
1.30427979831516e-09
1.29403244463151e-09
1.28179163941126e-09
1.26768787721133e-09
1.25186873010161e-09
1.23449242678409e-09
1.2157227772721e-09
1.19572516116187e-09
1.17466336049135e-09
1.15269708758888e-09
1.12998004423982e-09
1.10665852844592e-09
1.08286981169026e-09
1.05874224099254e-09
1.0343841188618e-09
1.00989091212279e-09
9.85362056565808e-10
9.60893651623788e-10
9.36572598897026e-10
9.12476013785276e-10
8.88671357006342e-10
8.65216926464742e-10
8.42162428580764e-10
8.19549593432609e-10
7.97412801649077e-10
7.7577972037696e-10
7.54671914359285e-10
7.34105566045521e-10
7.14091929185733e-10
6.9464009317922e-10
6.75751383259508e-10
6.57421494938935e-10
6.39647360737232e-10
6.22425867365538e-10
6.05749114255185e-10
5.89607575163302e-10
5.73990141598949e-10
5.58884582110525e-10
5.44277796019176e-10
5.30156153608956e-10
5.16505912540573e-10
5.03313328871929e-10
4.90564554819307e-10
4.78244943421366e-10
4.66339824487407e-10
4.54821289145058e-10
4.43661662893565e-10
4.32847856711701e-10
4.22368670354259e-10
4.12214247144153e-10
4.023753432079e-10
3.92843356235319e-10
3.83610351074319e-10
3.74669147164044e-10
3.66013335512065e-10
3.57637452549978e-10
3.49535551457662e-10
3.41091307823734e-10
3.32840742194305e-10
3.24778867496586e-10
3.16912440210856e-10
3.09256004187565e-10
3.0182575857484e-10
2.94305553358276e-10
2.86039618274261e-10
2.77944140443996e-10
2.70075121056306e-10
2.61425080352334e-10
2.51885810213897e-10
2.42503232642885e-10
2.30342479812293e-10
2.16851883049198e-10
1.99758321288474e-10
1.75294531982302e-10
)
;

boundaryField
{
    electrode
    {
        type            zeroGradient;
    }
    ground
    {
        type            zeroGradient;
    }
    otherfaces
    {
        type            empty;
    }
}


// ************************************************************************* //
