/*--------------------------------*- C++ -*----------------------------------*\
| =========                 |                                                 |
| \\      /  F ield         | foam-extend: Open Source CFD                    |
|  \\    /   O peration     | Version:     4.0                                |
|   \\  /    A nd           | Web:         http://www.foam-extend.org         |
|    \\/     M anipulation  |                                                 |
\*---------------------------------------------------------------------------*/
FoamFile
{
    version     2.0;
    format      ascii;
    class       volScalarField;
    location    "6.5e-06";
    object      TeMean;
}
// * * * * * * * * * * * * * * * * * * * * * * * * * * * * * * * * * * * * * //

dimensions      [0 0 0 1 0 0 0];

internalField   nonuniform List<scalar> 
300
(
35335.1733977556
35335.4662362803
35335.5945453891
35335.5925497909
35335.6095355921
35335.6248147691
35335.6412809588
35335.6617309762
35335.6861884799
35335.7153021762
35335.7496288066
35335.7896913654
35335.8360062511
35335.8890583467
35335.9493179703
35336.0172394614
35336.0932598494
35336.1778035555
35336.2712819405
35336.3740931274
35336.4866247407
35336.6092518437
35336.7423392952
35336.8862410452
35337.0412997406
35337.2078575615
35337.3862490454
35337.5767984925
35337.7798284338
35337.995648207
35338.2245526976
35338.4668464863
35338.7228414593
35338.9928375208
35339.2771281264
35339.5759963532
35339.889722817
35340.2185944097
35340.5628957477
35340.9229047594
35341.2988946527
35341.6911451087
35342.0999342835
35342.5255360845
35342.9682236684
35343.4282692108
35343.9059434998
35344.401515067
35344.9152470615
35345.4473972053
35345.9982180534
35346.5679715
35347.156937015
35347.7653936433
35348.3936248156
35349.041924283
35349.7105806099
35350.399879208
35351.1101151673
35351.8415871275
35352.5945958244
35353.3694531079
35354.1664581901
35354.9859078166
35355.8281311086
35356.6934750617
35357.5822863907
35358.494913612
35359.4317108366
35360.3930427214
35361.3792766685
35362.3907743685
35363.4279175424
35364.4911044977
35365.5807292734
35366.6971839069
35367.8408851329
35369.0122817093
35370.2118183211
35371.4399429302
35372.6971403584
35373.983911822
35375.3007534996
35376.6481641433
35378.026654933
35379.436772113
35380.8790929456
35382.3541987939
35383.8626776712
35385.4051438147
35386.9822164321
35388.5945314656
35390.2427895609
35391.9276963625
35393.6499670188
35395.4103604984
35397.2096515865
35399.0486418948
35400.928155216
35402.8490468046
35404.8122189163
35406.8185770247
35408.8690563208
35410.9646601902
35413.1064229474
35415.2954098244
35417.5327211124
35419.8195011165
35422.1569510356
35424.5463161539
35426.9888911354
35429.4860200161
35432.0390927033
35434.6495767655
35437.3189897716
35440.0488990341
35442.8409343779
35445.6968177561
35448.6183674884
35451.6074419128
35454.6659764865
35457.7960078317
35460.9996609105
35464.2791776399
35467.6369295247
35471.0753840986
35474.5971044458
35478.2048008238
35481.9013356016
35485.6896941949
35489.5730139688
35493.5546186112
35497.6380244205
35501.8268989497
35506.1251072371
35510.5368056185
35515.066414558
35519.7186068926
35524.4983450652
35529.4109179482
35534.4619696879
35539.6575218518
35545.0040065666
35550.5082983941
35556.1778008503
35562.0205310716
35568.0451565613
35574.2610719433
35580.6784114982
35587.3081813596
35594.1624664787
35601.2544677397
35608.5986469426
35616.2109997433
35624.1091459862
35632.3126902404
35640.8434678919
35649.7262776534
35658.9894665712
35668.6674848366
35678.81152737
35689.4883828351
35700.7593496569
35712.6843722805
35725.3322508319
35738.7643943593
35753.0553612923
35768.3269120458
35784.7267248134
35802.3846988933
35821.3789008155
35841.7848802959
35863.7206994047
35887.2231304568
35912.3639983512
35939.4061987542
35968.4633612653
35999.7259360831
36033.9846937624
36072.2910622138
36116.2675331563
36169.0700800472
36235.3822288574
36322.1365620756
36440.3397031011
36606.0211039823
36842.384566535
37184.1613331167
37682.8327054022
38415.887310317
39502.7466391937
41131.532311534
43606.1075074595
47508.5918830738
53427.7782870829
61772.3683532076
73906.4085810245
90494.5212990547
112768.3204667
141135.342264061
175683.394152633
215612.806001049
259713.977588688
306905.075275726
356188.471316465
406517.654312253
456576.953076753
504812.124723376
549853.585233318
590840.847135325
627461.866870563
659828.28729511
688312.779647242
713400.732228134
735565.754416355
755251.022993784
772869.593247174
788768.221837224
803226.940219904
816475.806628336
828698.134182645
840044.127852136
850648.515931836
860622.495877889
870056.440024154
879024.453220869
887587.596777388
895795.925632841
903690.238408395
911303.579719716
918662.394493939
925787.477688096
932694.748284937
939395.815318934
945898.553006444
952207.609204396
958324.72676314
964249.08575228
969977.580636495
975505.130426952
980824.893357753
985927.900467841
990803.634962252
995440.833597571
999827.182748294
1003949.40738479
1007793.09763739
1011343.04413656
1014583.46430689
1017497.72673821
1020069.10842325
1022280.62769641
1024114.62776633
1025553.10797314
1026577.51912143
1027168.97687204
1027303.92399735
1026971.8254316
1026153.8731844
1024827.66953783
1022973.51643191
1020571.52303264
1017601.78893049
1014044.20705477
1009878.43173507
1005084.20590387
999640.589371613
993526.087481663
986719.521095712
979199.205781263
970942.499060844
961925.765694061
952125.320733762
941516.607685888
930073.305631759
917767.813551061
904571.067941784
890452.377027064
875379.241906972
859317.07906276
842229.109571835
824076.111951205
804820.230430062
784417.362374634
762813.56462053
739955.114940631
715780.407565959
690214.551070549
663183.118167216
634599.908895198
604357.062542353
572333.245437047
538392.204543681
502351.865092979
463992.171402937
423035.463258423
379090.527986952
331619.799539619
279838.114347655
222709.421202331
)
;

boundaryField
{
    electrode
    {
        type            calculated;
        value           uniform 35335.1733977574;
    }
    ground
    {
        type            calculated;
        value           uniform 190312.73279673;
    }
    otherfaces
    {
        type            empty;
    }
}


// ************************************************************************* //
