/*--------------------------------*- C++ -*----------------------------------*\
| =========                 |                                                 |
| \\      /  F ield         | foam-extend: Open Source CFD                    |
|  \\    /   O peration     | Version:     4.0                                |
|   \\  /    A nd           | Web:         http://www.foam-extend.org         |
|    \\/     M anipulation  |                                                 |
\*---------------------------------------------------------------------------*/
FoamFile
{
    version     2.0;
    format      ascii;
    class       volScalarField;
    location    "3e-07";
    object      Ar;
}
// * * * * * * * * * * * * * * * * * * * * * * * * * * * * * * * * * * * * * //

dimensions      [0 0 0 1 0 0 0];

internalField   nonuniform List<scalar> 
300
(
3.21880302705291e+22
3.21880302179744e+22
3.21880302717318e+22
3.21880302700739e+22
3.21880302920701e+22
3.21880303232566e+22
3.21880303574263e+22
3.21880303992491e+22
3.21880304483305e+22
3.21880305044235e+22
3.21880305677825e+22
3.21880306385381e+22
3.21880307168422e+22
3.21880308028194e+22
3.21880308965937e+22
3.21880309982767e+22
3.21880311079695e+22
3.21880312257508e+22
3.2188031351682e+22
3.21880314858081e+22
3.21880316281535e+22
3.21880317787239e+22
3.21880319375077e+22
3.21880321044676e+22
3.21880322795774e+22
3.21880324627516e+22
3.21880326539108e+22
3.21880328529624e+22
3.21880330597889e+22
3.21880332742629e+22
3.21880334962787e+22
3.21880337256862e+22
3.21880339623216e+22
3.21880342060337e+22
3.21880344566618e+22
3.21880347140418e+22
3.21880349780138e+22
3.21880352484079e+22
3.21880355250527e+22
3.21880358077804e+22
3.21880360964249e+22
3.21880363908162e+22
3.21880366907902e+22
3.21880369961833e+22
3.21880373068347e+22
3.21880376225861e+22
3.21880379432848e+22
3.21880382687792e+22
3.21880385989337e+22
3.21880389336007e+22
3.21880392726625e+22
3.21880396159592e+22
3.21880399633737e+22
3.21880403147501e+22
3.21880406699603e+22
3.21880410288615e+22
3.21880413913328e+22
3.21880417572556e+22
3.21880421265146e+22
3.21880424990008e+22
3.21880428746036e+22
3.21880432532238e+22
3.21880436347581e+22
3.21880440191364e+22
3.21880444062644e+22
3.21880447960215e+22
3.21880451883274e+22
3.21880455830974e+22
3.21880459802509e+22
3.2188046379716e+22
3.21880467814181e+22
3.2188047185298e+22
3.21880475912983e+22
3.21880479993434e+22
3.21880484093915e+22
3.21880488213925e+22
3.21880492352791e+22
3.21880496510251e+22
3.21880500685404e+22
3.21880504878456e+22
3.2188050908847e+22
3.2188051331517e+22
3.21880517558348e+22
3.21880521817622e+22
3.21880526093019e+22
3.21880530384265e+22
3.21880534691112e+22
3.21880539013462e+22
3.2188054335144e+22
3.21880547705029e+22
3.21880552074164e+22
3.21880556459723e+22
3.21880560861088e+22
3.21880565278589e+22
3.21880569712538e+22
3.21880574163267e+22
3.21880578631256e+22
3.2188058311699e+22
3.21880587621172e+22
3.21880592144467e+22
3.21880596687608e+22
3.21880601251256e+22
3.21880605836871e+22
3.21880610445001e+22
3.21880615076878e+22
3.21880619733915e+22
3.21880624417112e+22
3.21880629128244e+22
3.21880633868685e+22
3.21880638640048e+22
3.21880643444203e+22
3.21880648283059e+22
3.21880653158787e+22
3.21880658073708e+22
3.21880663030122e+22
3.21880668030828e+22
3.21880673078776e+22
3.2188067817656e+22
3.21880683327359e+22
3.21880688534452e+22
3.2188069380183e+22
3.21880699132876e+22
3.21880704532057e+22
3.21880710003444e+22
3.21880715551431e+22
3.21880721180749e+22
3.2188072689688e+22
3.21880732704872e+22
3.2188073861057e+22
3.21880744619956e+22
3.21880750739508e+22
3.21880756975931e+22
3.21880763336343e+22
3.21880769828199e+22
3.21880776459821e+22
3.21880783239027e+22
3.21880790174254e+22
3.2188079727457e+22
3.21880804549512e+22
3.21880812008478e+22
3.21880819661571e+22
3.21880827519292e+22
3.21880835592553e+22
3.21880843892461e+22
3.2188085243064e+22
3.21880861218078e+22
3.21880870266586e+22
3.21880879588183e+22
3.21880889194642e+22
3.21880899098545e+22
3.21880909311609e+22
3.21880919845253e+22
3.21880930711996e+22
3.21880941922616e+22
3.21880953487991e+22
3.21880965418654e+22
3.21880977724225e+22
3.21880990413591e+22
3.21881003494201e+22
3.21881016972647e+22
3.21881030854974e+22
3.21881045147882e+22
3.21881059852692e+22
3.2188107494728e+22
3.21881090460014e+22
3.21881106459546e+22
3.21881122821137e+22
3.21881139309476e+22
3.21881156141391e+22
3.21881173528752e+22
3.21881191197979e+22
3.21881208911768e+22
3.21881226799238e+22
3.2188124529275e+22
3.21881263847201e+22
3.21881282340785e+22
3.21881301230925e+22
3.21881319739938e+22
3.21881338191913e+22
3.21881356107756e+22
3.21881373545179e+22
3.21881390135196e+22
3.21881405633898e+22
3.21881419856204e+22
3.21881432184666e+22
3.21881444568275e+22
3.21881454486617e+22
3.21881461076947e+22
3.21881467953482e+22
3.21881474979954e+22
3.21881479238793e+22
3.21881481681064e+22
3.21881483902405e+22
3.21881486940361e+22
3.21881489475967e+22
3.21881490552896e+22
3.21881491594902e+22
3.21881493350103e+22
3.21881494539789e+22
3.21881495445097e+22
3.21881496816693e+22
3.21881498110497e+22
3.21881498970924e+22
3.21881499979937e+22
3.21881501271284e+22
3.21881502546138e+22
3.21881503604323e+22
3.21881504688228e+22
3.21881505905529e+22
3.2188150696559e+22
3.2188150806857e+22
3.21881509234869e+22
3.21881510140552e+22
3.21881511097136e+22
3.21881512256579e+22
3.21881513397768e+22
3.21881514490501e+22
3.21881515532275e+22
3.21881516539481e+22
3.21881517519535e+22
3.21881518491779e+22
3.21881519463121e+22
3.21881520425593e+22
3.21881521379432e+22
3.21881522305442e+22
3.21881523204657e+22
3.21881524057373e+22
3.21881524888732e+22
3.21881525675395e+22
3.21881526443432e+22
3.21881527191759e+22
3.21881527912269e+22
3.21881528677408e+22
3.21881529448009e+22
3.21881530200227e+22
3.21881530936839e+22
3.21881531657397e+22
3.21881532361602e+22
3.21881533050281e+22
3.21881533724728e+22
3.21881534385538e+22
3.21881535031524e+22
3.21881535662236e+22
3.21881536277227e+22
3.21881536878108e+22
3.21881537464584e+22
3.2188153803767e+22
3.21881538596515e+22
3.21881539141323e+22
3.21881539671842e+22
3.21881540188656e+22
3.21881540692711e+22
3.21881541183925e+22
3.21881541662563e+22
3.21881542127915e+22
3.21881542579818e+22
3.21881543017968e+22
3.21881543442741e+22
3.21881543854652e+22
3.21881544254202e+22
3.21881544641667e+22
3.21881545017984e+22
3.21881545383454e+22
3.21881545738713e+22
3.21881546083976e+22
3.21881546419666e+22
3.21881546746242e+22
3.21881547064087e+22
3.21881547372813e+22
3.21881547673489e+22
3.21881547964651e+22
3.21881548248189e+22
3.21881548521235e+22
3.21881548790282e+22
3.2188154904455e+22
3.21881549300351e+22
3.21881549535431e+22
3.21881549778856e+22
3.21881549995013e+22
3.21881550226589e+22
3.21881550426791e+22
3.21881550645248e+22
3.21881550831106e+22
3.2188155103856e+22
3.2188155120931e+22
3.21881551408174e+22
3.21881551564626e+22
3.21881551753654e+22
3.21881551895246e+22
3.21881552073635e+22
3.21881552199925e+22
3.21881552370714e+22
3.21881552483834e+22
3.21881552647419e+22
3.21881552747099e+22
3.21881552903941e+22
3.21881552989962e+22
3.21881553140704e+22
3.2188155321415e+22
3.21881553389329e+22
)
;

boundaryField
{
    electrode
    {
        type            zeroGradient;
    }
    ground
    {
        type            zeroGradient;
    }
    otherfaces
    {
        type            empty;
    }
}


// ************************************************************************* //
