/*--------------------------------*- C++ -*----------------------------------*\
| =========                 |                                                 |
| \\      /  F ield         | foam-extend: Open Source CFD                    |
|  \\    /   O peration     | Version:     4.0                                |
|   \\  /    A nd           | Web:         http://www.foam-extend.org         |
|    \\/     M anipulation  |                                                 |
\*---------------------------------------------------------------------------*/
FoamFile
{
    version     2.0;
    format      ascii;
    class       volScalarField;
    location    "3e-07";
    object      Arm;
}
// * * * * * * * * * * * * * * * * * * * * * * * * * * * * * * * * * * * * * //

dimensions      [0 0 0 1 0 0 0];

internalField   nonuniform List<scalar> 
300
(
3.57416969929704e+15
3.57605066007785e+15
3.57800092709427e+15
3.57930659608702e+15
3.58012271441358e+15
3.58050114542869e+15
3.58048610739199e+15
3.58010902364321e+15
3.57939554818874e+15
3.57836767107753e+15
3.57704115641741e+15
3.57543009119147e+15
3.57354652751662e+15
3.57140106744201e+15
3.56900316751599e+15
3.56636137921999e+15
3.56348050856308e+15
3.56036915159758e+15
3.55703565367866e+15
3.55348649071462e+15
3.549727864182e+15
3.54576569581565e+15
3.54160567562427e+15
3.53725328783199e+15
3.53269775386369e+15
3.52795690973638e+15
3.52303443020163e+15
3.51793230000418e+15
3.51266415887479e+15
3.50723491107053e+15
3.50163069621793e+15
3.4958629314576e+15
3.48994976875949e+15
3.48389656249212e+15
3.47770839894194e+15
3.47139008984504e+15
3.46494178362188e+15
3.45837001002813e+15
3.45168184765383e+15
3.44488082381111e+15
3.4379704380575e+15
3.43095597404774e+15
3.42384130990516e+15
3.41663013730915e+15
3.40932595658325e+15
3.40193203632838e+15
3.39444931464589e+15
3.38687926239132e+15
3.37921407989576e+15
3.37145239796523e+15
3.36358152869728e+15
3.35561407760665e+15
3.34754455575393e+15
3.33939075863502e+15
3.33116077810966e+15
3.32287103501031e+15
3.31452480069405e+15
3.30612499133443e+15
3.29767418323658e+15
3.28917278025361e+15
3.28062511212592e+15
3.27203329755173e+15
3.26339401299009e+15
3.25468920974969e+15
3.24592286691364e+15
3.23712067627065e+15
3.22828467672408e+15
3.2194167080845e+15
3.21051835614677e+15
3.20159098511882e+15
3.19263375911645e+15
3.18363949878795e+15
3.17460665929702e+15
3.16554275732905e+15
3.15643416616469e+15
3.14728196658278e+15
3.13809253949998e+15
3.12886167273803e+15
3.11960952333312e+15
3.11030525624994e+15
3.10098369025804e+15
3.09164688685227e+15
3.08229173688359e+15
3.0729205541992e+15
3.0635184250022e+15
3.05409313539651e+15
3.04465642747289e+15
3.03520862359241e+15
3.02573773728409e+15
3.01625160231914e+15
3.00674426411917e+15
2.99717033568548e+15
2.98758545684952e+15
2.97799114194203e+15
2.96838741624634e+15
2.95877430644052e+15
2.94915159413824e+15
2.93951887123496e+15
2.92986515059327e+15
2.92019038197771e+15
2.91050085545053e+15
2.90079791785418e+15
2.8910495792563e+15
2.8812853044014e+15
2.87149578224915e+15
2.86167160910987e+15
2.85182794936523e+15
2.84194503502193e+15
2.83203337426912e+15
2.82209842435421e+15
2.81213829864489e+15
2.80215072269557e+15
2.79212792963527e+15
2.78206772039222e+15
2.77196791115113e+15
2.76181081572295e+15
2.75157743987579e+15
2.74129274538899e+15
2.73095756959192e+15
2.72056385524244e+15
2.71008507557365e+15
2.69953438761945e+15
2.6888826079239e+15
2.67814022258134e+15
2.66731869761672e+15
2.65641586168401e+15
2.64540343218344e+15
2.63429902090159e+15
2.62309171130779e+15
2.61177951591809e+15
2.6003467306769e+15
2.58878951638303e+15
2.57710292273158e+15
2.56526083706534e+15
2.55322663812084e+15
2.54101934908184e+15
2.52864292669466e+15
2.51607224375658e+15
2.50328838976113e+15
2.49030061270141e+15
2.47709286706187e+15
2.46364853306089e+15
2.44993542825854e+15
2.43592143613516e+15
2.42158185542952e+15
2.40693667525597e+15
2.3919709488492e+15
2.37666834252595e+15
2.36099832897078e+15
2.34491182749486e+15
2.32842150298061e+15
2.31150260790125e+15
2.29409263875005e+15
2.2761905944038e+15
2.25777825258465e+15
2.23880579336381e+15
2.21922987955774e+15
2.19905010587658e+15
2.17824734388169e+15
2.15677654931584e+15
2.13460208912578e+15
2.11170897647171e+15
2.08805878199779e+15
2.0636642315376e+15
2.03851236879001e+15
2.01254834518155e+15
1.98579310549262e+15
1.95829131277054e+15
1.93007186682646e+15
1.90117670458193e+15
1.87167457637319e+15
1.84159858425203e+15
1.81104106393056e+15
1.78017366273324e+15
1.74919044031423e+15
1.71826116572914e+15
1.6875650019472e+15
1.65730090082347e+15
1.62770795846016e+15
1.59894154659633e+15
1.5711559502782e+15
1.54449834026297e+15
1.5190498293738e+15
1.49492552306374e+15
1.47212513283628e+15
1.45055773620865e+15
1.43026323618834e+15
1.41118987979737e+15
1.39324858909524e+15
1.37635005237849e+15
1.36037223967867e+15
1.3452681071805e+15
1.33102219803706e+15
1.31756501815444e+15
1.30491981023904e+15
1.29319717345869e+15
1.28240387843607e+15
1.27219012890524e+15
1.26217113430063e+15
1.25205061391178e+15
1.24195850817693e+15
1.23220538297809e+15
1.22294595288185e+15
1.2142051072752e+15
1.20590041707705e+15
1.19795723385368e+15
1.19037716931115e+15
1.18311399496743e+15
1.17613580260745e+15
1.16942936127592e+15
1.1629755890924e+15
1.15676693914303e+15
1.15078750999566e+15
1.14500637798284e+15
1.13944960840301e+15
1.13409297405007e+15
1.1289079459667e+15
1.12391917721416e+15
1.11910266541132e+15
1.11444820184739e+15
1.1099605768486e+15
1.10562252115945e+15
1.10143434630414e+15
1.09739249652985e+15
1.09348408536393e+15
1.08970746821274e+15
1.0860688672943e+15
1.08255220957127e+15
1.0791565809838e+15
1.07588704344158e+15
1.0727262965917e+15
1.06967361543643e+15
1.06673390041948e+15
1.06389601249854e+15
1.06115314239852e+15
1.0585160785645e+15
1.05596314331703e+15
1.05350819981224e+15
1.05113487926164e+15
1.0488490631327e+15
1.04664677895723e+15
1.04451609456734e+15
1.04246810713011e+15
1.04048501299395e+15
1.03856961557106e+15
1.03673430763451e+15
1.03496243354382e+15
1.03325930000363e+15
1.03162517256085e+15
1.03005004525642e+15
1.02853905093394e+15
1.0270863064153e+15
1.02568765879288e+15
1.02434743197555e+15
1.02305844954367e+15
1.02181976421329e+15
1.02063168499647e+15
1.01948084452186e+15
1.01837824786487e+15
1.01731830795456e+15
1.01630895408827e+15
1.01533990232077e+15
1.0144164988559e+15
1.01353295222498e+15
1.01268954912118e+15
1.0118850633372e+15
1.01111472203e+15
1.01037852079173e+15
1.00966871281991e+15
1.00899423598919e+15
1.00835017930129e+15
1.00774442801649e+15
1.00716587453317e+15
1.00662219089104e+15
1.0061030399283e+15
1.00560882388665e+15
1.00513932564242e+15
1.00469596401839e+15
1.00428207421001e+15
1.00389255040758e+15
1.00352766223792e+15
1.0031820134237e+15
1.00285543481088e+15
1.00255424129458e+15
1.00227680129676e+15
1.00201421921336e+15
1.00177294874339e+15
1.00155338336725e+15
1.00134987205089e+15
1.00116352049472e+15
1.00099717368246e+15
1.0008463067538e+15
1.00071198440157e+15
1.00059349740835e+15
1.00049021743324e+15
1.00040055791332e+15
1.00032354336493e+15
1.00025669146196e+15
1.0001967234302e+15
1.00013784713879e+15
)
;

boundaryField
{
    electrode
    {
        type            zeroGradient;
    }
    ground
    {
        type            zeroGradient;
    }
    otherfaces
    {
        type            empty;
    }
}


// ************************************************************************* //
