/*--------------------------------*- C++ -*----------------------------------*\
| =========                 |                                                 |
| \\      /  F ield         | foam-extend: Open Source CFD                    |
|  \\    /   O peration     | Version:     4.0                                |
|   \\  /    A nd           | Web:         http://www.foam-extend.org         |
|    \\/     M anipulation  |                                                 |
\*---------------------------------------------------------------------------*/
FoamFile
{
    version     2.0;
    format      ascii;
    class       volScalarField;
    location    "3e-07";
    object      Arp1;
}
// * * * * * * * * * * * * * * * * * * * * * * * * * * * * * * * * * * * * * //

dimensions      [0 0 0 1 0 0 0];

internalField   nonuniform List<scalar> 
300
(
6.15613185674592e+16
6.16141562070942e+16
6.1563617775525e+16
6.15722138706348e+16
6.15606700146088e+16
6.15435643212062e+16
6.15270863467798e+16
6.15065799049518e+16
6.14824892844766e+16
6.14551126621236e+16
6.14242524428844e+16
6.13898374423958e+16
6.13517756730023e+16
6.13100006824339e+16
6.12644430649133e+16
6.12150403410925e+16
6.11617377907737e+16
6.11044905854531e+16
6.10432631314517e+16
6.09780289150941e+16
6.09087728428545e+16
6.0835489275743e+16
6.07581805070104e+16
6.06768659529729e+16
6.05915610886398e+16
6.05023038795136e+16
6.04091324074441e+16
6.03120925832695e+16
6.02112371508927e+16
6.01066314636227e+16
5.99983329152764e+16
5.98864135447672e+16
5.97709484219146e+16
5.96520097295253e+16
5.95296769814599e+16
5.94040311292859e+16
5.92751523354713e+16
5.91431230553325e+16
5.90080263543724e+16
5.88699450638557e+16
5.87289602285133e+16
5.85851556322673e+16
5.84386110134857e+16
5.82894069395975e+16
5.81376221797618e+16
5.79833346080385e+16
5.7826620004609e+16
5.76675541202667e+16
5.75062072503695e+16
5.73426570957825e+16
5.71769641317126e+16
5.70092076090403e+16
5.68394435521344e+16
5.66677453185687e+16
5.64941700184816e+16
5.6318782508627e+16
5.61416410163588e+16
5.59628033159646e+16
5.57823261054817e+16
5.56002635393845e+16
5.54166692320873e+16
5.52315895308156e+16
5.50450819060838e+16
5.4857187184377e+16
5.46679500537675e+16
5.44774214108935e+16
5.42856372349975e+16
5.40926402043552e+16
5.38984702114761e+16
5.37031610000253e+16
5.35067523946647e+16
5.33092771219966e+16
5.31107620503871e+16
5.2911245099628e+16
5.27107527328623e+16
5.25093073047675e+16
5.23069442726991e+16
5.21036705897847e+16
5.18995344691194e+16
5.16945261199129e+16
5.14886862813867e+16
5.12820242736683e+16
5.10745496021039e+16
5.08662858408842e+16
5.06572350477418e+16
5.04474086091253e+16
5.02368137241126e+16
5.00254563743726e+16
4.98133348925677e+16
4.96004445893125e+16
4.93868018734744e+16
4.91723710423913e+16
4.8957168213093e+16
4.87411712531271e+16
4.85243649306793e+16
4.83067351636738e+16
4.80882566405821e+16
4.78689075362337e+16
4.76486583546882e+16
4.74274766945923e+16
4.7205320879417e+16
4.69821658076141e+16
4.67579443550601e+16
4.65326236734224e+16
4.63061464369152e+16
4.60784424452024e+16
4.58494637659358e+16
4.56191252715035e+16
4.53873580225468e+16
4.51540804056447e+16
4.49191986831855e+16
4.46826230796915e+16
4.44442500976404e+16
4.42039634000497e+16
4.39616565963987e+16
4.37171977780335e+16
4.34704498306818e+16
4.32212768019745e+16
4.29695182976842e+16
4.27150232493735e+16
4.2457598739202e+16
4.2197084502767e+16
4.19332663799427e+16
4.16659428378843e+16
4.13948922774509e+16
4.11198871646043e+16
4.08406654753939e+16
4.0556977762493e+16
4.02685393898998e+16
3.99750594711993e+16
3.96762281883607e+16
3.93717189417112e+16
3.90611824783614e+16
3.87442757265493e+16
3.8420598433085e+16
3.80897638254498e+16
3.77513578174794e+16
3.74049511823538e+16
3.70500812776022e+16
3.66862898272558e+16
3.63130920213092e+16
3.59299815965963e+16
3.55364437557257e+16
3.51319604537595e+16
3.4715969028782e+16
3.42879388058245e+16
3.38473029644748e+16
3.33934845149175e+16
3.29259513827963e+16
3.24441135272024e+16
3.19474056920477e+16
3.1435327159947e+16
3.09072983474737e+16
3.03628413874847e+16
2.98014701684776e+16
2.92227447046164e+16
2.86262853505094e+16
2.80117129696277e+16
2.7378776762634e+16
2.67273193646655e+16
2.60572252834514e+16
2.53682274472139e+16
2.46605377857808e+16
2.39366268061195e+16
2.31938955437093e+16
2.24256301610693e+16
2.16443095611724e+16
2.08738009319449e+16
2.00933725364173e+16
1.92829191143516e+16
1.84706389193399e+16
1.76812774491931e+16
1.69032080020626e+16
1.60939610161617e+16
1.5307561890479e+16
1.45544352415868e+16
1.37852819538865e+16
1.30717551939131e+16
1.23724202975315e+16
1.17230472301338e+16
1.11024635020304e+16
1.0529380668436e+16
1.00084190903906e+16
9.53833559580001e+15
9.16339479965733e+15
8.67520868973245e+15
8.31786280444869e+15
8.17713680084183e+15
7.89801112015152e+15
7.50555455029629e+15
7.30660788696839e+15
7.22281752542308e+15
7.11081285047967e+15
6.88113306792799e+15
6.67706730856468e+15
6.60266766305183e+15
6.5214823447143e+15
6.3630478587215e+15
6.2581110279056e+15
6.18013219617923e+15
6.05441463127413e+15
5.93543391034063e+15
5.8589459644327e+15
5.76692232753133e+15
5.64615799103864e+15
5.52664816391905e+15
5.42842558559382e+15
5.3273052943172e+15
5.21255583481371e+15
5.11325630856909e+15
5.00941061400984e+15
4.89898720838679e+15
4.81439586828605e+15
4.72451614782139e+15
4.6141262345636e+15
4.50536197621058e+15
4.40127192124867e+15
4.30208206791818e+15
4.20617703491476e+15
4.11282564392362e+15
4.02008884428681e+15
3.92729305630579e+15
3.835234754625e+15
3.74389381233096e+15
3.65520269219849e+15
3.5690595142561e+15
3.48742853430846e+15
3.40781162175925e+15
3.33254337172594e+15
3.25901191272581e+15
3.18734280893336e+15
3.11834746280778e+15
3.04477637116598e+15
2.97055734725554e+15
2.89808163254931e+15
2.8270608697927e+15
2.75756128254026e+15
2.68959917474577e+15
2.62310795266567e+15
2.55795247259547e+15
2.49407711870331e+15
2.43161252888222e+15
2.3705925759979e+15
2.31107980318705e+15
2.2529102649596e+15
2.1961011386122e+15
2.14056751423744e+15
2.08638912043535e+15
2.03354538467074e+15
1.98207147222858e+15
1.93190394440715e+15
1.88295389416363e+15
1.83523386590636e+15
1.7887128336741e+15
1.74346912080381e+15
1.69951997120038e+15
1.6568954474083e+15
1.61557136886916e+15
1.5754851059176e+15
1.53659219276632e+15
1.49885719923782e+15
1.46219667408145e+15
1.42657506202591e+15
1.39193465075564e+15
1.35825364660085e+15
1.3254909653109e+15
1.29360550021161e+15
1.26255887488627e+15
1.23239777889356e+15
1.20300635138213e+15
1.17453570614872e+15
1.14678929126444e+15
1.12006468189166e+15
1.09370516443781e+15
1.06879886022316e+15
1.04371434262366e+15
1.02067717920902e+15
996779422857248
975578803833701
952811997685078
933157870160219
911659028470732
893400932608895
872957870304591
856161319260136
836538564960490
821135675309289
802453425410912
788498612541141
770847064831331
758385230952378
741458104855898
730281147754540
714041955501942
704177906729018
688583937048663
680059345088776
665052247036674
657767684548574
640308228122165
)
;

boundaryField
{
    electrode
    {
        type            driftDiffusionPositiveIonDensity;
        seec            0;
        fieldName       Arp1;
        value           uniform 6.14739717685487e+16;
    }
    ground
    {
        type            driftDiffusionPositiveIonDensity;
        seec            0;
        fieldName       Arp1;
        value           uniform 640308228122165;
    }
    otherfaces
    {
        type            empty;
    }
}


// ************************************************************************* //
