/*--------------------------------*- C++ -*----------------------------------*\
| =========                 |                                                 |
| \\      /  F ield         | foam-extend: Open Source CFD                    |
|  \\    /   O peration     | Version:     4.0                                |
|   \\  /    A nd           | Web:         http://www.foam-extend.org         |
|    \\/     M anipulation  |                                                 |
\*---------------------------------------------------------------------------*/
FoamFile
{
    version     2.0;
    format      ascii;
    class       volVectorField;
    location    "3e-07";
    object      E;
}
// * * * * * * * * * * * * * * * * * * * * * * * * * * * * * * * * * * * * * //

dimensions      [0 0 0 1 0 0 0];

internalField   nonuniform List<vector> 
300
(
(3.89599480593584 -0 -0)
(10.3941045187516 -0 -0)
(18.393890348356 -0 -0)
(25.2084473545414 -0 -0)
(32.7038673517126 -0 -0)
(40.3539171286997 -0 -0)
(47.9904619835053 -0 -0)
(55.8164446121101 -0 -0)
(63.8307894165753 -0 -0)
(72.0190110131698 -0 -0)
(80.3881220048914 -0 -0)
(88.9398452177956 -0 -0)
(97.6704097308 -0 -0)
(106.572001781766 -0 -0)
(115.6339712316 -0 -0)
(124.84299574539 -0 -0)
(134.183412922592 -0 -0)
(143.637750493754 -0 -0)
(153.187248257138 -0 -0)
(162.812262351205 -0 -0)
(172.492712742502 -0 -0)
(182.208480761782 -0 -0)
(191.939683226446 -0 -0)
(201.667199335733 -0 -0)
(211.372650353594 -0 -0)
(221.038664509339 -0 -0)
(230.649323657019 -0 -0)
(240.189894423762 -0 -0)
(249.646949421195 -0 -0)
(259.008782088624 -0 -0)
(268.265049915867 -0 -0)
(277.406612318675 -0 -0)
(286.425977906485 -0 -0)
(295.316940555931 -0 -0)
(304.074390013115 -0 -0)
(312.694466678175 -0 -0)
(321.174364432995 -0 -0)
(329.512171306989 -0 -0)
(337.706866537814 -0 -0)
(345.758212973203 -0 -0)
(353.666567431894 -0 -0)
(361.432884109263 -0 -0)
(369.05864149315 -0 -0)
(376.545688100731 -0 -0)
(383.896225758554 -0 -0)
(391.112749428865 -0 -0)
(398.197982025203 -0 -0)
(405.154836388739 -0 -0)
(411.986310504306 -0 -0)
(418.695657045026 -0 -0)
(425.286071875685 -0 -0)
(431.760883129503 -0 -0)
(438.123502739719 -0 -0)
(444.377303937583 -0 -0)
(450.525798093059 -0 -0)
(456.572434825908 -0 -0)
(462.520769750663 -0 -0)
(468.37432267637 -0 -0)
(474.136652972485 -0 -0)
(479.811386847098 -0 -0)
(485.402165420526 -0 -0)
(490.912480636997 -0 -0)
(496.346090415933 -0 -0)
(501.70682606298 -0 -0)
(506.9981240834 -0 -0)
(512.223751976454 -0 -0)
(517.387591120248 -0 -0)
(522.49331652921 -0 -0)
(527.544736965473 -0 -0)
(532.545601196526 -0 -0)
(537.499790617573 -0 -0)
(542.411368624545 -0 -0)
(547.284079455199 -0 -0)
(552.121876930156 -0 -0)
(556.929093001369 -0 -0)
(561.709809190954 -0 -0)
(566.468342937005 -0 -0)
(571.208913527408 -0 -0)
(575.93641082937 -0 -0)
(580.655631880636 -0 -0)
(585.371187872339 -0 -0)
(590.088665597459 -0 -0)
(594.813347484673 -0 -0)
(599.551021983394 -0 -0)
(604.307924838346 -0 -0)
(609.090275969933 -0 -0)
(613.904864976768 -0 -0)
(618.759100848359 -0 -0)
(623.660586290694 -0 -0)
(628.617063815124 -0 -0)
(633.637640735993 -0 -0)
(638.73135339164 -0 -0)
(643.907490190172 -0 -0)
(649.176762287992 -0 -0)
(654.55001186641 -0 -0)
(660.038804536975 -0 -0)
(665.655460822885 -0 -0)
(671.413041834629 -0 -0)
(677.325546757989 -0 -0)
(683.407696583438 -0 -0)
(689.674897957767 -0 -0)
(696.144132239584 -0 -0)
(702.832989374412 -0 -0)
(709.759887246165 -0 -0)
(716.945188263055 -0 -0)
(724.409830126017 -0 -0)
(732.176383509565 -0 -0)
(740.269009196006 -0 -0)
(748.713005885377 -0 -0)
(757.535746023621 -0 -0)
(766.766200940921 -0 -0)
(776.435310312444 -0 -0)
(786.576301550605 -0 -0)
(797.224178010558 -0 -0)
(808.416689882045 -0 -0)
(820.194508993459 -0 -0)
(832.600522984816 -0 -0)
(845.680824851444 -0 -0)
(859.48492675441 -0 -0)
(874.066035437637 -0 -0)
(889.480621062243 -0 -0)
(905.789550094222 -0 -0)
(923.058386034862 -0 -0)
(941.356591648125 -0 -0)
(960.759028671515 -0 -0)
(981.34642125419 -0 -0)
(1003.20469639406 -0 -0)
(1026.42582006354 -0 -0)
(1051.10876549724 -0 -0)
(1077.35930530162 -0 -0)
(1105.29075335991 -0 -0)
(1135.02422677279 -0 -0)
(1166.68901806602 -0 -0)
(1200.42433404386 -0 -0)
(1236.37863431045 -0 -0)
(1274.70968361586 -0 -0)
(1315.58700256608 -0 -0)
(1359.19224319729 -0 -0)
(1405.71875968264 -0 -0)
(1455.37304819225 -0 -0)
(1508.37669141714 -0 -0)
(1564.96632467574 -0 -0)
(1625.39498206571 -0 -0)
(1689.93461107816 -0 -0)
(1758.87606873331 -0 -0)
(1832.53162253057 -0 -0)
(1911.23778944832 -0 -0)
(1995.35570341182 -0 -0)
(2085.27696016442 -0 -0)
(2181.42551237664 -0 -0)
(2284.25871974689 -0 -0)
(2394.27743211567 -0 -0)
(2512.02847663136 -0 -0)
(2638.10955491327 -0 -0)
(2773.18052997135 -0 -0)
(2917.97178509941 -0 -0)
(3073.29779264702 -0 -0)
(3240.05877587262 -0 -0)
(3419.26644417019 -0 -0)
(3612.12223298808 -0 -0)
(3819.98755650321 -0 -0)
(4044.35871117672 -0 -0)
(4287.06284890989 -0 -0)
(4550.48715715016 -0 -0)
(4837.04216583167 -0 -0)
(5148.50558738971 -0 -0)
(5488.81811278129 -0 -0)
(5867.84438675811 -0 -0)
(6296.59418456893 -0 -0)
(6781.55516480741 -0 -0)
(7331.68612553681 -0 -0)
(7965.60846542072 -0 -0)
(8705.30180473968 -0 -0)
(9566.03574512701 -0 -0)
(10565.6385243357 -0 -0)
(11731.6528895312 -0 -0)
(13087.0397898663 -0 -0)
(14656.4924996846 -0 -0)
(16466.8176334298 -0 -0)
(18540.1247312646 -0 -0)
(20893.3793283359 -0 -0)
(23534.9589705223 -0 -0)
(26467.1095305777 -0 -0)
(29683.0858667471 -0 -0)
(33172.6613144434 -0 -0)
(36875.4076990867 -0 -0)
(40735.1752942538 -0 -0)
(44777.7603258845 -0 -0)
(48960.2705471366 -0 -0)
(53150.8479902445 -0 -0)
(57317.1922001754 -0 -0)
(61505.2115961386 -0 -0)
(65707.693572285 -0 -0)
(69855.8598293408 -0 -0)
(73903.7920244792 -0 -0)
(77885.7997429574 -0 -0)
(81831.3260253558 -0 -0)
(85711.1714357779 -0 -0)
(89515.0028380867 -0 -0)
(93264.657265817 -0 -0)
(96953.2524223145 -0 -0)
(100568.623990132 -0 -0)
(104125.45143324 -0 -0)
(107631.538027062 -0 -0)
(111073.46653202 -0 -0)
(114442.931169904 -0 -0)
(117746.730878253 -0 -0)
(120990.421913286 -0 -0)
(124169.026921863 -0 -0)
(127283.082496345 -0 -0)
(130335.875800246 -0 -0)
(133324.052890603 -0 -0)
(136253.410212395 -0 -0)
(139130.150701024 -0 -0)
(141946.50049479 -0 -0)
(144696.758287031 -0 -0)
(147382.82093974 -0 -0)
(150007.576348735 -0 -0)
(152573.494178067 -0 -0)
(155082.335966989 -0 -0)
(157535.058649948 -0 -0)
(159931.831155398 -0 -0)
(162272.857548078 -0 -0)
(164558.575764839 -0 -0)
(166790.000095593 -0 -0)
(168968.696928575 -0 -0)
(171096.79499681 -0 -0)
(173176.262677358 -0 -0)
(175209.018951056 -0 -0)
(177196.899869148 -0 -0)
(179140.991356728 -0 -0)
(181042.661883789 -0 -0)
(182901.339054322 -0 -0)
(184715.447211874 -0 -0)
(186485.316016666 -0 -0)
(188211.910084147 -0 -0)
(189896.126922116 -0 -0)
(191538.888873425 -0 -0)
(193141.103207062 -0 -0)
(194703.61638944 -0 -0)
(196227.217271296 -0 -0)
(197712.717212909 -0 -0)
(199160.977148519 -0 -0)
(200572.8872178 -0 -0)
(201949.307062136 -0 -0)
(203291.052015786 -0 -0)
(204598.916962301 -0 -0)
(205873.695174792 -0 -0)
(207116.197764419 -0 -0)
(208327.24027342 -0 -0)
(209507.629777377 -0 -0)
(210658.127429916 -0 -0)
(211779.471303551 -0 -0)
(212872.39385789 -0 -0)
(213937.641784701 -0 -0)
(214975.99059828 -0 -0)
(215988.230114307 -0 -0)
(216975.151971789 -0 -0)
(217937.521670835 -0 -0)
(218876.072413302 -0 -0)
(219791.513312797 -0 -0)
(220684.517646715 -0 -0)
(221555.72279533 -0 -0)
(222405.737999412 -0 -0)
(223235.148514164 -0 -0)
(224044.520635306 -0 -0)
(224834.395878449 -0 -0)
(225605.291758582 -0 -0)
(226357.728295581 -0 -0)
(227092.204641528 -0 -0)
(227809.230571912 -0 -0)
(228509.302141529 -0 -0)
(229192.945980045 -0 -0)
(229860.580296937 -0 -0)
(230512.753457406 -0 -0)
(231149.84994059 -0 -0)
(231772.433453676 -0 -0)
(232380.861883364 -0 -0)
(232975.689094537 -0 -0)
(233557.256254509 -0 -0)
(234126.029677208 -0 -0)
(234682.391798586 -0 -0)
(235226.763682247 -0 -0)
(235759.463681344 -0 -0)
(236280.932516975 -0 -0)
(236791.417455996 -0 -0)
(237291.338879913 -0 -0)
(237780.980536055 -0 -0)
(238260.77906894 -0 -0)
(238731.045290952 -0 -0)
(239192.229547521 -0 -0)
(239644.550350649 -0 -0)
(240088.395183434 -0 -0)
(240523.971474841 -0 -0)
(240951.675114194 -0 -0)
(241371.700655972 -0 -0)
(241784.451771484 -0 -0)
(242190.105723274 -0 -0)
(242589.041415443 -0 -0)
(242980.509544341 -0 -0)
)
;

boundaryField
{
    electrode
    {
        type            calculated;
        value           uniform (2.20392485744015 -0 -0);
    }
    ground
    {
        type            calculated;
        value           uniform (243173.60601688 -0 -0);
    }
    otherfaces
    {
        type            empty;
    }
}


// ************************************************************************* //
