/*--------------------------------*- C++ -*----------------------------------*\
| =========                 |                                                 |
| \\      /  F ield         | foam-extend: Open Source CFD                    |
|  \\    /   O peration     | Version:     4.0                                |
|   \\  /    A nd           | Web:         http://www.foam-extend.org         |
|    \\/     M anipulation  |                                                 |
\*---------------------------------------------------------------------------*/
FoamFile
{
    version     2.0;
    format      ascii;
    class       volScalarField;
    location    "3e-07";
    object      electron;
}
// * * * * * * * * * * * * * * * * * * * * * * * * * * * * * * * * * * * * * //

dimensions      [0 0 0 1 0 0 0];

internalField   nonuniform List<scalar> 
300
(
6.15733044630889e+16
6.15711400120322e+16
6.15659701359273e+16
6.15577252152315e+16
6.15464553978318e+16
6.15319945624802e+16
6.15143159533882e+16
6.14933746792264e+16
6.14690952002344e+16
6.14414044903986e+16
6.14102299381953e+16
6.1375498214107e+16
6.13371373592828e+16
6.12950786653437e+16
6.12492582072632e+16
6.11996180822039e+16
6.11461075123768e+16
6.1088683744968e+16
6.1027312722132e+16
6.09619695417644e+16
6.08926387243387e+16
6.08193142878026e+16
6.0741999668503e+16
6.06607074677808e+16
6.05754590793546e+16
6.04862842529586e+16
6.03932205133446e+16
6.02963125342471e+16
6.01956115303826e+16
6.00911745504931e+16
5.99830637591166e+16
5.98713458123143e+16
5.97560911873626e+16
5.96373735063351e+16
5.95152689661194e+16
5.93898557826877e+16
5.92612136559052e+16
5.91294233081081e+16
5.89945660621119e+16
5.88567234508784e+16
5.87159768902656e+16
5.85724073949339e+16
5.84260953167859e+16
5.827712013275e+16
5.81255602703942e+16
5.79714929548576e+16
5.78149940855995e+16
5.76561381355245e+16
5.74949980817627e+16
5.73316453296169e+16
5.71661496648854e+16
5.69985792315861e+16
5.68290004871401e+16
5.66574781917433e+16
5.64840753885936e+16
5.63088533913651e+16
5.61318717789688e+16
5.59531883865268e+16
5.57728593099111e+16
5.55909388951185e+16
5.54074797319306e+16
5.52225326833996e+16
5.50361468785844e+16
5.48483696676859e+16
5.46592466863709e+16
5.44688218785554e+16
5.42771374382999e+16
5.40842338419819e+16
5.38901498732442e+16
5.36949226262545e+16
5.34985875135794e+16
5.3301178232834e+16
5.31027268047313e+16
5.29032636086444e+16
5.27028173070551e+16
5.25014148474818e+16
5.22990814792302e+16
5.20958407493344e+16
5.18917144367689e+16
5.16867224776255e+16
5.14808830300835e+16
5.12742123692866e+16
5.10667248057518e+16
5.08584326775974e+16
5.06493462237347e+16
5.0439473543425e+16
5.02288205349184e+16
5.00173907451243e+16
4.98051852729174e+16
4.9592202748263e+16
4.93784391425533e+16
4.9163887609887e+16
4.89485384989403e+16
4.87323791430641e+16
4.85153936805873e+16
4.8297562977385e+16
4.80788644590834e+16
4.78592719534213e+16
4.76387555095122e+16
4.74172812221214e+16
4.71948111014091e+16
4.69713028295714e+16
4.67467095320034e+16
4.65209796663142e+16
4.62940567267881e+16
4.60658789987374e+16
4.58363793663761e+16
4.56054849855143e+16
4.53731170452859e+16
4.51391904707345e+16
4.49036135784594e+16
4.46662877678698e+16
4.4427107131991e+16
4.41859581158502e+16
4.39427191377982e+16
4.36972600824347e+16
4.3449441894367e+16
4.31991161598303e+16
4.29461245707369e+16
4.26902983654377e+16
4.24314578278526e+16
4.21694117510282e+16
4.19039567703949e+16
4.16348768221811e+16
4.13619425804033e+16
4.10849107269554e+16
4.08035233351709e+16
4.05175073239916e+16
4.02265737983307e+16
3.9930417422823e+16
3.96287158652135e+16
3.93211292626746e+16
3.90072997845548e+16
3.8686851134069e+16
3.83593881290439e+16
3.80244965821048e+16
3.76817431432192e+16
3.73306751084724e+16
3.6970820547926e+16
3.66016886613234e+16
3.62227701421492e+16
3.58335377552021e+16
3.54334472406542e+16
3.50219383140781e+16
3.45984359725387e+16
3.41623521731378e+16
3.37130876358568e+16
3.32500340927177e+16
3.27725767632031e+16
3.22800969857313e+16
3.17719756230795e+16
3.12475965366961e+16
3.07063501658233e+16
3.01476378909824e+16
2.95708765071832e+16
2.89755027859875e+16
2.83609782282606e+16
2.77267938135201e+16
2.70724752899062e+16
2.63975606797821e+16
2.57015971715278e+16
2.49842018522595e+16
2.42450688807921e+16
2.34839275629587e+16
2.27005529692127e+16
2.18948485364735e+16
2.10667884548456e+16
2.02159927827093e+16
1.93414823063866e+16
1.84421333627388e+16
1.75170371938317e+16
1.65651465923288e+16
1.55850844065378e+16
1.45759120868817e+16
1.35379193239264e+16
1.24726911463409e+16
1.13836033195778e+16
1.02765695138772e+16
9.16037351778034e+15
8.04699549341192e+15
6.9516780479754e+15
5.89245717520025e+15
4.88901909013129e+15
3.96099872597133e+15
3.12587659152074e+15
2.39723392742839e+15
1.78299124793785e+15
1.28370179291449e+15
893057313472842
599709267265824
388700087584887
243326822958817
147412044263482
86731044471778.9
49866330188201.3
28285986827380.7
16057865510070.5
9182884138009.42
5168373946161.7
2735624034290.74
1384748491688.4
737660407285.482
442070942451.793
305151684179.814
239347520830.532
206927053219.959
191116730897.717
184003658750.708
181563504115.596
181496147524.954
182881675147.596
185038889836.757
187515688197.076
190015151656.985
192352844401.383
194409636232.974
196111882615.006
197415799555.412
198298190069.856
198736648755.94
198778016629.153
198421404661.226
197682160779.264
196582866169.846
195149972879.414
193411674275.586
191396893681.053
189134561318.852
186653122941.371
183980163914.393
181142163043.481
178164303012.965
175070357380.882
171882706028.322
168621715158.91
165305751256.207
161952229878.847
158577447729.66
155196082404.055
151821249815.444
148464649743.37
145136632675.936
141845711634.01
138599006510.202
135403122373.167
132263665534.813
129185045645.159
126170803753.036
123223685136.391
120345701069.572
117538228442.207
114801438330.974
112134773227.711
109537934005.94
107010561152.362
104552045088.981
102161543001.407
99838006593.5385
97580218616.9689
95386827585.2186
93256379069.6102
91187343481.5247
89178140822.7108
87227162179.1899
85332788213.2078
83493405119.8945
81707418422.8898
79973264968.8263
78289422883.7945
76654420239.5154
75066842287.4285
73525336772.1535
72028614527.024
70575429845.6738
69164475536.0365
67793835087.1096
66458381698.0869
65154447677.7031
63882400505.8694
62642892043.5504
61436798802.9102
60265012199.4365
59128271585.2041
58027093241.793
56957722107.476
55914737800.6753
54898709819.1724
53914057428.8803
52965493578.8155
52052342695.7901
51170981422.2291
50326970572.1867
49530187888.2344
48783145214.8963
48099280436.5424
47497687284.4696
47009451246.1489
46721504219.3725
46679560794.1374
47116262496.1515
)
;

boundaryField
{
    electrode
    {
        type            driftDiffusionElectronDensity;
        seec            0.05;
        Edepend         1;
        field_emission  0;
        field_enhancement_factor 55;
        work_function   5;
        value           uniform 6.15733044630891e+16;
    }
    ground
    {
        type            driftDiffusionElectronDensity;
        seec            0.05;
        Edepend         1;
        field_emission  0;
        field_enhancement_factor 55;
        work_function   5;
        value           uniform 47663373554.231;
    }
    otherfaces
    {
        type            empty;
    }
}


// ************************************************************************* //
