/*--------------------------------*- C++ -*----------------------------------*\
| =========                 |                                                 |
| \\      /  F ield         | foam-extend: Open Source CFD                    |
|  \\    /   O peration     | Version:     4.0                                |
|   \\  /    A nd           | Web:         http://www.foam-extend.org         |
|    \\/     M anipulation  |                                                 |
\*---------------------------------------------------------------------------*/
FoamFile
{
    version     2.0;
    format      ascii;
    class       volVectorField;
    location    "3e-07";
    object      J_Arp1;
}
// * * * * * * * * * * * * * * * * * * * * * * * * * * * * * * * * * * * * * //

dimensions      [1 -1 -1 0 0 0 0];

internalField   nonuniform List<vector> 
300
(
(1.53130947593837e+16 -0 -0)
(6.43233085946412e+16 -0 -0)
(1.14934259300684e+17 -0 -0)
(1.55240907803469e+17 -0 -0)
(2.02290588432484e+17 -0 -0)
(2.49430293567773e+17 -0 -0)
(2.96388515722363e+17 -0 -0)
(3.44608667806687e+17 -0 -0)
(3.93883254391984e+17 -0 -0)
(4.44139380525079e+17 -0 -0)
(4.95422064942907e+17 -0 -0)
(5.47725518222746e+17 -0 -0)
(6.0101341156244e+17 -0 -0)
(6.55223695878387e+17 -0 -0)
(7.10277294795232e+17 -0 -0)
(7.66078206740908e+17 -0 -0)
(8.22516007200635e+17 -0 -0)
(8.79469337325203e+17 -0 -0)
(9.36809332089739e+17 -0 -0)
(9.94402121075599e+17 -0 -0)
(1.05211180449075e+18 -0 -0)
(1.10980312170823e+18 -0 -0)
(1.16734277135514e+18 -0 -0)
(1.22460362510163e+18 -0 -0)
(1.28146361508688e+18 -0 -0)
(1.33780796496506e+18 -0 -0)
(1.39353218575658e+18 -0 -0)
(1.44853980477196e+18 -0 -0)
(1.50274315458868e+18 -0 -0)
(1.55606673678317e+18 -0 -0)
(1.60844389403314e+18 -0 -0)
(1.6598160330623e+18 -0 -0)
(1.71013604158425e+18 -0 -0)
(1.75936504705167e+18 -0 -0)
(1.80747152003054e+18 -0 -0)
(1.85443243630246e+18 -0 -0)
(1.90023162376271e+18 -0 -0)
(1.94485882934696e+18 -0 -0)
(1.98830973255639e+18 -0 -0)
(2.03058521287034e+18 -0 -0)
(2.07168991926408e+18 -0 -0)
(2.11163258697114e+18 -0 -0)
(2.15042530415581e+18 -0 -0)
(2.1880825771603e+18 -0 -0)
(2.22462124498036e+18 -0 -0)
(2.26006006482305e+18 -0 -0)
(2.29441920620273e+18 -0 -0)
(2.32772023858516e+18 -0 -0)
(2.35998487146287e+18 -0 -0)
(2.39123713933663e+18 -0 -0)
(2.42149971451692e+18 -0 -0)
(2.45079710671328e+18 -0 -0)
(2.47915342939157e+18 -0 -0)
(2.50659308723205e+18 -0 -0)
(2.53314093778495e+18 -0 -0)
(2.55882146162564e+18 -0 -0)
(2.58365972805951e+18 -0 -0)
(2.60768033604935e+18 -0 -0)
(2.63090808164817e+18 -0 -0)
(2.65336791918848e+18 -0 -0)
(2.67508495474762e+18 -0 -0)
(2.69608259242213e+18 -0 -0)
(2.71638646556129e+18 -0 -0)
(2.73602194030229e+18 -0 -0)
(2.75501142829489e+18 -0 -0)
(2.77338000799054e+18 -0 -0)
(2.79115242963e+18 -0 -0)
(2.8083520378158e+18 -0 -0)
(2.82500305608001e+18 -0 -0)
(2.84112853553307e+18 -0 -0)
(2.85675237232815e+18 -0 -0)
(2.87189927531738e+18 -0 -0)
(2.88659104271538e+18 -0 -0)
(2.90085113741951e+18 -0 -0)
(2.91470468157351e+18 -0 -0)
(2.92817405448966e+18 -0 -0)
(2.94128422250705e+18 -0 -0)
(2.95405668549451e+18 -0 -0)
(2.96651947930037e+18 -0 -0)
(2.97869617814356e+18 -0 -0)
(2.99061090890549e+18 -0 -0)
(3.00229245526946e+18 -0 -0)
(3.01376590102315e+18 -0 -0)
(3.02506006411003e+18 -0 -0)
(3.03620441084819e+18 -0 -0)
(3.04722769013608e+18 -0 -0)
(3.05816106163326e+18 -0 -0)
(3.06903817198718e+18 -0 -0)
(3.07989255943589e+18 -0 -0)
(3.09075646769034e+18 -0 -0)
(3.10167117998851e+18 -0 -0)
(3.11267239404495e+18 -0 -0)
(3.12379887074552e+18 -0 -0)
(3.13509455375307e+18 -0 -0)
(3.1466019093176e+18 -0 -0)
(3.15836652124575e+18 -0 -0)
(3.17043555427752e+18 -0 -0)
(3.18285848544335e+18 -0 -0)
(3.19568756332403e+18 -0 -0)
(3.20897680553632e+18 -0 -0)
(3.22278048457874e+18 -0 -0)
(3.23716081151438e+18 -0 -0)
(3.25217742455915e+18 -0 -0)
(3.26789347603267e+18 -0 -0)
(3.28437894569829e+18 -0 -0)
(3.30170142704494e+18 -0 -0)
(3.31993590054565e+18 -0 -0)
(3.33915935750994e+18 -0 -0)
(3.359451184138e+18 -0 -0)
(3.38089697008616e+18 -0 -0)
(3.40358439288012e+18 -0 -0)
(3.42760639481614e+18 -0 -0)
(3.45306143904577e+18 -0 -0)
(3.48004938627676e+18 -0 -0)
(3.50867837965518e+18 -0 -0)
(3.53906237286648e+18 -0 -0)
(3.57131754935901e+18 -0 -0)
(3.60556819595745e+18 -0 -0)
(3.64194374644626e+18 -0 -0)
(3.68058290381409e+18 -0 -0)
(3.72162514487577e+18 -0 -0)
(3.76522217274997e+18 -0 -0)
(3.81153087004881e+18 -0 -0)
(3.86071265757917e+18 -0 -0)
(3.91293740915885e+18 -0 -0)
(3.96838494181834e+18 -0 -0)
(4.02723682860644e+18 -0 -0)
(4.08968321251441e+18 -0 -0)
(4.15592069846333e+18 -0 -0)
(4.22615083581627e+18 -0 -0)
(4.3005803445497e+18 -0 -0)
(4.37941940270952e+18 -0 -0)
(4.46287846784214e+18 -0 -0)
(4.55117694555418e+18 -0 -0)
(4.64452825920752e+18 -0 -0)
(4.7431433954701e+18 -0 -0)
(4.84723300166223e+18 -0 -0)
(4.95700433298329e+18 -0 -0)
(5.07265097719155e+18 -0 -0)
(5.1943575488291e+18 -0 -0)
(5.32229710369177e+18 -0 -0)
(5.45662265167828e+18 -0 -0)
(5.59746571525024e+18 -0 -0)
(5.74493899971986e+18 -0 -0)
(5.89911734502126e+18 -0 -0)
(6.06004872122172e+18 -0 -0)
(6.22774233485112e+18 -0 -0)
(6.40215620961778e+18 -0 -0)
(6.58321647151752e+18 -0 -0)
(6.77078648664353e+18 -0 -0)
(6.96466270373088e+18 -0 -0)
(7.1646028396779e+18 -0 -0)
(7.37027418270341e+18 -0 -0)
(7.58128172492876e+18 -0 -0)
(7.79715213292305e+18 -0 -0)
(8.01733280598596e+18 -0 -0)
(8.24120031490144e+18 -0 -0)
(8.46800405008091e+18 -0 -0)
(8.69692124246573e+18 -0 -0)
(8.92718205706702e+18 -0 -0)
(9.15791331962888e+18 -0 -0)
(9.38791678964758e+18 -0 -0)
(9.61615249033421e+18 -0 -0)
(9.84307937806736e+18 -0 -0)
(1.00665374976167e+19 -0 -0)
(1.02793874703454e+19 -0 -0)
(1.04853634868685e+19 -0 -0)
(1.07051348567777e+19 -0 -0)
(1.09154017021368e+19 -0 -0)
(1.11042395091682e+19 -0 -0)
(1.12889001578647e+19 -0 -0)
(1.14866734492101e+19 -0 -0)
(1.16866572831928e+19 -0 -0)
(1.18447317194459e+19 -0 -0)
(1.20081875251636e+19 -0 -0)
(1.21990893917588e+19 -0 -0)
(1.2302180368148e+19 -0 -0)
(1.25039988968315e+19 -0 -0)
(1.26237809509215e+19 -0 -0)
(1.27973567231394e+19 -0 -0)
(1.29358124208002e+19 -0 -0)
(1.30737989968026e+19 -0 -0)
(1.3248991338584e+19 -0 -0)
(1.33679307964133e+19 -0 -0)
(1.36654346910589e+19 -0 -0)
(1.36144120587199e+19 -0 -0)
(1.37787740947648e+19 -0 -0)
(1.42296742489423e+19 -0 -0)
(1.43124860185231e+19 -0 -0)
(1.42555718520121e+19 -0 -0)
(1.44303711962826e+19 -0 -0)
(1.47402003226913e+19 -0 -0)
(1.5002307238774e+19 -0 -0)
(1.50226064748956e+19 -0 -0)
(1.50064389275649e+19 -0 -0)
(1.52134978700606e+19 -0 -0)
(1.53528563363914e+19 -0 -0)
(1.53611101379846e+19 -0 -0)
(1.54780814404188e+19 -0 -0)
(1.56221711232533e+19 -0 -0)
(1.56060098244135e+19 -0 -0)
(1.55662417838637e+19 -0 -0)
(1.56040754187144e+19 -0 -0)
(1.55738342564647e+19 -0 -0)
(1.55302417752952e+19 -0 -0)
(1.54597281636917e+19 -0 -0)
(1.54222900911651e+19 -0 -0)
(1.53532269609938e+19 -0 -0)
(1.52214823273921e+19 -0 -0)
(1.51131048055616e+19 -0 -0)
(1.49718024965615e+19 -0 -0)
(1.47916588294345e+19 -0 -0)
(1.4672683712339e+19 -0 -0)
(1.4523131864083e+19 -0 -0)
(1.43391220312903e+19 -0 -0)
(1.41569936168141e+19 -0 -0)
(1.39744700074475e+19 -0 -0)
(1.37937532125899e+19 -0 -0)
(1.36109526217704e+19 -0 -0)
(1.34247439477278e+19 -0 -0)
(1.32296393761003e+19 -0 -0)
(1.30240410012076e+19 -0 -0)
(1.28111838821765e+19 -0 -0)
(1.25916097528075e+19 -0 -0)
(1.23724653282167e+19 -0 -0)
(1.21541116401255e+19 -0 -0)
(1.19439644478518e+19 -0 -0)
(1.17341448210223e+19 -0 -0)
(1.15332686862731e+19 -0 -0)
(1.13328832899582e+19 -0 -0)
(1.11338234262221e+19 -0 -0)
(1.09393985348886e+19 -0 -0)
(1.07380800203183e+19 -0 -0)
(1.05369620765083e+19 -0 -0)
(1.03367768686363e+19 -0 -0)
(1.01368661369773e+19 -0 -0)
(9.93778718304396e+18 -0 -0)
(9.7399080275941e+18 -0 -0)
(9.54327930324373e+18 -0 -0)
(9.34767825022288e+18 -0 -0)
(9.15314768822886e+18 -0 -0)
(8.96040211239581e+18 -0 -0)
(8.76979557331972e+18 -0 -0)
(8.58177968648456e+18 -0 -0)
(8.3959517335058e+18 -0 -0)
(8.2125645702783e+18 -0 -0)
(8.03147840374656e+18 -0 -0)
(7.85315929049996e+18 -0 -0)
(7.67769045057213e+18 -0 -0)
(7.50535652549316e+18 -0 -0)
(7.33606140848264e+18 -0 -0)
(7.16959931873812e+18 -0 -0)
(7.00614071611441e+18 -0 -0)
(6.84568303880147e+18 -0 -0)
(6.68863608119802e+18 -0 -0)
(6.5351727207462e+18 -0 -0)
(6.3855101219458e+18 -0 -0)
(6.23965174191739e+18 -0 -0)
(6.09744526811236e+18 -0 -0)
(5.95880116907383e+18 -0 -0)
(5.82365929537183e+18 -0 -0)
(5.69176666903488e+18 -0 -0)
(5.56305028435323e+18 -0 -0)
(5.43734590592556e+18 -0 -0)
(5.31462482134652e+18 -0 -0)
(5.19477926418311e+18 -0 -0)
(5.07769722488827e+18 -0 -0)
(4.96327311285185e+18 -0 -0)
(4.85173413045241e+18 -0 -0)
(4.74266413549981e+18 -0 -0)
(4.63669759570016e+18 -0 -0)
(4.53309440956674e+18 -0 -0)
(4.43306845463573e+18 -0 -0)
(4.334047185623e+18 -0 -0)
(4.24037870696289e+18 -0 -0)
(4.14561325664071e+18 -0 -0)
(4.05862346686194e+18 -0 -0)
(3.9678672872243e+18 -0 -0)
(3.88753408569326e+18 -0 -0)
(3.80065780465025e+18 -0 -0)
(3.72591770956124e+18 -0 -0)
(3.64354744407466e+18 -0 -0)
(3.57388239735196e+18 -0 -0)
(3.49524043051412e+18 -0 -0)
(3.43109097563807e+18 -0 -0)
(3.3567209239456e+18 -0 -0)
(3.29900760943551e+18 -0 -0)
(3.22785297740283e+18 -0 -0)
(3.17546894535231e+18 -0 -0)
(3.10796186033109e+18 -0 -0)
(3.06116505064453e+18 -0 -0)
(2.99613441326144e+18 -0 -0)
(2.95414749476932e+18 -0 -0)
(2.8914945794748e+18 -0 -0)
(2.85448737969651e+18 -0 -0)
(2.79408490178134e+18 -0 -0)
(2.76221770396226e+18 -0 -0)
(2.70387092026581e+18 -0 -0)
(2.6768070475916e+18 -0 -0)
(2.60812790530765e+18 -0 -0)
)
;

boundaryField
{
    electrode
    {
        type            calculated;
        value           uniform (-132533705247.649 -0 -0);
    }
    ground
    {
        type            calculated;
        value           uniform (2.60920395064946e+18 -0 -0);
    }
    otherfaces
    {
        type            empty;
    }
}


// ************************************************************************* //
