/*--------------------------------*- C++ -*----------------------------------*\
| =========                 |                                                 |
| \\      /  F ield         | foam-extend: Open Source CFD                    |
|  \\    /   O peration     | Version:     4.0                                |
|   \\  /    A nd           | Web:         http://www.foam-extend.org         |
|    \\/     M anipulation  |                                                 |
\*---------------------------------------------------------------------------*/
FoamFile
{
    version     2.0;
    format      ascii;
    class       volVectorField;
    location    "3e-07";
    object      J_electron;
}
// * * * * * * * * * * * * * * * * * * * * * * * * * * * * * * * * * * * * * //

dimensions      [1 -1 -1 0 0 0 0];

internalField   nonuniform List<vector> 
300
(
(-6.79785608782953e+18 0 0)
(-8.33004481453937e+18 0 0)
(-1.06370733083594e+19 0 0)
(-8.85070842319054e+18 0 0)
(-9.44514348416624e+18 0 0)
(-9.46852754494842e+18 0 0)
(-9.25905710699345e+18 0 0)
(-9.21686857650749e+18 0 0)
(-9.1742935993093e+18 0 0)
(-9.11925129357715e+18 0 0)
(-9.06869784895429e+18 0 0)
(-9.02209686698459e+18 0 0)
(-8.97898008915411e+18 0 0)
(-8.93815855910099e+18 0 0)
(-8.89947869308486e+18 0 0)
(-8.86259634935162e+18 0 0)
(-8.82704979414575e+18 0 0)
(-8.79238333712355e+18 0 0)
(-8.75825973592864e+18 0 0)
(-8.72431354186668e+18 0 0)
(-8.69022361266789e+18 0 0)
(-8.65581802029541e+18 0 0)
(-8.62066699314122e+18 0 0)
(-8.58486911810457e+18 0 0)
(-8.54826444243993e+18 0 0)
(-8.51052293507527e+18 0 0)
(-8.4719723934451e+18 0 0)
(-8.4325848079072e+18 0 0)
(-8.39207054364351e+18 0 0)
(-8.3508252815786e+18 0 0)
(-8.30907490190714e+18 0 0)
(-8.26648124598911e+18 0 0)
(-8.22345157165004e+18 0 0)
(-8.18020287790186e+18 0 0)
(-8.13665509279138e+18 0 0)
(-8.09303989834691e+18 0 0)
(-8.04953382923429e+18 0 0)
(-8.00618023769027e+18 0 0)
(-7.96310373857441e+18 0 0)
(-7.92049732150598e+18 0 0)
(-7.87837536508917e+18 0 0)
(-7.83681756337668e+18 0 0)
(-7.79596835616037e+18 0 0)
(-7.75584360619835e+18 0 0)
(-7.71649886894372e+18 0 0)
(-7.67798972611953e+18 0 0)
(-7.6403309576656e+18 0 0)
(-7.60362318114167e+18 0 0)
(-7.56768361498621e+18 0 0)
(-7.53279004309691e+18 0 0)
(-7.49874514779151e+18 0 0)
(-7.46558041984886e+18 0 0)
(-7.43338773271439e+18 0 0)
(-7.40197780524551e+18 0 0)
(-7.37152493118659e+18 0 0)
(-7.34184112019499e+18 0 0)
(-7.3130431018411e+18 0 0)
(-7.28503238410869e+18 0 0)
(-7.25777862229623e+18 0 0)
(-7.23128261075114e+18 0 0)
(-7.20567543328879e+18 0 0)
(-7.18058861373293e+18 0 0)
(-7.15614655724441e+18 0 0)
(-7.132731599304e+18 0 0)
(-7.10970175432137e+18 0 0)
(-7.08723434835988e+18 0 0)
(-7.06556318399647e+18 0 0)
(-7.0443697155573e+18 0 0)
(-7.02381223858301e+18 0 0)
(-7.00370824940015e+18 0 0)
(-6.98398072824581e+18 0 0)
(-6.96502258149333e+18 0 0)
(-6.94638268699902e+18 0 0)
(-6.927895480517e+18 0 0)
(-6.91007257780525e+18 0 0)
(-6.89243201840375e+18 0 0)
(-6.87529969597992e+18 0 0)
(-6.85798644412868e+18 0 0)
(-6.84108140941987e+18 0 0)
(-6.82466089469451e+18 0 0)
(-6.80772856409332e+18 0 0)
(-6.7913421332944e+18 0 0)
(-6.77476975223924e+18 0 0)
(-6.75807463276859e+18 0 0)
(-6.74157503422372e+18 0 0)
(-6.72478592268999e+18 0 0)
(-6.70767083406675e+18 0 0)
(-6.69047210201213e+18 0 0)
(-6.67326677065322e+18 0 0)
(-6.65504224921256e+18 0 0)
(-6.63688680216042e+18 0 0)
(-6.61851013313253e+18 0 0)
(-6.59898444908908e+18 0 0)
(-6.57929890761697e+18 0 0)
(-6.55890032053663e+18 0 0)
(-6.53778187951171e+18 0 0)
(-6.5159018727578e+18 0 0)
(-6.49307837223404e+18 0 0)
(-6.4694078184371e+18 0 0)
(-6.44491247930783e+18 0 0)
(-6.41887057857793e+18 0 0)
(-6.39194715504089e+18 0 0)
(-6.36395212073756e+18 0 0)
(-6.33399081109815e+18 0 0)
(-6.30306185391269e+18 0 0)
(-6.27029275340859e+18 0 0)
(-6.23569752049582e+18 0 0)
(-6.19954818878695e+18 0 0)
(-6.16109261474549e+18 0 0)
(-6.12064937275975e+18 0 0)
(-6.07788483205451e+18 0 0)
(-6.03250777225377e+18 0 0)
(-5.98482946965425e+18 0 0)
(-5.93411588507776e+18 0 0)
(-5.88018825556394e+18 0 0)
(-5.82347678129796e+18 0 0)
(-5.76321292638408e+18 0 0)
(-5.69926095746997e+18 0 0)
(-5.6313198289706e+18 0 0)
(-5.55965384524982e+18 0 0)
(-5.48346362819563e+18 0 0)
(-5.40249651087933e+18 0 0)
(-5.31724565077295e+18 0 0)
(-5.22668834931763e+18 0 0)
(-5.1305319147598e+18 0 0)
(-5.0291706027353e+18 0 0)
(-4.92207134257971e+18 0 0)
(-4.80864412641631e+18 0 0)
(-4.68907913358606e+18 0 0)
(-4.56294746682766e+18 0 0)
(-4.43016268048708e+18 0 0)
(-4.29064389655423e+18 0 0)
(-4.1434587591082e+18 0 0)
(-3.98920206262102e+18 0 0)
(-3.82805689371093e+18 0 0)
(-3.65884704713081e+18 0 0)
(-3.48172000100929e+18 0 0)
(-3.29728971261923e+18 0 0)
(-3.10520829731773e+18 0 0)
(-2.90491204661045e+18 0 0)
(-2.69706509065283e+18 0 0)
(-2.48166325440794e+18 0 0)
(-2.25813802272162e+18 0 0)
(-2.02751826514726e+18 0 0)
(-1.78955940278252e+18 0 0)
(-1.54395335147022e+18 0 0)
(-1.29206546398498e+18 0 0)
(-1.03242684661917e+18 0 0)
(-7.65935031201825e+17 0 0)
(-4.94276894546461e+17 0 0)
(-2.14662403668836e+17 0 0)
(7.12211669639496e+16 0 0)
(3.62704057668731e+17 0 0)
(6.61714119840236e+17 0 0)
(9.67923412621066e+17 0 0)
(1.2829096128398e+18 0 0)
(1.60761024411284e+18 0 0)
(1.9408231161565e+18 0 0)
(2.43232214581196e+18 0 0)
(2.81758395760588e+18 0 0)
(3.05838185579859e+18 0 0)
(3.49383203270794e+18 0 0)
(4.0332000483229e+18 0 0)
(4.510724965453e+18 0 0)
(4.72448051673406e+18 0 0)
(5.6020276999629e+18 0 0)
(8.20199338604809e+18 0 0)
(1.07131400306767e+19 0 0)
(1.13671416313975e+19 0 0)
(1.23460597131678e+19 0 0)
(1.53012855845641e+19 0 0)
(1.80774727872655e+19 0 0)
(1.80047992504724e+19 0 0)
(1.75077333822834e+19 0 0)
(1.80524907816959e+19 0 0)
(1.62841063766517e+19 0 0)
(1.40463098073532e+19 0 0)
(1.16016322582969e+19 0 0)
(8.51559333334562e+18 0 0)
(5.95920720947577e+18 0 0)
(4.73934061389847e+18 0 0)
(6.46028249244736e+18 0 0)
(1.14010212966922e+19 0 0)
(2.03086699833653e+19 0 0)
(3.0061070310917e+19 0 0)
(4.25867417702126e+19 0 0)
(5.66008197414933e+19 0 0)
(6.4598983165069e+19 0 0)
(6.7108718885379e+19 0 0)
(6.61711133726086e+19 0 0)
(6.01798592339402e+19 0 0)
(4.98489766728373e+19 0 0)
(3.86865725136676e+19 0 0)
(2.71151675454107e+19 0 0)
(1.77619726201446e+19 0 0)
(1.02856382835142e+19 0 0)
(5.9168429865257e+18 0 0)
(2.75659170845988e+18 0 0)
(8.36985771528796e+17 0 0)
(-8.01488436927037e+16 0 0)
(-1.84726588668814e+17 0 0)
(-3.24525486129529e+17 0 0)
(-4.29052245506098e+17 0 0)
(-5.00054307509056e+17 0 0)
(-5.40154725243723e+17 0 0)
(-5.57714321317124e+17 0 0)
(-5.64318893716072e+17 0 0)
(-5.6316184352787e+17 0 0)
(-5.58001424096974e+17 0 0)
(-5.50433487676534e+17 0 0)
(-5.438126024357e+17 0 0)
(-5.36605332452929e+17 0 0)
(-5.29293745368234e+17 0 0)
(-5.21541818247181e+17 0 0)
(-5.13590224850788e+17 0 0)
(-5.05444974279198e+17 0 0)
(-4.97150776115118e+17 0 0)
(-4.88751082437541e+17 0 0)
(-4.80108307972471e+17 0 0)
(-4.71537314594454e+17 0 0)
(-4.63161801711853e+17 0 0)
(-4.54613831605193e+17 0 0)
(-4.46065662733828e+17 0 0)
(-4.37536052006927e+17 0 0)
(-4.29051337804454e+17 0 0)
(-4.20627037358164e+17 0 0)
(-4.12278031086261e+17 0 0)
(-4.04016694278734e+17 0 0)
(-3.95854073765083e+17 0 0)
(-3.87800196917374e+17 0 0)
(-3.79862875333651e+17 0 0)
(-3.72050007978558e+17 0 0)
(-3.64367807998599e+17 0 0)
(-3.56813443014171e+17 0 0)
(-3.49405241862476e+17 0 0)
(-3.4214360887061e+17 0 0)
(-3.3501966290588e+17 0 0)
(-3.28041922997877e+17 0 0)
(-3.21210405855811e+17 0 0)
(-3.14526990219981e+17 0 0)
(-3.07988723186408e+17 0 0)
(-3.01590849136722e+17 0 0)
(-2.95346317523938e+17 0 0)
(-2.89244667380015e+17 0 0)
(-2.83277231175096e+17 0 0)
(-2.77451459983732e+17 0 0)
(-2.71761407750964e+17 0 0)
(-2.66205036684947e+17 0 0)
(-2.60778908613854e+17 0 0)
(-2.5548125390815e+17 0 0)
(-2.50300471142982e+17 0 0)
(-2.45253641205809e+17 0 0)
(-2.4032416139635e+17 0 0)
(-2.35508000615645e+17 0 0)
(-2.308045477099e+17 0 0)
(-2.2621088145461e+17 0 0)
(-2.21724206653677e+17 0 0)
(-2.17341657585312e+17 0 0)
(-2.13060404199088e+17 0 0)
(-2.08877660480728e+17 0 0)
(-2.04790707121958e+17 0 0)
(-2.00796884540714e+17 0 0)
(-1.96893597412469e+17 0 0)
(-1.93078321276116e+17 0 0)
(-1.89348601661647e+17 0 0)
(-1.85702053417502e+17 0 0)
(-1.82136361192929e+17 0 0)
(-1.78649272595851e+17 0 0)
(-1.75238611492408e+17 0 0)
(-1.71902253483334e+17 0 0)
(-1.68638143559341e+17 0 0)
(-1.65444249381248e+17 0 0)
(-1.6231847979384e+17 0 0)
(-1.59258280545126e+17 0 0)
(-1.56258272411787e+17 0 0)
(-1.53306647270672e+17 0 0)
(-1.50481657141716e+17 0 0)
(-1.47682849431222e+17 0 0)
(-1.44947803669699e+17 0 0)
(-1.42271260725253e+17 0 0)
(-1.39654366074582e+17 0 0)
(-1.37093673164424e+17 0 0)
(-1.34590596554837e+17 0 0)
(-1.32108522833456e+17 0 0)
(-1.2973576755568e+17 0 0)
(-1.27431047750592e+17 0 0)
(-1.25157205970171e+17 0 0)
(-1.22939378417474e+17 0 0)
(-1.2073798011091e+17 0 0)
(-1.18648974459376e+17 0 0)
(-1.16642535649263e+17 0 0)
(-1.14645095221657e+17 0 0)
(-1.12689575922806e+17 0 0)
(-1.1092193660151e+17 0 0)
(-1.09075873934812e+17 0 0)
(-1.07479124198786e+17 0 0)
(-1.05986059644954e+17 0 0)
(-1.04569711655707e+17 0 0)
(-1.03355080619196e+17 0 0)
(-1.01453330494567e+17 0 0)
)
;

boundaryField
{
    electrode
    {
        type            calculated;
        value           uniform (-9.74960951881521e+18 0 0);
    }
    ground
    {
        type            calculated;
        value           uniform (-1.01143992819594e+17 0 0);
    }
    otherfaces
    {
        type            empty;
    }
}


// ************************************************************************* //
