/*--------------------------------*- C++ -*----------------------------------*\
| =========                 |                                                 |
| \\      /  F ield         | foam-extend: Open Source CFD                    |
|  \\    /   O peration     | Version:     4.0                                |
|   \\  /    A nd           | Web:         http://www.foam-extend.org         |
|    \\/     M anipulation  |                                                 |
\*---------------------------------------------------------------------------*/
FoamFile
{
    version     2.0;
    format      ascii;
    class       volScalarField;
    location    "3e-07";
    object      N_electronMean;
}
// * * * * * * * * * * * * * * * * * * * * * * * * * * * * * * * * * * * * * //

dimensions      [0 0 0 1 0 0 0];

internalField   nonuniform List<scalar> 
300
(
6.03627477736442e+16
6.03698385130124e+16
6.03771776566204e+16
6.0381772531518e+16
6.03835770786007e+16
6.03820549474952e+16
6.03768266755854e+16
6.03676340148057e+16
6.03542571025442e+16
6.033651889222e+16
6.03142812961665e+16
6.02874409349564e+16
6.02559242512248e+16
6.02196835682402e+16
6.01786940594775e+16
6.01329507547929e+16
6.00824659512845e+16
6.00272669751289e+16
5.99673940855772e+16
5.99028985633045e+16
5.9833841076584e+16
5.9760290231535e+16
5.96823212686955e+16
5.96000148486093e+16
5.9513456280029e+16
5.94227350296745e+16
5.93279437594469e+16
5.92291774594081e+16
5.91265328819026e+16
5.90201077104984e+16
5.89100003059e+16
5.87963101586861e+16
5.86791373703746e+16
5.85585814046086e+16
5.84347404424194e+16
5.83077110841384e+16
5.8177588107533e+16
5.80444643392091e+16
5.79084304477201e+16
5.77695747379775e+16
5.762798316307e+16
5.74837393140392e+16
5.7336924217044e+16
5.71876162197814e+16
5.703589101858e+16
5.68818217063807e+16
5.6725478873927e+16
5.65669307994414e+16
5.64062438015031e+16
5.62434827660978e+16
5.607871207216e+16
5.59119965148348e+16
5.57434015690117e+16
5.55729930725932e+16
5.54008363844204e+16
5.52269954775885e+16
5.50515322660216e+16
5.48745062415618e+16
5.46959743656669e+16
5.45159909821376e+16
5.43346078139093e+16
5.41518739944778e+16
5.39678360180994e+16
5.37825383256869e+16
5.35960245957025e+16
5.34083376819367e+16
5.32195183034289e+16
5.30296045033744e+16
5.28386317233886e+16
5.26466328585665e+16
5.24536382832542e+16
5.22596762190947e+16
5.20647737029013e+16
5.18689568656223e+16
5.16722504636492e+16
5.14746785058376e+16
5.12762652944482e+16
5.10770354484231e+16
5.08770129762709e+16
5.06762209280572e+16
5.04746817907082e+16
5.0272416498604e+16
5.00694434836849e+16
4.98657786703224e+16
4.96614357900222e+16
4.94564271287026e+16
4.92507633272042e+16
4.90444524288519e+16
4.88374997067629e+16
4.86299080289967e+16
4.84216777506485e+16
4.82128074889932e+16
4.80032950583638e+16
4.77931360981616e+16
4.7582322777469e+16
4.73708437005475e+16
4.71586838103294e+16
4.69458242696875e+16
4.67322423303312e+16
4.65179114330289e+16
4.63028012332737e+16
4.60868771444378e+16
4.58701005899776e+16
4.56524296312695e+16
4.54338182681819e+16
4.52142159833515e+16
4.49935677345649e+16
4.47718136723518e+16
4.45488891700502e+16
4.43247242106907e+16
4.40992425210863e+16
4.38723611753937e+16
4.36439904367223e+16
4.34140339234944e+16
4.31823883260509e+16
4.294894310971e+16
4.27135812269767e+16
4.24761790897292e+16
4.22366050535363e+16
4.19947180441763e+16
4.17503674033565e+16
4.15033930850232e+16
4.12536256284146e+16
4.10008862347805e+16
4.07449853767121e+16
4.04857204176501e+16
4.02228745807855e+16
3.99562164033302e+16
3.96854982895754e+16
3.94104552011804e+16
3.91308038681518e+16
3.88462419041127e+16
3.85564465695946e+16
3.82610734305205e+16
3.79597564021065e+16
3.76521081322418e+16
3.73377179467592e+16
3.70161493051827e+16
3.66869392067471e+16
3.63495975776521e+16
3.60036051231592e+16
3.56484113111427e+16
3.52834332488966e+16
3.49080550869668e+16
3.45216285049725e+16
3.4123472719834e+16
3.37128727238114e+16
3.32890772845807e+16
3.28512970729781e+16
3.23987047090653e+16
3.19304364482008e+16
3.14455918558085e+16
3.09432342381789e+16
3.04223923272587e+16
2.98820603359667e+16
2.93211992712678e+16
2.87387401886011e+16
2.81335872920552e+16
2.75046193810308e+16
2.68506912308343e+16
2.61706357832422e+16
2.54632607941393e+16
2.47273377856285e+16
2.39615851577257e+16
2.31646278653962e+16
2.23348843281312e+16
2.14704185956184e+16
2.05689458500307e+16
1.96280482691724e+16
1.86454293260089e+16
1.76191276198746e+16
1.65478632244617e+16
1.54316410319521e+16
1.42724399252337e+16
1.30748030789872e+16
1.18463975125124e+16
1.0598527791477e+16
9.34635361871798e+15
8.10868184793312e+15
6.90722591424269e+15
5.76522946817177e+15
4.70552493029674e+15
3.74828239889222e+15
2.90881988180981e+15
2.19589069831945e+15
1.61083461596482e+15
1.1477476948619e+15
794709202494110
535779654953736
353188948394330
229355242799696
148482300401634
97486699703505.8
66281485504578.9
47517564321440.2
36294621642802.9
29483781223834.4
25174095482231.7
22356132956791.9
20465705745309.5
19144634968296.7
18139462063024.7
17301762684148
16560061171598.6
15881220767457.8
15248909293952
14654157731254
14091498519880.3
13557167221298.3
13048410999675.9
12563044149106.6
12099215739343.8
11655351011670.8
11230096176212.5
10822258379845
10430770312045
10054677607637.6
9693123573885.06
9345322621748.26
9010568289046.62
8688221188480.21
8377669774735.44
8078356840329.79
7789774885991.94
7511447628834.8
7242931713046.81
6983816706193.29
6733713331907.8
6492260295420.31
6259115790906.86
6033952435923.9
5816469237973.34
5606373468865.36
5403387787020.58
5207254563482.64
5017725607911.41
4834559966235.11
4657536090707.49
4486435140225.36
4321047804282.85
4161180516216.32
4006643082557.25
3857261327747.02
3712866109796.36
3573294212664.58
3438392988279.09
3308011415206.17
3182005689050.89
3060233237132.23
2942557763868.13
2828848558907.52
2718975589278.3
2612814279357.55
2510241035235.47
2411139646461.57
2315402786532
2222926165308.72
2133610763882.52
2047363552971.8
1964092003379.36
1883708997967.66
1806125649228.51
1731255957395.56
1659011673717.87
1589307274865.82
1522064395856.18
1457208230725.86
1394669536221.11
1334379725882.05
1276275251475.03
1220290665399.84
1166360762934.04
1114419943887.4
1064408780915.79
1016269617629.46
969947372837.338
925388224924.795
882537389869.827
841343493591.227
801758625486.765
763735626980.788
727221542782.924
692168379352.438
658534810257.46
626274749345.657
595345486331.811
565711762924.65
537334713929.253
510176513302.801
484202425405.451
459376374055.655
435663534862.315
413034284811.656
391463677194.668
370937887667.532
351447049736.009
332989993835.821
315526787558.895
299314654838.742
284202944909.665
)
;

boundaryField
{
    electrode
    {
        type            calculated;
        value           uniform 6.03627477775728e+16;
    }
    ground
    {
        type            calculated;
        value           uniform 277407898505.049;
    }
    otherfaces
    {
        type            empty;
    }
}


// ************************************************************************* //
