/*--------------------------------*- C++ -*----------------------------------*\
| =========                 |                                                 |
| \\      /  F ield         | foam-extend: Open Source CFD                    |
|  \\    /   O peration     | Version:     4.0                                |
|   \\  /    A nd           | Web:         http://www.foam-extend.org         |
|    \\/     M anipulation  |                                                 |
\*---------------------------------------------------------------------------*/
FoamFile
{
    version     2.0;
    format      ascii;
    class       volScalarField;
    location    "3e-07";
    object      Phi;
}
// * * * * * * * * * * * * * * * * * * * * * * * * * * * * * * * * * * * * * //

dimensions      [0 0 0 1 0 0 0];

internalField   nonuniform List<scalar> 
300
(
699.999963267919
699.999776999094
699.999270327618
699.998550739737
699.997589764461
699.996370481914
699.994899503319
699.993171117782
699.991178407011
699.988915731821
699.98637713961
699.983556523687
699.980447816596
699.977045163038
699.973343016477
699.969336231623
699.965020150094
699.960390670762
699.955444300061
699.950178187545
699.944590149237
699.938678673362
699.932442917187
699.92588269448
699.918998437231
699.911791184456
699.904262526264
699.896414562879
699.888249866635
699.879771432918
699.870982614496
699.861887096257
699.852488840342
699.842792031063
699.832801044305
699.822520405062
699.811954746527
699.801108780766
699.789987268439
699.778594989664
699.766936720908
699.755017218502
699.7428411953
699.730413309069
699.717738149427
699.704820227351
699.691663966132
699.678273695216
699.664653643706
699.650807941183
699.636740599903
699.622455536391
699.607956541028
699.593247302875
699.578331387432
699.563212249669
699.54789322511
699.532377531685
699.516668270265
699.500768421487
699.484680844475
699.468408277126
699.451953345766
699.435318537764
699.418506224029
699.401518662826
699.384357973897
699.367026156751
699.349525086129
699.33185650762
699.314022046049
699.296023188245
699.27786128814
699.259537582948
699.241053163012
699.222408976748
699.203605842399
699.184644420553
699.165525248164
699.14624865983
699.126814872705
699.107223913972
699.087475628332
699.067569690807
699.0475055602
699.027282495817
699.006899541802
698.986355504819
698.965648935079
698.9447781324
698.923741130825
698.902535623017
698.881159040599
698.859608457004
698.837880589779
698.815971789546
698.79387800281
698.771594758825
698.749117133354
698.726439722374
698.703556620249
698.680461395844
698.657147011433
698.633605863219
698.609829685617
698.585809517335
698.561535696942
698.536997758434
698.512184429662
698.487083558042
698.461682046593
698.435965811312
698.409919692573
698.383527391209
698.356771414039
698.329632945217
698.302091780106
698.274126243684
698.245713058449
698.216827248568
698.18744198942
698.157528540497
698.127056019414
698.095991314761
698.064298913303
698.03194071285
697.998875818553
697.965060399757
697.930447430549
697.894986482057
697.858623476862
697.821300431833
697.782955195077
697.743521163962
697.702926906141
697.661095921675
697.617946260567
697.573390121504
697.527333444353
697.479675537525
697.430308574474
697.37911709143
697.325977486162
697.270757425959
697.213315178757
697.153499021377
697.091146403922
697.026083168747
696.958122690361
696.887064704736
696.812694322869
696.734780790086
696.653075827395
696.567312224978
696.477201857067
696.38243352298
696.282670404727
696.17754700347
696.066666486336
695.949595907192
695.82585833747
695.694930070092
695.556234423391
695.409125880165
695.252868612914
695.086656402442
694.909634907088
694.720735194924
694.518445281304
694.300962249286
694.066341603651
693.81218317425
693.535301039289
693.231829720601
692.897565322947
692.527453818979
692.115455130312
691.654984499654
691.138355630333
690.557196657425
689.902347314915
689.164304702203
688.333350050214
687.399830733498
686.354477659097
685.188319979202
683.896117145825
682.472641626251
680.910933124099
679.208623589776
677.367543258083
675.387477443097
673.267195818341
671.006964538278
668.610138496384
666.08004506998
663.417751846854
660.624623334955
657.703673751136
654.656956479083
651.486029933415
648.193406317595
644.781455000739
641.251709555379
637.606019132269
633.846811786578
629.976490387608
625.997029728028
621.910462260056
617.719094599903
613.424923426965
609.030036213219
604.536653234259
599.946475532394
595.261309854191
590.483375499408
585.614859301723
580.657854103425
575.614354211807
570.486287824888
565.275531814007
559.983950581557
554.613409736981
549.165760078352
543.642838019325
538.046426738646
532.378258224088
526.639973738857
520.833174045598
514.959372475454
509.020047387654
503.016639718339
496.950536595401
490.823217114716
484.636173447944
478.390862713605
472.088712775667
465.731120918798
459.319453517439
452.85504737166
446.33921242481
439.773232886907
433.158364610615
426.49583441034
419.786838796095
413.032547272863
406.234101995044
399.392619475376
392.509188983391
385.584872957749
378.620706298496
371.617697639256
364.576831136502
357.49906621902
350.385338212642
343.236556766705
336.053605506091
328.837341425752
321.588595374638
314.308173314363
306.996857213751
299.655405760178
292.284556037303
284.885024240489
277.457506837343
270.002681006212
262.521205461654
255.013721280982
247.48085267775
239.923206061276
232.341372368315
224.735924023149
217.107418892211
209.456394291144
201.783380205748
194.088877393985
186.37339020971
178.637381830406
170.88133275082
163.105669224105
155.310849000519
147.497267245623
139.665356213947
131.81548300014
123.94805863519
116.063420832343
108.161964138124
100.243998240348
92.3098987690544
84.3599463024179
76.3944957496555
68.413797665918
60.4181923929468
52.4079046536882
44.3832609612915
36.3444596460766
28.2918142508933
20.2254961946438
12.1458072026734
4.05289343361338
)
;

boundaryField
{
    electrode
    {
        type            fixedValue;
        value           uniform 700;
    }
    ground
    {
        type            fixedValue;
        value           uniform 0;
    }
    otherfaces
    {
        type            empty;
    }
}


// ************************************************************************* //
