/*--------------------------------*- C++ -*----------------------------------*\
| =========                 |                                                 |
| \\      /  F ield         | foam-extend: Open Source CFD                    |
|  \\    /   O peration     | Version:     4.0                                |
|   \\  /    A nd           | Web:         http://www.foam-extend.org         |
|    \\/     M anipulation  |                                                 |
\*---------------------------------------------------------------------------*/
FoamFile
{
    version     2.0;
    format      ascii;
    class       volScalarField;
    location    "3e-07";
    object      PhiMean;
}
// * * * * * * * * * * * * * * * * * * * * * * * * * * * * * * * * * * * * * //

dimensions      [0 0 0 1 0 0 0];

internalField   nonuniform List<scalar> 
300
(
699.755657558524
699.734903974662
699.713736784711
699.692246969413
699.670471618958
699.648339011453
699.625826878083
699.602917063613
699.579593137461
699.555842568382
699.531655758668
699.50702596597
699.481948593741
699.456420984974
699.430442164018
699.404012580605
699.37713389926
699.349808847424
699.322041042126
699.29383483056
699.265195177221
699.236127553791
699.206637844071
699.176732250731
699.146417208471
699.115699498836
699.084586066606
699.053083967853
699.021200376342
698.98894246313
698.956317329734
698.923332266546
698.889994656585
698.856311744956
698.82229062755
698.787938233615
698.753261298597
698.718266384596
698.682959853959
698.647347832231
698.61143622785
698.575230754789
698.53873687397
698.501959792787
698.464904467573
698.427575605812
698.389977669096
698.352114895675
698.313991324885
698.275610882297
698.236977453058
698.19809513518
698.158968147885
698.119600917456
698.079997846453
698.040163258546
698.000101257898
697.959815712541
697.919310252361
697.878588248761
697.837652824113
697.796506851002
697.755152932845
697.71359339625
697.671830672853
697.629867273641
697.587705415763
697.545347028809
697.50279377091
697.460047028464
697.417107911305
697.373977236927
697.330655758505
697.287144238974
697.243443188135
697.199553036184
697.155474393737
697.111207947333
697.066754411531
697.022114197562
696.97728796433
696.93227608885
696.887078612288
696.841695295022
696.796125551342
696.750368755486
696.704424142363
696.658290566538
696.611966485214
696.565450119204
696.518739352749
696.471831717655
696.424725051518
696.37741678053
696.329903833691
696.282182670246
696.234249238449
696.186098991345
696.137726802126
696.089127026572
696.04029352277
695.991219521856
695.941897532932
695.892319812166
695.842477889422
695.792362578728
695.741964092786
695.69127175905
695.640274284106
695.588959490223
695.537314138793
695.485323908531
695.432973279464
695.380245626405
695.327123161336
695.273586668638
695.21961583221
695.165189281699
695.110284098784
695.054875575008
694.998937089373
694.942440374016
694.885355129377
694.827649402184
694.769289110066
694.710237453874
694.650454684035
694.589898204144
694.528521944203
694.46627613598
694.403107031261
694.338956659994
694.273762411699
694.207456509135
694.139965740679
694.071211793784
694.001110203473
693.929569427981
693.856490509595
693.781766770472
693.705282618994
693.626912613922
693.546520615754
693.463958825967
693.379067082064
693.291672143116
693.201585717766
693.10860292127
693.01250007876
692.913032656529
692.809934204411
692.7029131986
692.591649985854
692.475794575187
692.354961651604
692.228726523063
692.096620274765
691.958124048974
691.812661514228
691.659589275916
691.498187316445
691.327644813955
691.147040166456
690.955317988629
690.751258095365
690.533416444243
690.300013318256
690.048848865044
689.777280855726
689.482175580469
689.159793846197
688.805664207449
688.414559099799
687.980482416905
687.496596154244
686.955147083584
686.347546855698
685.664442396699
684.895853892322
684.031460366126
683.060890545441
681.974131737734
680.761858493598
679.41591958651
677.929566807947
676.297750251813
674.51718886646
672.58604817211
670.504210898502
668.273027842441
665.894608836333
663.371609433634
660.70732936381
657.905521017372
654.96994344261
651.9041322687
648.711569632023
645.395773742117
641.960153129657
638.407894819191
634.742132818229
630.965946493665
627.082308405117
623.094166359865
619.004454167625
614.816005215704
610.531507217455
606.153539529858
601.684631251228
597.12723193609
592.483723816059
587.75645030508
582.947688527947
578.059674696447
573.094634924577
568.054737806777
562.942066693862
557.758626045568
552.506349168391
547.187104370444
541.80269920188
536.354884566955
530.845354812022
525.275750574143
519.647659612968
513.962619168661
508.222119860785
502.427607400622
496.5804891293
490.682131486521
484.733870169381
478.737002695905
472.692819626914
466.602621716847
460.467674675216
454.28920598241
448.068405235584
441.806425162318
435.504383216538
429.163362232145
422.784412132462
416.368550124727
409.91676225063
403.430003932123
396.909201219755
390.355251651835
383.769025121388
377.151364458626
370.503086419041
363.824982195425
357.117818323647
350.382337347018
343.619258486813
336.82927822118
330.013071012444
323.171289702404
316.304566463362
309.413513187706
302.498722436902
295.560767993637
288.600205457962
281.617572875955
274.613391055237
267.588164304092
260.542380510887
253.476511937737
246.391015205411
239.286332062829
232.162889362674
225.021099780632
217.861361975171
210.684060954091
203.489568550141
196.278243326845
189.050431704284
181.80646673857
174.546671040974
167.271353150456
159.980813703069
152.675337494356
145.355204807109
138.020677286588
130.672016217373
123.309461036024
115.933255369638
108.543617024256
101.14077320148
93.7249206573861
86.2962716561158
78.8550022402622
71.4013110310196
63.9353539747053
56.4573173820801
48.9673371935908
41.4655885704927
33.9521874821843
26.4272991160137
18.8910194231569
11.3435048266174
3.78483417511117
)
;

boundaryField
{
    electrode
    {
        type            calculated;
        value           uniform 699.999999999977;
    }
    ground
    {
        type            calculated;
        value           uniform 0;
    }
    otherfaces
    {
        type            empty;
    }
}


// ************************************************************************* //
