/*--------------------------------*- C++ -*----------------------------------*\
| =========                 |                                                 |
| \\      /  F ield         | foam-extend: Open Source CFD                    |
|  \\    /   O peration     | Version:     4.0                                |
|   \\  /    A nd           | Web:         http://www.foam-extend.org         |
|    \\/     M anipulation  |                                                 |
\*---------------------------------------------------------------------------*/
FoamFile
{
    version     2.0;
    format      ascii;
    class       volScalarField;
    location    "3e-07";
    object      Sy_electron;
}
// * * * * * * * * * * * * * * * * * * * * * * * * * * * * * * * * * * * * * //

dimensions      [1 -3 -1 0 0 0 0];

internalField   nonuniform List<scalar> 
300
(
3.5960660942884e-11
3.59628405121728e-11
3.59547000156993e-11
3.59410532157488e-11
3.59244361446843e-11
3.59021090478445e-11
3.58752366556884e-11
3.5843895315696e-11
3.58078050670257e-11
3.57669512419304e-11
3.57213137287368e-11
3.56708494844491e-11
3.56155191807339e-11
3.55552892746807e-11
3.54901324544914e-11
3.54200271346232e-11
3.5344958535518e-11
3.52649193691447e-11
3.51799100194941e-11
3.50899386486274e-11
3.49950212966981e-11
3.48951816068498e-11
3.47904508905251e-11
3.46808675437399e-11
3.4566476366198e-11
3.44473289508726e-11
3.43234825198207e-11
3.41949991045999e-11
3.40619460455556e-11
3.39243948926361e-11
3.37824201981635e-11
3.36361002278322e-11
3.34855162381722e-11
3.33307512316528e-11
3.31718902978475e-11
3.30090202352116e-11
3.28422288437131e-11
3.26716049102331e-11
3.24972379969669e-11
3.23192179751428e-11
3.21376349694235e-11
3.1952579327241e-11
3.17641412604797e-11
3.15724107901454e-11
3.13774777440031e-11
3.1179431592127e-11
3.0978361405495e-11
3.0774355721905e-11
3.05675027306975e-11
3.03578899993201e-11
3.01456044143626e-11
2.99307325356367e-11
2.97133600941292e-11
2.94935723258156e-11
2.92714537758973e-11
2.90470883005869e-11
2.88205590829236e-11
2.85919485153501e-11
2.83613383716332e-11
2.81288096522034e-11
2.78944423725015e-11
2.76583160157868e-11
2.74205095102199e-11
2.71811002437138e-11
2.69401650990683e-11
2.66977806939382e-11
2.64540221865053e-11
2.62089639295756e-11
2.59626795605909e-11
2.5715241824116e-11
2.54667228396305e-11
2.5217193385394e-11
2.49667233744748e-11
2.47153825147061e-11
2.44632390857364e-11
2.42103603645852e-11
2.39568128274254e-11
2.37026623412848e-11
2.34479738796612e-11
2.31928105097408e-11
2.29372353798466e-11
2.26813104073746e-11
2.24250959978227e-11
2.21686521486573e-11
2.19120372112058e-11
2.16553085377542e-11
2.13985227998486e-11
2.11417351277278e-11
2.088499897135e-11
2.0628367454061e-11
2.03718921915781e-11
2.01156224768659e-11
1.98596075718627e-11
1.96038950879054e-11
1.93485306507885e-11
1.90935588919537e-11
1.88390228943956e-11
1.85849643297638e-11
1.83314232697858e-11
1.80784379970563e-11
1.78260457549252e-11
1.75742820666492e-11
1.7323180171239e-11
1.70727726029368e-11
1.68230898876443e-11
1.65741605548875e-11
1.63260120401492e-11
1.60786695251861e-11
1.58321566916989e-11
1.5586495588563e-11
1.53417062247157e-11
1.50978070697643e-11
1.48548144590089e-11
1.46127429556367e-11
1.43716057006006e-11
1.41314133820946e-11
1.38921747184542e-11
1.3653896941939e-11
1.34165852729569e-11
1.31802425955703e-11
1.29448698120029e-11
1.27104662799739e-11
1.24770286889429e-11
1.22445517542073e-11
1.20130287217023e-11
1.17824502924714e-11
1.15528048107946e-11
1.13240790914788e-11
1.10962578333988e-11
1.08693236144175e-11
1.06432571330274e-11
1.04180371157603e-11
1.0193640979551e-11
9.9700444921155e-12
9.74722126706664e-12
9.52514421895482e-12
9.30378571052484e-12
9.08311669849782e-12
8.86310744099892e-12
8.64372860450682e-12
8.42495098981256e-12
8.20674570500545e-12
7.98908535840934e-12
7.77194403667451e-12
7.55529774674251e-12
7.33912583791899e-12
7.12341072945777e-12
6.90813929926563e-12
6.69330385472877e-12
6.47890134864917e-12
6.2649361909239e-12
6.05142095034107e-12
5.83837556379242e-12
5.62583009539886e-12
5.4138256477509e-12
5.20241497227831e-12
4.99166374556667e-12
4.78165096670284e-12
4.57251298433342e-12
4.36439276741468e-12
4.15730311340234e-12
3.95136557190275e-12
3.74684740126404e-12
3.54391300566597e-12
3.34261551710704e-12
3.14328801115029e-12
2.94691048568672e-12
2.75409655581202e-12
2.56422643063364e-12
2.37686861212997e-12
2.19281364750651e-12
2.01263722679764e-12
1.83552649821396e-12
1.66079463460628e-12
1.48905511721807e-12
1.32064228502502e-12
1.15578885842246e-12
9.95614008208109e-13
8.41523008964134e-13
6.80582364594759e-13
5.32839463089502e-13
4.0295546681138e-13
2.93292538297733e-13
2.05047963309887e-13
1.37583084965622e-13
8.88482363208324e-14
5.60242911295446e-14
3.52067218350541e-14
2.25419479453696e-14
1.53720968979927e-14
1.20259593586657e-14
1.19642026471985e-14
1.67001717123291e-14
3.2191466255293e-14
1.12198540014631e-13
1.01295767241917e-12
4.93730839261248e-11
3.09237908928981e-10
7.9216761604935e-10
9.3667492263583e-10
7.65994142968742e-10
5.51765641638817e-10
3.98458191371106e-10
3.04849178168416e-10
2.5409393886308e-10
2.27906630977973e-10
2.14845407251502e-10
2.1005042537166e-10
2.08864277766251e-10
2.10128145486838e-10
2.12873074637663e-10
2.16361085540451e-10
2.19944732209644e-10
2.23223388650174e-10
2.262729901686e-10
2.28959450895028e-10
2.31200517933722e-10
2.32947946191986e-10
2.34177185189512e-10
2.34863916482199e-10
2.35064705535882e-10
2.34779823264948e-10
2.34028882012802e-10
2.32839651638355e-10
2.31244340070096e-10
2.29277100595375e-10
2.2697286712619e-10
2.24366512886681e-10
2.21492280894467e-10
2.18383346765857e-10
2.15071534689841e-10
2.11587097745528e-10
2.07958588099966e-10
2.04212889768482e-10
2.0037447465037e-10
1.96465396181365e-10
1.92506577170693e-10
1.88517615387478e-10
1.84516164157426e-10
1.80518010545691e-10
1.76537252732702e-10
1.72586345615934e-10
1.68675580936251e-10
1.6481368964297e-10
1.61008616462451e-10
1.57267184560923e-10
1.53594780831573e-10
1.4999575797935e-10
1.46473517679668e-10
1.43030582530116e-10
1.39668726677114e-10
1.36388258318138e-10
1.33188622417132e-10
1.30069598995616e-10
1.27030873786606e-10
1.24071827709557e-10
1.21191558296883e-10
1.1838891407751e-10
1.15662538189363e-10
1.13010909513024e-10
1.10432380022436e-10
1.07925207877216e-10
1.05487586767819e-10
1.03117671472753e-10
1.00813599896399e-10
9.85735118636857e-11
9.6395565331466e-11
9.42779506198401e-11
9.22189019619786e-11
9.02167076261769e-11
8.82697183812313e-11
8.63763534282612e-11
8.45351010627521e-11
8.27444955033163e-11
8.09227829357303e-11
7.91307208525878e-11
7.73792667545939e-11
7.56641235093779e-11
7.39857632870982e-11
7.23448577749727e-11
7.07423103427181e-11
6.91790038144774e-11
6.76556041229416e-11
6.61725631137157e-11
6.45825815499168e-11
6.29759328106268e-11
6.13998347920244e-11
5.98587082130652e-11
5.83571170444233e-11
5.68155952015579e-11
5.50663090383106e-11
5.33574516576371e-11
5.16972893717379e-11
4.97051229871218e-11
4.76621143065217e-11
4.53906176542561e-11
4.2802415647908e-11
3.95948545036217e-11
3.55590520349747e-11
3.00337044693673e-11
)
;

boundaryField
{
    electrode
    {
        type            zeroGradient;
    }
    ground
    {
        type            zeroGradient;
    }
    otherfaces
    {
        type            empty;
    }
}


// ************************************************************************* //
