/*--------------------------------*- C++ -*----------------------------------*\
| =========                 |                                                 |
| \\      /  F ield         | foam-extend: Open Source CFD                    |
|  \\    /   O peration     | Version:     4.0                                |
|   \\  /    A nd           | Web:         http://www.foam-extend.org         |
|    \\/     M anipulation  |                                                 |
\*---------------------------------------------------------------------------*/
FoamFile
{
    version     2.0;
    format      ascii;
    class       volScalarField;
    location    "3e-07";
    object      Te;
}
// * * * * * * * * * * * * * * * * * * * * * * * * * * * * * * * * * * * * * //

dimensions      [0 0 0 1 0 0 0];

internalField   nonuniform List<scalar> 
300
(
34150.4731311363
34150.5759933452
34150.4226946352
34150.1582919171
34149.857652535
34149.4415561156
34148.9451025298
34148.3710994756
34147.7121659959
34146.968777206
34146.1411866004
34145.2289184738
34144.2315302981
34143.1486410945
34141.9799174819
34140.7250363994
34139.3836985013
34137.9556330345
34136.4405924177
34134.8383483819
34133.1486914473
34131.3714226248
34129.5063584991
34127.5533196176
34125.5121188497
34123.3825807566
34121.1645203659
34118.8577300386
34116.462007307
34113.9771364195
34111.402865561
34108.7389399182
34105.9850939512
34103.1410266786
34100.2064237418
34097.1809570064
34094.0642731433
34090.8560022618
34087.5557604203
34084.163142943
34080.6777294973
34077.099089367
34073.4267755918
34069.6603279228
34065.7992769674
34061.8431424185
34057.7914349734
34053.6436542846
34049.399298151
34045.0578543709
34040.61880137
34036.0816197876
34031.4457789691
34026.7107473175
34021.8759884849
34016.9409612825
34011.9051224526
34006.7679223918
34001.5288121735
33996.1872388194
33990.7426374926
33985.1944491829
33979.5421211803
33973.785070608
33967.9227213326
33961.9545142029
33955.879864193
33949.6981843956
33943.4088897527
33937.0113902373
33930.5051024657
33923.8894209942
33917.1637365735
33910.3274641802
33903.3799947074
33896.3207103831
33889.1489940653
33881.8642395682
33874.4658383485
33866.9531398065
33859.3255321494
33851.5823922217
33843.7230710397
33835.7469451414
33827.653361688
33819.441666355
33811.1112217475
33802.6613687404
33794.0914195588
33785.4007236986
33776.588614101
33767.6543671004
33758.5973097118
33749.4167506658
33740.1119585958
33730.6822150701
33721.1267857901
33711.4449289356
33701.6358863213
33691.6988705228
33681.6331086769
33671.4378055437
33661.1121114275
33650.6552077473
33640.0662386506
33629.3443067765
33618.4885271223
33607.4979591731
33596.3716476226
33585.1086170762
33573.7078443151
33562.1682902234
33550.4888583491
33538.6684163368
33526.7058208769
33514.5998438701
33502.3492015284
33489.9525829907
33477.4086162978
33464.7158372708
33451.8727119893
33438.8776611042
33425.7289717547
33412.4248348208
33398.9633844723
33385.3425987093
33371.5603011877
33357.6142104831
33343.50188022
33329.2206723803
33314.7677577415
33300.1400740504
33285.3343606933
33270.347092544
33255.1743794162
33239.8120560995
33224.2556569557
33208.5002610222
33192.5404871517
33176.3705355737
33159.9840743301
33143.3741491256
33126.533216142
33109.4530086606
33092.1244438565
33074.5376461426
33056.6817449203
33038.5448654519
33020.1140638833
33001.3749634699
32982.3119038104
32962.9078014823
32943.1436989136
32922.9988615552
32902.4505978001
32881.4739857577
32860.0417043135
32838.123503279
32815.6989037943
32792.737270845
32769.1743640271
32744.9661533722
32720.0901831559
32694.4924914866
32668.0715055881
32640.7938219761
32612.8562966106
32584.3953832979
32555.1088314939
32524.6931316315
32493.3328085215
32461.1828490396
32427.6736131527
32392.048357887
32354.0639871207
32313.0689338528
32267.8704128315
32217.3809065672
32160.0964143134
32094.148374649
32017.6131095334
31928.8359597009
31826.8205049799
31711.8188198499
31584.9685796055
31449.9963463504
31319.2856566519
31209.7125945761
31139.3226551878
31143.6622330062
31283.3130345324
31643.3033338553
32356.8115693602
33647.7559672975
35885.8911866851
39767.5132124402
46654.7667093125
59208.6640651373
80205.8000690201
111834.966255894
158166.503769785
223874.954757341
305805.452603709
395164.796987783
481536.080472115
558341.756636577
623464.54255391
677527.392145882
722301.741373568
759635.113325771
790973.341855124
817380.034825144
839788.669448521
858952.251394831
875490.348541137
889878.953281425
902495.251399579
913637.216637257
923553.736232021
932438.448842297
940419.856119221
947618.726494282
954150.883371003
960101.983345815
965541.907307599
970527.49283448
975105.334769904
979313.50573155
983182.99981059
986738.806536558
990000.85564449
992984.735452457
995702.239441302
998162.595786539
1000371.71567276
1002332.09521652
1004045.48704549
1005512.33540517
1006730.95199785
1007698.21790011
1008409.93170198
1008858.87321498
1009038.82259629
1008950.17711721
1008580.57451661
1007922.52667079
1006967.43986846
1005706.71121298
1004131.47885218
1002232.6222406
1000001.76377874
997429.199618355
994504.344909103
991218.322443991
987561.955758496
983525.692056015
979099.894676487
974274.843431447
969040.746689842
963387.719953466
957305.775972672
950784.800164549
943814.521412582
936384.480043238
928483.993159501
920102.111668139
911227.576533371
901848.7693703
891953.654306763
881529.725460492
870563.935764797
859042.634123215
846951.511127155
834275.63170304
821000.012470682
807112.017919199
792589.2578345
777409.49259151
761555.807273102
745001.788105864
727719.416990775
709678.380798097
690845.706306549
671192.776824166
650685.250608645
629276.849600849
606922.10056892
583564.392859005
559142.862110782
533589.272261076
506817.264314776
478729.680221166
449215.356530875
418124.438221112
385281.130574029
350458.279168436
313318.080693173
273435.792263844
230193.377500726
182732.165700566
)
;

boundaryField
{
    electrode
    {
        type            electronTemperature;
        seec            0.05;
        Tse             1000;
        Edepend         1;
        TFN             1000;
        field_emission  0;
        field_enhancement_factor 55;
        work_function   5;
        value           uniform 34150.4731311363;
    }
    ground
    {
        type            electronTemperature;
        seec            0.05;
        Tse             1000;
        Edepend         1;
        TFN             1000;
        field_emission  0;
        field_enhancement_factor 55;
        work_function   5;
        value           uniform 155962.942090315;
    }
    otherfaces
    {
        type            empty;
    }
}


// ************************************************************************* //
