/*--------------------------------*- C++ -*----------------------------------*\
| =========                 |                                                 |
| \\      /  F ield         | foam-extend: Open Source CFD                    |
|  \\    /   O peration     | Version:     4.0                                |
|   \\  /    A nd           | Web:         http://www.foam-extend.org         |
|    \\/     M anipulation  |                                                 |
\*---------------------------------------------------------------------------*/
FoamFile
{
    version     2.0;
    format      ascii;
    class       volScalarField;
    location    "3e-07";
    object      TeMean;
}
// * * * * * * * * * * * * * * * * * * * * * * * * * * * * * * * * * * * * * //

dimensions      [0 0 0 1 0 0 0];

internalField   nonuniform List<scalar> 
300
(
47065.5484492617
47067.1671617766
47067.0828696499
47065.4629614038
47063.3804479833
47060.71797234
47057.5046766565
47053.7764619397
47049.5451396079
47044.822822486
47039.6216457792
47033.9536049042
47027.8301048918
47021.2618477567
47014.2591462599
47006.8318834124
46998.9894841809
46990.7410139926
46982.0951690848
46973.0602719965
46963.6443289581
46953.8549871115
46943.69958209
46933.1851242728
46922.3182940946
46911.1056685428
46899.5535710681
46887.6680195507
46875.454899746
46862.9197220073
46850.0676010688
46836.9037677109
46823.4335184149
46809.6618047137
46795.5933441888
46781.2325348946
46766.5836293348
46751.6509193053
46736.4385486499
46720.9504188394
46705.1902302866
46689.1617221084
46672.8684978622
46656.3139622599
46639.501392733
46622.4339325995
46605.1145781297
46587.5461575663
46569.7312563008
46551.6722162081
46533.3711397949
46514.830197193
46496.0518059637
46477.0382329538
46457.7916952783
46438.3144850578
46418.6086284932
46398.6759271104
46378.5182272445
46358.1372817502
46337.5347168993
46316.7122179245
46295.6710066122
46274.4120698585
46252.9368991645
46231.2471653861
46209.3443319398
46187.2296845969
46164.9044072595
46142.3696847525
46119.626517282
46096.6755383856
46073.5175604912
46050.1534793328
46026.5838280685
46002.8088180669
45978.8289270982
45954.645051095
45930.2576789938
45905.6670325457
45880.8737629963
45855.8785265469
45830.6815171546
45805.2825980728
45779.6815216075
45753.8783964749
45727.873577137
45701.6670743584
45675.2585998341
45648.6479491723
45621.8345354934
45594.8176436037
45567.5974098453
45540.1735293494
45512.5453378857
45484.7125115217
45456.6744468894
45428.4304681632
45399.9796981222
45371.3212375606
45342.4544540896
45313.3780085021
45284.0904092838
45254.5907765918
45224.8780179884
45194.9507898321
45164.8075197451
45134.4465789536
45103.8664967525
45073.0656291996
45042.0422288014
45010.794368693
44979.3198169931
44947.6166524919
44915.6825780663
44883.5148603134
44851.1105132587
44818.4668399779
44785.5814348471
44752.4508668587
44719.0713667753
44685.4392110171
44651.5503411594
44617.4008338313
44582.9870000718
44548.3045200625
44513.3482527765
44478.1131357944
44442.5940930208
44406.7851751566
44370.6799190176
44334.2718263611
44297.5541675063
44260.5187598333
44223.1565780746
44185.4594114662
44147.418492567
44109.0235540332
44070.2638821389
44031.1285469122
43991.6057217751
43951.682269867
43911.343664522
43870.5739185372
43829.3562459119
43787.6733498554
43745.5067945175
43702.8369088397
43659.6409857162
43615.8940228262
43571.5705720252
43526.642246143
43481.0779083793
43434.8450035147
43387.9069798227
43340.2234658096
43291.7510607096
43242.4433768892
43192.2503771866
43141.1171708338
43088.9875727073
43035.8054896819
42981.5138278831
42926.0671696248
42869.4640640299
42811.729491404
42752.804319196
42692.4952714682
42630.5637063776
42566.7726503741
42500.7594375196
42431.8966832176
42359.3461246386
42282.1436717595
42199.0761288008
42108.5676578471
42008.7875419618
41897.7254784773
41773.321408936
41633.8206194347
41478.245242546
41306.9866328109
41122.573741606
40930.74662838
40741.6452237459
40571.4557616937
40444.5057010837
40395.8244026618
40477.4229137897
40767.3212702135
41384.298000528
42518.7634100319
44490.4753500508
47916.0879080013
53729.5654683596
63280.5065249101
79659.0304757554
105706.872315586
145461.342601288
202187.067850257
274836.259803423
358017.047549625
443036.006268801
522177.154207363
591128.546262939
648984.666040562
696777.101938819
736147.362568807
768681.843908784
795707.545384142
818269.512084018
837224.960050106
853267.607732551
866948.916407847
878699.786623145
888859.117014819
897696.722977414
905432.631051934
912241.808586548
918250.299359219
923558.957806047
928265.713152494
932453.107946741
936183.977792079
939509.968178227
942473.380786672
945108.804018458
947444.55810698
949503.772955047
951304.928605082
952862.709657718
954188.768092503
955291.833539704
956178.260806485
956852.510970639
957317.028642636
957572.674217126
957619.106299914
957454.770643378
957077.124467597
956482.754356771
955667.469719906
954626.897067226
953355.270008293
951846.6250142
950094.665901171
948092.748387815
945833.909140808
943311.008152513
940516.689607497
937443.299896443
934083.149903962
930428.374487175
926471.013389301
922202.921766464
917615.895538705
912701.618358199
907451.613784299
901857.269537367
895909.879395741
889600.575075506
882920.2474843
875859.674621279
868409.252155631
860559.348611966
852299.846554024
843620.210913669
834509.467985722
824956.31665899
814948.782349852
804474.321868031
793519.62157373
782070.604559487
770112.139563069
757628.238324911
744600.963900803
731011.309097862
716839.260300686
702063.472194628
686660.842044723
670606.182981628
653872.677823476
636431.004623574
618248.425310087
599286.600528902
579503.97073667
558855.066818146
537287.240559968
514742.137525533
491150.534301582
466433.104843529
440498.035980631
413232.053178196
384499.990112356
354130.331169167
321902.266312852
287501.748325385
250522.283227618
210390.421431683
166303.183635093
)
;

boundaryField
{
    electrode
    {
        type            calculated;
        value           uniform 47065.5484493029;
    }
    ground
    {
        type            calculated;
        value           uniform 141405.448630511;
    }
    otherfaces
    {
        type            empty;
    }
}


// ************************************************************************* //
