/*--------------------------------*- C++ -*----------------------------------*\
| =========                 |                                                 |
| \\      /  F ield         | foam-extend: Open Source CFD                    |
|  \\    /   O peration     | Version:     4.0                                |
|   \\  /    A nd           | Web:         http://www.foam-extend.org         |
|    \\/     M anipulation  |                                                 |
\*---------------------------------------------------------------------------*/
FoamFile
{
    version     2.0;
    format      ascii;
    class       volScalarField;
    location    "1.3e-06";
    object      Arm;
}
// * * * * * * * * * * * * * * * * * * * * * * * * * * * * * * * * * * * * * //

dimensions      [0 0 0 1 0 0 0];

internalField   nonuniform List<scalar> 
300
(
3.57416231483719e+15
3.57604237901952e+15
3.57799229003916e+15
3.5792980328838e+15
3.5801141757284e+15
3.58049262875604e+15
3.58047760758643e+15
3.58010053894506e+15
3.57938707782802e+15
3.57835921295982e+15
3.57703271064906e+15
3.57542165768513e+15
3.57353810642921e+15
3.57139265905553e+15
3.56899477222182e+15
3.56635299597538e+15
3.56347214002542e+15
3.56036079842329e+15
3.55702731569674e+15
3.55347816851913e+15
3.54971955836239e+15
3.54575740694993e+15
3.5415974043003e+15
3.53724502671917e+15
3.53268951773761e+15
3.52794869227162e+15
3.52302623120852e+15
3.51792412584391e+15
3.51265600583308e+15
3.50722677048991e+15
3.50162258114238e+15
3.49585484578534e+15
3.48994170671212e+15
3.48388852444209e+15
3.47770038524994e+15
3.47138209868676e+15
3.46493381861386e+15
3.45836207189091e+15
3.4516739350624e+15
3.44487293717099e+15
3.43796257864788e+15
3.43094814155754e+15
3.42383350461672e+15
3.41662235948098e+15
3.40931820644439e+15
3.4019243130602e+15
3.39444161882758e+15
3.38687158977329e+15
3.37920643396576e+15
3.37144477347732e+15
3.36357393844943e+15
3.35560651300978e+15
3.34753702858624e+15
3.33938326439632e+15
3.33115332115143e+15
3.32286360906106e+15
3.31451740577885e+15
3.30611762746688e+15
3.29766684952183e+15
3.28916547879691e+15
3.28061784199162e+15
3.27202605620355e+15
3.2633867933285e+15
3.25468202280985e+15
3.24591572356235e+15
3.23711356497405e+15
3.22827759748385e+15
3.21940966087508e+15
3.21051134094998e+15
3.20158400093248e+15
3.19262680289643e+15
3.18363257341147e+15
3.17459976931961e+15
3.16553589241775e+15
3.1564273336655e+15
3.14727516921113e+15
3.13808577212e+15
3.12885494744204e+15
3.11960281505837e+15
3.11029859743547e+15
3.10097706480935e+15
3.0916402922467e+15
3.08228517582465e+15
3.07291401823566e+15
3.06351192536966e+15
3.05408667408785e+15
3.04464999887655e+15
3.03520222166351e+15
3.02573137182209e+15
3.01624526655564e+15
3.00673793867936e+15
2.99716407045311e+15
2.98757922519114e+15
2.97798494313321e+15
2.96838125030134e+15
2.95876817325896e+15
2.94914549364268e+15
2.93951279823855e+15
2.92985911052636e+15
2.92018437801374e+15
2.91049488518748e+15
2.90079196492175e+15
2.8910436740191e+15
2.88127942781487e+15
2.87148993433937e+15
2.86166580206795e+15
2.85182216605848e+15
2.84193929046768e+15
2.83202766607492e+15
2.82209274899054e+15
2.81213265601717e+15
2.80214511020338e+15
2.79212235014538e+15
2.78206217404673e+15
2.77196239046067e+15
2.76180532023499e+15
2.7515719914712e+15
2.74128733237108e+15
2.73095218777155e+15
2.72055849573946e+15
2.71007975820189e+15
2.69952909178812e+15
2.68887735348376e+15
2.67813501032858e+15
2.6673135211162e+15
2.6564107083838e+15
2.64539832504424e+15
2.63429394621878e+15
2.62308667383636e+15
2.61177450928689e+15
2.60034176114101e+15
2.58878458382496e+15
2.57709801717561e+15
2.56525595383944e+15
2.55322180520877e+15
2.54101455961246e+15
2.52863816689311e+15
2.51606751728306e+15
2.50328371112087e+15
2.4902959700663e+15
2.47708826080425e+15
2.46364395620938e+15
2.44993088159755e+15
2.43591692413521e+15
2.42157740095462e+15
2.40693226192022e+15
2.39196657680598e+15
2.37666400565235e+15
2.36099401904495e+15
2.34490757591906e+15
2.32841729228954e+15
2.31149842049467e+15
2.29408850600393e+15
2.27618650890747e+15
2.25777419986392e+15
2.23880177775689e+15
2.21922592340759e+15
2.19904620113434e+15
2.17824347895139e+15
2.15677273004971e+15
2.13459832692498e+15
2.11170526101992e+15
2.08805513972478e+15
2.06366065096994e+15
2.03850883045031e+15
2.01254488757624e+15
1.98578974140416e+15
1.95828803540954e+15
1.93006868348059e+15
1.90117362921168e+15
1.87167159203098e+15
1.84159572063573e+15
1.81103836045336e+15
1.7801711305015e+15
1.749188067109e+15
1.71825895560953e+15
1.68756296376023e+15
1.65729905300745e+15
1.62770625793384e+15
1.59893999049277e+15
1.57115453223795e+15
1.54449702435026e+15
1.51904862842115e+15
1.49492437584209e+15
1.47212399003206e+15
1.45055665748396e+15
1.43026217158565e+15
1.41118880627323e+15
1.39324750225527e+15
1.37634893232636e+15
1.36037112013655e+15
1.34526700101646e+15
1.3310210764596e+15
1.31756798358511e+15
1.30593007583205e+15
1.30170609963182e+15
1.30292371365137e+15
1.30243251775391e+15
1.2988562733356e+15
1.29200471077842e+15
1.28136925023537e+15
1.26905389930063e+15
1.2573132079117e+15
1.2468840062952e+15
1.23780078050433e+15
1.22970787581195e+15
1.22231307076457e+15
1.21553492517975e+15
1.20925005778903e+15
1.20327140178657e+15
1.19737974090044e+15
1.1917266118289e+15
1.18626347414004e+15
1.18093433763176e+15
1.17575082417476e+15
1.17068071296472e+15
1.16569174771791e+15
1.16080743417728e+15
1.15600462916477e+15
1.1512762032876e+15
1.14662983126071e+15
1.14205106685373e+15
1.13754031145599e+15
1.13308552372445e+15
1.12870692754364e+15
1.12441170916812e+15
1.12021232487939e+15
1.11609877219133e+15
1.11207590608009e+15
1.1081542226269e+15
1.10432153068348e+15
1.10058181112862e+15
1.09694427549211e+15
1.09340171086826e+15
1.08995083866207e+15
1.08660558113369e+15
1.08334709327353e+15
1.08019166110472e+15
1.07712507246698e+15
1.07415502039531e+15
1.07127907703787e+15
1.06848661076791e+15
1.06578974997052e+15
1.06317155849319e+15
1.06063547333817e+15
1.05819429099631e+15
1.0558316075562e+15
1.05355290652937e+15
1.05135860868819e+15
1.04923875935606e+15
1.047198421403e+15
1.0452315741023e+15
1.04333385114883e+15
1.04150928935923e+15
1.0397503965238e+15
1.03805585724069e+15
1.03642560398256e+15
1.03484582586588e+15
1.03332707816229e+15
1.031863321703e+15
1.03046205813409e+15
1.02911258258175e+15
1.02781978841572e+15
1.02657745835431e+15
1.0253854506992e+15
1.024242127919e+15
1.02314232676596e+15
1.02208565733931e+15
1.02106400979345e+15
1.02008592437829e+15
1.01914597647094e+15
1.01825151998059e+15
1.01739115942906e+15
1.01657231693219e+15
1.015784340429e+15
1.01502716912879e+15
1.01430032106171e+15
1.01360492773107e+15
1.01294398772571e+15
1.01231198247506e+15
1.01170856013604e+15
1.01112714213766e+15
1.01055917736509e+15
1.0100058039917e+15
1.00948030641962e+15
1.00897262396557e+15
1.00848893172669e+15
1.00802888318363e+15
1.00758455880503e+15
1.00713644700887e+15
1.00669281902601e+15
1.00626686064457e+15
1.00585614777711e+15
1.00542347528121e+15
1.00499213205238e+15
1.00455657572408e+15
1.00408093454928e+15
1.00356994710643e+15
1.0029946804753e+15
1.00230780582148e+15
)
;

boundaryField
{
    electrode
    {
        type            zeroGradient;
    }
    ground
    {
        type            zeroGradient;
    }
    otherfaces
    {
        type            empty;
    }
}


// ************************************************************************* //
