/*--------------------------------*- C++ -*----------------------------------*\
| =========                 |                                                 |
| \\      /  F ield         | foam-extend: Open Source CFD                    |
|  \\    /   O peration     | Version:     4.0                                |
|   \\  /    A nd           | Web:         http://www.foam-extend.org         |
|    \\/     M anipulation  |                                                 |
\*---------------------------------------------------------------------------*/
FoamFile
{
    version     2.0;
    format      ascii;
    class       volVectorField;
    location    "1.3e-06";
    object      E;
}
// * * * * * * * * * * * * * * * * * * * * * * * * * * * * * * * * * * * * * //

dimensions      [0 0 0 1 0 0 0];

internalField   nonuniform List<vector> 
300
(
(3.80288402435092 -0 -0)
(8.46467042292518 -0 -0)
(14.4461932249929 -0 -0)
(20.3676551124856 -0 -0)
(26.1733356946009 -0 -0)
(31.9777831214733 -0 -0)
(37.7843981977381 -0 -0)
(43.5879284874088 -0 -0)
(49.3881256682932 -0 -0)
(55.1846706664533 -0 -0)
(60.976918651866 -0 -0)
(66.7642235663297 -0 -0)
(72.5459196590513 -0 -0)
(78.3212927554773 -0 -0)
(84.0895837253561 -0 -0)
(89.849989939884 -0 -0)
(95.6016631359338 -0 -0)
(101.343709424385 -0 -0)
(107.075190201867 -0 -0)
(112.795123349827 -0 -0)
(118.502485103867 -0 -0)
(124.196212493434 -0 -0)
(129.875206376915 -0 -0)
(135.538335026276 -0 -0)
(141.18443824457 -0 -0)
(146.812331849874 -0 -0)
(152.420812754574 -0 -0)
(158.008664381816 -0 -0)
(163.574662373485 -0 -0)
(169.117580722801 -0 -0)
(174.636198194152 -0 -0)
(180.129304784523 -0 -0)
(185.595708597515 -0 -0)
(191.034242770525 -0 -0)
(196.443772403037 -0 -0)
(201.823201680128 -0 -0)
(207.171480962075 -0 -0)
(212.487613800117 -0 -0)
(217.770663943373 -0 -0)
(223.019762332655 -0 -0)
(228.234113774882 -0 -0)
(233.413003712681 -0 -0)
(238.555804689423 -0 -0)
(243.66198265314 -0 -0)
(248.731103139079 -0 -0)
(253.762837243459 -0 -0)
(258.756967290389 -0 -0)
(263.713392469082 -0 -0)
(268.632134124729 -0 -0)
(273.513341034149 -0 -0)
(278.357294285243 -0 -0)
(283.164412230612 -0 -0)
(287.935255151248 -0 -0)
(292.670529798729 -0 -0)
(297.371093982453 -0 -0)
(302.037960908604 -0 -0)
(306.672303597463 -0 -0)
(311.275459283253 -0 -0)
(315.848933807254 -0 -0)
(320.394406018474 -0 -0)
(324.913732448227 -0 -0)
(329.408951815702 -0 -0)
(333.88228995738 -0 -0)
(338.336164905395 -0 -0)
(342.773192001031 -0 -0)
(347.196189502719 -0 -0)
(351.608184413806 -0 -0)
(356.012418520274 -0 -0)
(360.412354985551 -0 -0)
(364.811685206502 -0 -0)
(369.214336033635 -0 -0)
(373.624477606513 -0 -0)
(378.046531500401 -0 -0)
(382.48517936621 -0 -0)
(386.945372243858 -0 -0)
(391.432340057821 -0 -0)
(395.951602105631 -0 -0)
(400.50897764519 -0 -0)
(405.110597305509 -0 -0)
(409.762915144689 -0 -0)
(414.472720815286 -0 -0)
(419.24715304402 -0 -0)
(424.093712968115 -0 -0)
(429.020278498768 -0 -0)
(434.035119203966 -0 -0)
(439.146911614028 -0 -0)
(444.364755246334 -0 -0)
(449.69818918249 -0 -0)
(455.157209372411 -0 -0)
(460.752286024535 -0 -0)
(466.494382289676 -0 -0)
(472.394973126308 -0 -0)
(478.466064485252 -0 -0)
(484.720213946069 -0 -0)
(491.170551089507 -0 -0)
(497.830799055292 -0 -0)
(504.715296714753 -0 -0)
(511.839021391408 -0 -0)
(519.217612492179 -0 -0)
(526.86739617785 -0 -0)
(534.80541051521 -0 -0)
(543.049432093272 -0 -0)
(551.618003803762 -0 -0)
(560.530463323992 -0 -0)
(569.806974075382 -0 -0)
(579.468556959116 -0 -0)
(589.537124426225 -0 -0)
(600.035516865105 -0 -0)
(610.987541031841 -0 -0)
(622.418011789069 -0 -0)
(634.35279695773 -0 -0)
(646.818865730835 -0 -0)
(659.844341824176 -0 -0)
(673.458561067995 -0 -0)
(687.692134787657 -0 -0)
(702.577019799505 -0 -0)
(718.146595182843 -0 -0)
(734.435747897009 -0 -0)
(751.4809673327 -0 -0)
(769.32045090663 -0 -0)
(787.994221736286 -0 -0)
(807.54425975366 -0 -0)
(828.014649050031 -0 -0)
(849.451742379704 -0 -0)
(871.904345768439 -0 -0)
(895.423925960469 -0 -0)
(920.064843450219 -0 -0)
(945.884614213061 -0 -0)
(972.944204814906 -0 -0)
(1001.30836440265 -0 -0)
(1031.04599872818 -0 -0)
(1062.23059260233 -0 -0)
(1094.94068620693 -0 -0)
(1129.26041323352 -0 -0)
(1165.28010983842 -0 -0)
(1203.09700351327 -0 -0)
(1242.81599383466 -0 -0)
(1284.55053831786 -0 -0)
(1328.42365915002 -0 -0)
(1374.56908848144 -0 -0)
(1423.13257367755 -0 -0)
(1474.27336888456 -0 -0)
(1528.1659408142 -0 -0)
(1585.00192475059 -0 -0)
(1644.99237506209 -0 -0)
(1708.37035684928 -0 -0)
(1775.39394176519 -0 -0)
(1846.3496835432 -0 -0)
(1921.55665584662 -0 -0)
(2001.37116622719 -0 -0)
(2086.19227790331 -0 -0)
(2176.46829605104 -0 -0)
(2272.70442575444 -0 -0)
(2375.47184283062 -0 -0)
(2485.41848461661 -0 -0)
(2603.28195229058 -0 -0)
(2729.90496812976 -0 -0)
(2866.25403141477 -0 -0)
(3013.4420148337 -0 -0)
(3172.75552735759 -0 -0)
(3345.68836797488 -0 -0)
(3533.98288434234 -0 -0)
(3739.67976081173 -0 -0)
(3965.17826806081 -0 -0)
(4213.32501325163 -0 -0)
(4487.4854341213 -0 -0)
(4791.70753063849 -0 -0)
(5130.83879056858 -0 -0)
(5510.81555370592 -0 -0)
(5940.3976008179 -0 -0)
(6431.96120797184 -0 -0)
(6999.70190974841 -0 -0)
(7658.96576835885 -0 -0)
(8427.71407561035 -0 -0)
(9328.59536241729 -0 -0)
(10383.974517953 -0 -0)
(11612.7588773244 -0 -0)
(13034.9373518564 -0 -0)
(14666.5790403289 -0 -0)
(16521.6507844832 -0 -0)
(18607.9848091054 -0 -0)
(20923.5802078561 -0 -0)
(23458.9556470478 -0 -0)
(26193.8745676189 -0 -0)
(29105.1145294027 -0 -0)
(32148.6695147662 -0 -0)
(35280.2572325622 -0 -0)
(38478.3996361426 -0 -0)
(41701.7335549293 -0 -0)
(44919.3615070049 -0 -0)
(48123.1849810536 -0 -0)
(51291.9862743647 -0 -0)
(54402.6519663204 -0 -0)
(57457.1921131837 -0 -0)
(60466.4520605863 -0 -0)
(63444.6889030805 -0 -0)
(66411.0164140408 -0 -0)
(69365.8061606304 -0 -0)
(72306.3052779563 -0 -0)
(75229.5232904072 -0 -0)
(78131.8531438171 -0 -0)
(81012.4376749099 -0 -0)
(83868.8008005084 -0 -0)
(86694.9946883978 -0 -0)
(89489.3086433027 -0 -0)
(92255.3226674222 -0 -0)
(94996.1499536849 -0 -0)
(97714.1941222655 -0 -0)
(100410.922204824 -0 -0)
(103088.508800395 -0 -0)
(105749.324763718 -0 -0)
(108393.379435728 -0 -0)
(111017.193968461 -0 -0)
(113619.608874849 -0 -0)
(116202.958181512 -0 -0)
(118769.160603246 -0 -0)
(121319.853406336 -0 -0)
(123856.520250454 -0 -0)
(126380.890767403 -0 -0)
(128894.183552551 -0 -0)
(131397.583666698 -0 -0)
(133891.557251916 -0 -0)
(136376.078753625 -0 -0)
(138851.468015943 -0 -0)
(141315.757648549 -0 -0)
(143765.761844366 -0 -0)
(146201.317219432 -0 -0)
(148623.571426026 -0 -0)
(151034.21481843 -0 -0)
(153434.408536302 -0 -0)
(155825.084665213 -0 -0)
(158206.809812643 -0 -0)
(160579.793946863 -0 -0)
(162944.137073902 -0 -0)
(165299.758910073 -0 -0)
(167646.649106774 -0 -0)
(169984.981922753 -0 -0)
(172315.167801809 -0 -0)
(174637.869165156 -0 -0)
(176953.980171988 -0 -0)
(179264.527715086 -0 -0)
(181570.530226714 -0 -0)
(183870.052464969 -0 -0)
(186160.962490722 -0 -0)
(188443.695191921 -0 -0)
(190718.89835646 -0 -0)
(192986.934177039 -0 -0)
(195247.907355371 -0 -0)
(197501.774021935 -0 -0)
(199748.61069423 -0 -0)
(201988.54075815 -0 -0)
(204221.771005799 -0 -0)
(206448.5374851 -0 -0)
(208669.29379651 -0 -0)
(210884.65948015 -0 -0)
(213095.422298916 -0 -0)
(215302.331233725 -0 -0)
(217506.046134173 -0 -0)
(219707.078611815 -0 -0)
(221905.728300139 -0 -0)
(224102.184780023 -0 -0)
(226296.394581448 -0 -0)
(228488.182866671 -0 -0)
(230677.386024336 -0 -0)
(232863.888198397 -0 -0)
(235047.655354053 -0 -0)
(237228.150304017 -0 -0)
(239403.519930374 -0 -0)
(241573.481786798 -0 -0)
(243738.315767203 -0 -0)
(245898.386806894 -0 -0)
(248053.992848057 -0 -0)
(250205.282504644 -0 -0)
(252352.321742894 -0 -0)
(254495.070408158 -0 -0)
(256633.360699127 -0 -0)
(258766.9738268 -0 -0)
(260895.369289449 -0 -0)
(263018.167981941 -0 -0)
(265134.558955288 -0 -0)
(267244.195100974 -0 -0)
(269346.866796625 -0 -0)
(271442.699336558 -0 -0)
(273531.852510975 -0 -0)
(275614.434726459 -0 -0)
(277690.541347699 -0 -0)
(279760.205085584 -0 -0)
(281823.449949062 -0 -0)
(283880.247091233 -0 -0)
(285930.496318628 -0 -0)
(287974.073536494 -0 -0)
(290010.674908761 -0 -0)
(292040.085248359 -0 -0)
(294061.836871329 -0 -0)
(296075.655306731 -0 -0)
(298080.975059987 -0 -0)
(300077.493068048 -0 -0)
(302064.597957515 -0 -0)
(304041.988508841 -0 -0)
(306007.125817069 -0 -0)
)
;

boundaryField
{
    electrode
    {
        type            calculated;
        value           uniform (2.10640825571318 -0 -0);
    }
    ground
    {
        type            calculated;
        value           uniform (306985.259835272 -0 -0);
    }
    otherfaces
    {
        type            empty;
    }
}


// ************************************************************************* //
