/*--------------------------------*- C++ -*----------------------------------*\
| =========                 |                                                 |
| \\      /  F ield         | foam-extend: Open Source CFD                    |
|  \\    /   O peration     | Version:     4.0                                |
|   \\  /    A nd           | Web:         http://www.foam-extend.org         |
|    \\/     M anipulation  |                                                 |
\*---------------------------------------------------------------------------*/
FoamFile
{
    version     2.0;
    format      ascii;
    class       volScalarField;
    location    "1.3e-06";
    object      electron;
}
// * * * * * * * * * * * * * * * * * * * * * * * * * * * * * * * * * * * * * //

dimensions      [0 0 0 1 0 0 0];

internalField   nonuniform List<scalar> 
300
(
6.0625150558742e+16
6.06226720713625e+16
6.06170787856561e+16
6.06080450800208e+16
6.05955829577311e+16
6.05797069708896e+16
6.05604203682098e+16
6.0537727577616e+16
6.0511634388189e+16
6.04821473626013e+16
6.04492739479679e+16
6.04130225258127e+16
6.03734024211317e+16
6.03304239197646e+16
6.02840982895099e+16
6.02344377998711e+16
6.01814557415654e+16
6.01251664458422e+16
6.00655853028464e+16
6.00027287786817e+16
5.9936614430851e+16
5.98672609217043e+16
5.97946880295531e+16
5.97189166571209e+16
5.96399688370244e+16
5.95578677340312e+16
5.94726376438414e+16
5.93843039881539e+16
5.92928933058637e+16
5.91984332402307e+16
5.91009525218677e+16
5.90004809475055e+16
5.88970493544676e+16
5.87906895908032e+16
5.86814344811289e+16
5.85693177882109e+16
5.84543741703352e+16
5.83366391345872e+16
5.82161489861619e+16
5.80929407738232e+16
5.79670522317039e+16
5.78385217176242e+16
5.77073881481033e+16
5.75736909303015e+16
5.7437469891095e+16
5.7298765203491e+16
5.71576173106405e+16
5.70140668476597e+16
5.6868154561484e+16
5.6719921228967e+16
5.65694075734532e+16
5.64166541800244e+16
5.62617014095937e+16
5.61045893120648e+16
5.59453575386884e+16
5.57840452537798e+16
5.56206910459424e+16
5.54553328388928e+16
5.52880078019937e+16
5.51187522605952e+16
5.49476016062177e+16
5.4774590206645e+16
5.45997513159644e+16
5.44231169845167e+16
5.42447179688031e+16
5.40645836413237e+16
5.38827419002772e+16
5.36992190791218e+16
5.3514039855922e+16
5.33272271623994e+16
5.31388020926545e+16
5.29487838114542e+16
5.2757189461995e+16
5.25640340730956e+16
5.23693304656907e+16
5.21730891585879e+16
5.19753182733848e+16
5.17760234384749e+16
5.15752076921279e+16
5.13728713845154e+16
5.11690120787386e+16
5.0963624450776e+16
5.07567001883509e+16
5.0548227888797e+16
5.03381929558806e+16
5.01265774956943e+16
4.99133602117125e+16
4.96985162991067e+16
4.94820173384407e+16
4.92638311889906e+16
4.90439218818557e+16
4.88222495130356e+16
4.85987701368868e+16
4.83734356601471e+16
4.81461937368815e+16
4.79169876647954e+16
4.76857562832287e+16
4.74524338733244e+16
4.72169500608541e+16
4.69792297221434e+16
4.67391928936783e+16
4.64967546859614e+16
4.62518252021094e+16
4.60043094619108e+16
4.57541073318848e+16
4.55011134619455e+16
4.52452172294023e+16
4.49863026908178e+16
4.47242485424161e+16
4.44589280896558e+16
4.41902092265053e+16
4.3917954425053e+16
4.36420207359278e+16
4.33622598000125e+16
4.30785178719216e+16
4.27906358555211e+16
4.24984493518192e+16
4.22017887194029e+16
4.19004791474954e+16
4.15943407416389e+16
4.12831886218078e+16
4.09668330327441e+16
4.06450794660456e+16
4.03177287934175e+16
3.99845774104238e+16
3.96454173897916e+16
3.93000366431693e+16
3.89482190901475e+16
3.85897448330713e+16
3.82243903360004e+16
3.78519286061002e+16
3.74721293754344e+16
3.70847592810201e+16
3.66895820409445e+16
3.62863586240679e+16
3.58748474107945e+16
3.5454804342359e+16
3.50259830559712e+16
3.45881350031464e+16
3.41410095486312e+16
3.36843540475023e+16
3.32179138980227e+16
3.27414325681829e+16
3.2254651594385e+16
3.17573105508161e+16
3.12491469889058e+16
3.072989634724e+16
3.01992918326915e+16
2.96570642752998e+16
2.91029419610879e+16
2.85366504483831e+16
2.79579123766022e+16
2.7366447279636e+16
2.67619714202896e+16
2.61441976690594e+16
2.55128354574913e+16
2.48675908501041e+16
2.42081667933731e+16
2.35342636179715e+16
2.28455799123549e+16
2.21418139251915e+16
2.14226656886248e+16
2.06878401510456e+16
1.99370520286697e+16
1.91700317088263e+16
1.83865347666619e+16
1.75863532487944e+16
1.67693265973787e+16
1.59353518177701e+16
1.5084312889285e+16
1.4215950425726e+16
1.33299213717105e+16
1.24260978473137e+16
1.15049056251392e+16
1.05675892456857e+16
9.61669413803013e+15
8.65684501695381e+15
7.69524015705411e+15
6.74187176457868e+15
5.80944129164539e+15
4.91281696970489e+15
4.06810771641061e+15
3.29120160725083e+15
2.59600880138571e+15
1.99268342463204e+15
1.48635437122017e+15
1.07652154507674e+15
757014813614277
517143849416216
344058242508654
223791694470515
143111910280593
90654118326652.4
57718495098969.5
36566848712148
22712561509000.9
13733733527796.2
8182953462424.27
5122162290009.4
3506240585028.68
2648712012098.03
2180104140789.86
1916478069133.78
1765609511121.16
1679609841619.62
1632024632656.84
1607599724782.11
1596785316330.07
1593493965659.91
1593748783698.94
1595226591494.25
1596203038603.18
1595774420475.53
1593203080684.26
1588081634967.22
1580197087578.48
1569479223373.59
1555958964048.41
1539740059352.72
1520976603665.13
1499853527249.11
1476543303403.7
1451246443228.87
1424211215086.33
1395688997435.41
1365931434074.97
1335181644733
1303669462571.9
1271608676330.3
1239195919209.81
1206610401530.76
1174013977866.18
1141551545397.88
1109351561758.38
1077526683133.25
1046174491066.15
1015378240244.52
985207676579.586
955719930004.781
926960474931.617
898964183332.342
871756427443.991
845354709320.458
819770188585.003
795007323130.884
771065049380.217
747926836128.444
725573784157.179
703995669971.28
683179735220.815
663111183339.018
643772979238.282
625146285945.703
607210787262.078
589945127667.636
573326965284.007
557335468545.358
541947286020.537
527134701808.284
512874706390.55
499147225432.06
485930774978
473204261764.984
460947234981.33
449140022855.781
437763755095.591
426800425987.73
416232839579.553
406044477124.396
396214816897.961
386719049819.549
377538283133.489
368660032417.579
360073097934.897
351767428492.891
343733827161.492
335963955945.684
328450355416.954
321186466172.508
314166654889.064
307386210288.012
300841006399.149
294526736355.356
288431712668.44
282524853089.888
276788890933.459
271234667419.671
265876218765.431
260728860522.836
255789800286.34
251030204400.092
246455471779.947
242120498345.259
238030817746.506
234211587708.694
230758577996.807
227810108607.234
225648297911.538
224742281217.147
225931166472.512
)
;

boundaryField
{
    electrode
    {
        type            driftDiffusionElectronDensity;
        seec            0.05;
        Edepend         1;
        field_emission  0;
        field_enhancement_factor 55;
        work_function   5;
        value           uniform 6.0625150558742e+16;
    }
    ground
    {
        type            driftDiffusionElectronDensity;
        seec            0.05;
        Edepend         1;
        field_emission  0;
        field_enhancement_factor 55;
        work_function   5;
        value           uniform 228167071436.038;
    }
    otherfaces
    {
        type            empty;
    }
}


// ************************************************************************* //
