/*--------------------------------*- C++ -*----------------------------------*\
| =========                 |                                                 |
| \\      /  F ield         | foam-extend: Open Source CFD                    |
|  \\    /   O peration     | Version:     4.0                                |
|   \\  /    A nd           | Web:         http://www.foam-extend.org         |
|    \\/     M anipulation  |                                                 |
\*---------------------------------------------------------------------------*/
FoamFile
{
    version     2.0;
    format      ascii;
    class       volVectorField;
    location    "1.3e-06";
    object      J_Arp1;
}
// * * * * * * * * * * * * * * * * * * * * * * * * * * * * * * * * * * * * * //

dimensions      [1 -1 -1 0 0 0 0];

internalField   nonuniform List<vector> 
300
(
(1.5892810309995e+16 -0 -0)
(5.13501242231491e+16 -0 -0)
(8.8885131391155e+16 -0 -0)
(1.24291789720351e+17 -0 -0)
(1.59612913217437e+17 -0 -0)
(1.94974304084706e+17 -0 -0)
(2.30295457627941e+17 -0 -0)
(2.65547504854725e+17 -0 -0)
(3.00727819616631e+17 -0 -0)
(3.35827599205944e+17 -0 -0)
(3.70836958328945e+17 -0 -0)
(4.05746266051074e+17 -0 -0)
(4.40545764001274e+17 -0 -0)
(4.75225436707823e+17 -0 -0)
(5.09775070287698e+17 -0 -0)
(5.44184259974756e+17 -0 -0)
(5.78442400448153e+17 -0 -0)
(6.12538695482765e+17 -0 -0)
(6.46462171015548e+17 -0 -0)
(6.80201689708143e+17 -0 -0)
(7.13745970064838e+17 -0 -0)
(7.47083609271282e+17 -0 -0)
(7.80203109046317e+17 -0 -0)
(8.13092905478363e+17 -0 -0)
(8.45741401212242e+17 -0 -0)
(8.78137000034329e+17 -0 -0)
(9.10268144703765e+17 -0 -0)
(9.42123356257274e+17 -0 -0)
(9.73691274603836e+17 -0 -0)
(1.00496070143857e+18 -0 -0)
(1.0359206438073e+18 -0 -0)
(1.06656035737502e+18 -0 -0)
(1.0968693917277e+18 -0 -0)
(1.12683763451882e+18 -0 -0)
(1.15645535520634e+18 -0 -0)
(1.18571324889149e+18 -0 -0)
(1.21460247872073e+18 -0 -0)
(1.24311471707703e+18 -0 -0)
(1.27124218541982e+18 -0 -0)
(1.29897769299479e+18 -0 -0)
(1.32631467243748e+18 -0 -0)
(1.35324721484183e+18 -0 -0)
(1.37977010171208e+18 -0 -0)
(1.40587883485419e+18 -0 -0)
(1.43156966431787e+18 -0 -0)
(1.45683961386478e+18 -0 -0)
(1.48168650340223e+18 -0 -0)
(1.50610897039528e+18 -0 -0)
(1.53010648718037e+18 -0 -0)
(1.55367937849719e+18 -0 -0)
(1.5768288337444e+18 -0 -0)
(1.59955692030458e+18 -0 -0)
(1.62186659270082e+18 -0 -0)
(1.64376170078393e+18 -0 -0)
(1.66524699675891e+18 -0 -0)
(1.68632813968942e+18 -0 -0)
(1.70701169964832e+18 -0 -0)
(1.72730516034222e+18 -0 -0)
(1.74721692109354e+18 -0 -0)
(1.76675629723319e+18 -0 -0)
(1.78593352180384e+18 -0 -0)
(1.80475974427078e+18 -0 -0)
(1.82324703131474e+18 -0 -0)
(1.84140836718428e+18 -0 -0)
(1.85925765244998e+18 -0 -0)
(1.87680970549353e+18 -0 -0)
(1.8940802629764e+18 -0 -0)
(1.91108598046291e+18 -0 -0)
(1.92784443528358e+18 -0 -0)
(1.94437412858198e+18 -0 -0)
(1.96069448827467e+18 -0 -0)
(1.97682587419585e+18 -0 -0)
(1.9927895821642e+18 -0 -0)
(2.008607849847e+18 -0 -0)
(2.02430386454925e+18 -0 -0)
(2.03990176783482e+18 -0 -0)
(2.05542666740762e+18 -0 -0)
(2.0709046415458e+18 -0 -0)
(2.08636275132622e+18 -0 -0)
(2.10182904892534e+18 -0 -0)
(2.11733258580651e+18 -0 -0)
(2.13290342533189e+18 -0 -0)
(2.14857264886838e+18 -0 -0)
(2.16437236663183e+18 -0 -0)
(2.18033572538314e+18 -0 -0)
(2.19649691530448e+18 -0 -0)
(2.21289117619511e+18 -0 -0)
(2.22955480122267e+18 -0 -0)
(2.2465251415797e+18 -0 -0)
(2.26384060240996e+18 -0 -0)
(2.28154064530274e+18 -0 -0)
(2.29966578008177e+18 -0 -0)
(2.31825755583718e+18 -0 -0)
(2.33735855121982e+18 -0 -0)
(2.35701235515254e+18 -0 -0)
(2.37726354764437e+18 -0 -0)
(2.39815767385062e+18 -0 -0)
(2.41974121285281e+18 -0 -0)
(2.44206154069753e+18 -0 -0)
(2.46516689021794e+18 -0 -0)
(2.48910629896523e+18 -0 -0)
(2.51392955726984e+18 -0 -0)
(2.53968714540519e+18 -0 -0)
(2.56643016249773e+18 -0 -0)
(2.59421025475552e+18 -0 -0)
(2.62307952769591e+18 -0 -0)
(2.65309045777311e+18 -0 -0)
(2.68429579403922e+18 -0 -0)
(2.71674845079295e+18 -0 -0)
(2.75050139644391e+18 -0 -0)
(2.78560753281659e+18 -0 -0)
(2.82211956723682e+18 -0 -0)
(2.86008988155755e+18 -0 -0)
(2.89957039074225e+18 -0 -0)
(2.94061239881661e+18 -0 -0)
(2.98326645087722e+18 -0 -0)
(3.02758217685135e+18 -0 -0)
(3.07360813872378e+18 -0 -0)
(3.12139166761584e+18 -0 -0)
(3.17097870832821e+18 -0 -0)
(3.22241365636135e+18 -0 -0)
(3.27573920103373e+18 -0 -0)
(3.33099616961487e+18 -0 -0)
(3.38822337602888e+18 -0 -0)
(3.44745747276349e+18 -0 -0)
(3.50873281407401e+18 -0 -0)
(3.57208132315048e+18 -0 -0)
(3.63753237124583e+18 -0 -0)
(3.7051126683408e+18 -0 -0)
(3.77484616606958e+18 -0 -0)
(3.84675397152464e+18 -0 -0)
(3.92085428313419e+18 -0 -0)
(3.9971623327839e+18 -0 -0)
(4.0756903519315e+18 -0 -0)
(4.15644754976759e+18 -0 -0)
(4.23944011009031e+18 -0 -0)
(4.32467120144785e+18 -0 -0)
(4.41214100440757e+18 -0 -0)
(4.50184675051683e+18 -0 -0)
(4.59378277242321e+18 -0 -0)
(4.68794055731543e+18 -0 -0)
(4.78430881414531e+18 -0 -0)
(4.88287352588446e+18 -0 -0)
(4.9836180009599e+18 -0 -0)
(5.08652291730674e+18 -0 -0)
(5.19156632543207e+18 -0 -0)
(5.29872363124314e+18 -0 -0)
(5.4079675446365e+18 -0 -0)
(5.51926793606765e+18 -0 -0)
(5.63259166554751e+18 -0 -0)
(5.74790229575259e+18 -0 -0)
(5.86515969722863e+18 -0 -0)
(5.98431955390034e+18 -0 -0)
(6.10533268233998e+18 -0 -0)
(6.22814418216369e+18 -0 -0)
(6.35269247478943e+18 -0 -0)
(6.47890781933146e+18 -0 -0)
(6.60671096681198e+18 -0 -0)
(6.73601131346081e+18 -0 -0)
(6.86670422334557e+18 -0 -0)
(6.99866852418483e+18 -0 -0)
(7.13176451064991e+18 -0 -0)
(7.2658338906655e+18 -0 -0)
(7.40065026153083e+18 -0 -0)
(7.53609690779008e+18 -0 -0)
(7.6717089812718e+18 -0 -0)
(7.80748311826557e+18 -0 -0)
(7.94284448496923e+18 -0 -0)
(8.07625363079041e+18 -0 -0)
(8.21398732662439e+18 -0 -0)
(8.33857929593429e+18 -0 -0)
(8.46349925570079e+18 -0 -0)
(8.58884434916969e+18 -0 -0)
(8.70476738981298e+18 -0 -0)
(8.82210730178892e+18 -0 -0)
(8.92452671570271e+18 -0 -0)
(9.03815188572883e+18 -0 -0)
(9.11443969162863e+18 -0 -0)
(9.22062357597168e+18 -0 -0)
(9.29745798633888e+18 -0 -0)
(9.38756046658782e+18 -0 -0)
(9.46441705954031e+18 -0 -0)
(9.53084192127023e+18 -0 -0)
(9.61620510722345e+18 -0 -0)
(9.66470405637323e+18 -0 -0)
(9.719791865165e+18 -0 -0)
(9.75407642772547e+18 -0 -0)
(9.80393078005303e+18 -0 -0)
(9.84068854492734e+18 -0 -0)
(9.897362835217e+18 -0 -0)
(9.92273853565767e+18 -0 -0)
(9.96441091367213e+18 -0 -0)
(9.99497305477422e+18 -0 -0)
(1.00249921520648e+19 -0 -0)
(1.0083001325898e+19 -0 -0)
(1.02220195114575e+19 -0 -0)
(1.04389800851288e+19 -0 -0)
(1.06450356459031e+19 -0 -0)
(1.08186766024648e+19 -0 -0)
(1.09546046237363e+19 -0 -0)
(1.10669353515454e+19 -0 -0)
(1.1156856693657e+19 -0 -0)
(1.12405657083331e+19 -0 -0)
(1.13199977864627e+19 -0 -0)
(1.13988899584812e+19 -0 -0)
(1.14740382581566e+19 -0 -0)
(1.15482456280925e+19 -0 -0)
(1.16153102259391e+19 -0 -0)
(1.16755012077916e+19 -0 -0)
(1.17364069128067e+19 -0 -0)
(1.17939140615447e+19 -0 -0)
(1.18511743838735e+19 -0 -0)
(1.19129288338424e+19 -0 -0)
(1.19780144821034e+19 -0 -0)
(1.20425955330758e+19 -0 -0)
(1.21083640366182e+19 -0 -0)
(1.21722379137261e+19 -0 -0)
(1.22369573976667e+19 -0 -0)
(1.23031609172611e+19 -0 -0)
(1.23661541659328e+19 -0 -0)
(1.24310873237293e+19 -0 -0)
(1.24862073135852e+19 -0 -0)
(1.25387562188789e+19 -0 -0)
(1.25852437152701e+19 -0 -0)
(1.26330819049231e+19 -0 -0)
(1.26790562712501e+19 -0 -0)
(1.27308890036476e+19 -0 -0)
(1.27783953040508e+19 -0 -0)
(1.28384009566391e+19 -0 -0)
(1.28890615389553e+19 -0 -0)
(1.29505141523133e+19 -0 -0)
(1.29989303354637e+19 -0 -0)
(1.30547199140754e+19 -0 -0)
(1.3096294854499e+19 -0 -0)
(1.31435444956872e+19 -0 -0)
(1.31773297930094e+19 -0 -0)
(1.32191440158894e+19 -0 -0)
(1.3250230774388e+19 -0 -0)
(1.32925976411356e+19 -0 -0)
(1.33270754931065e+19 -0 -0)
(1.33748202603291e+19 -0 -0)
(1.34148737783394e+19 -0 -0)
(1.34652749642285e+19 -0 -0)
(1.35079131676286e+19 -0 -0)
(1.35600762923697e+19 -0 -0)
(1.36049524874269e+19 -0 -0)
(1.36563094177355e+19 -0 -0)
(1.36973389538846e+19 -0 -0)
(1.37432350431779e+19 -0 -0)
(1.37802424974621e+19 -0 -0)
(1.38228732045214e+19 -0 -0)
(1.38576694515574e+19 -0 -0)
(1.38986546761416e+19 -0 -0)
(1.39345921284845e+19 -0 -0)
(1.39790615258929e+19 -0 -0)
(1.40207695100071e+19 -0 -0)
(1.4070818061462e+19 -0 -0)
(1.41171352475643e+19 -0 -0)
(1.41701294532466e+19 -0 -0)
(1.42167373607478e+19 -0 -0)
(1.4268746158131e+19 -0 -0)
(1.43111969969695e+19 -0 -0)
(1.43575253670468e+19 -0 -0)
(1.43943679445191e+19 -0 -0)
(1.44357612830086e+19 -0 -0)
(1.44687164950937e+19 -0 -0)
(1.45115094880866e+19 -0 -0)
(1.45427699758274e+19 -0 -0)
(1.4593081650652e+19 -0 -0)
(1.46248577098413e+19 -0 -0)
(1.4677203384556e+19 -0 -0)
(1.47100158532985e+19 -0 -0)
(1.47616488436453e+19 -0 -0)
(1.4792482908263e+19 -0 -0)
(1.48408894957069e+19 -0 -0)
(1.48665664319283e+19 -0 -0)
(1.49092463510847e+19 -0 -0)
(1.49244868907096e+19 -0 -0)
(1.49590804758966e+19 -0 -0)
(1.4959860191415e+19 -0 -0)
(1.49866768148148e+19 -0 -0)
(1.49813114267695e+19 -0 -0)
(1.5007071037142e+19 -0 -0)
(1.50009471495269e+19 -0 -0)
(1.50255206807807e+19 -0 -0)
(1.50178471854989e+19 -0 -0)
(1.50402441915684e+19 -0 -0)
(1.50300862832159e+19 -0 -0)
(1.50494810711282e+19 -0 -0)
(1.50350950116995e+19 -0 -0)
(1.50501226716528e+19 -0 -0)
(1.50285290513177e+19 -0 -0)
(1.50378415622537e+19 -0 -0)
(1.50065682515245e+19 -0 -0)
(1.50092575014361e+19 -0 -0)
(1.49667750142323e+19 -0 -0)
(1.49623811790184e+19 -0 -0)
(1.49079266473695e+19 -0 -0)
(1.48962839690452e+19 -0 -0)
(1.48007743210532e+19 -0 -0)
)
;

boundaryField
{
    electrode
    {
        type            calculated;
        value           uniform (66048832536.6047 -0 -0);
    }
    ground
    {
        type            calculated;
        value           uniform (1.48193090939045e+19 -0 -0);
    }
    otherfaces
    {
        type            empty;
    }
}


// ************************************************************************* //
