/*--------------------------------*- C++ -*----------------------------------*\
| =========                 |                                                 |
| \\      /  F ield         | foam-extend: Open Source CFD                    |
|  \\    /   O peration     | Version:     4.0                                |
|   \\  /    A nd           | Web:         http://www.foam-extend.org         |
|    \\/     M anipulation  |                                                 |
\*---------------------------------------------------------------------------*/
FoamFile
{
    version     2.0;
    format      ascii;
    class       volVectorField;
    location    "1.3e-06";
    object      J_electron;
}
// * * * * * * * * * * * * * * * * * * * * * * * * * * * * * * * * * * * * * //

dimensions      [1 -1 -1 0 0 0 0];

internalField   nonuniform List<vector> 
300
(
(-1.32954430869049e+19 0 0)
(-1.31793850599963e+19 0 0)
(-1.51453178575939e+19 0 0)
(-1.51960051867351e+19 0 0)
(-1.50889351429662e+19 0 0)
(-1.50539825977218e+19 0 0)
(-1.50242414309223e+19 0 0)
(-1.49905349919777e+19 0 0)
(-1.49572950757092e+19 0 0)
(-1.49244301055304e+19 0 0)
(-1.48916744721334e+19 0 0)
(-1.48590604107349e+19 0 0)
(-1.48266271954454e+19 0 0)
(-1.47943793335043e+19 0 0)
(-1.4762324925231e+19 0 0)
(-1.47304759465095e+19 0 0)
(-1.46988412317554e+19 0 0)
(-1.46674285132494e+19 0 0)
(-1.46362449553721e+19 0 0)
(-1.46052966441778e+19 0 0)
(-1.45745888449266e+19 0 0)
(-1.45441258608599e+19 0 0)
(-1.45139111394818e+19 0 0)
(-1.44839473015715e+19 0 0)
(-1.44542363638805e+19 0 0)
(-1.44247793816106e+19 0 0)
(-1.43955768636625e+19 0 0)
(-1.436662880456e+19 0 0)
(-1.43379344956149e+19 0 0)
(-1.43094926630282e+19 0 0)
(-1.42813018929779e+19 0 0)
(-1.42533600202562e+19 0 0)
(-1.42256646642281e+19 0 0)
(-1.41982132752197e+19 0 0)
(-1.41710028305245e+19 0 0)
(-1.41440301831598e+19 0 0)
(-1.41172920388283e+19 0 0)
(-1.40907848758471e+19 0 0)
(-1.40645049429545e+19 0 0)
(-1.4038448691683e+19 0 0)
(-1.40126120543317e+19 0 0)
(-1.39869911250908e+19 0 0)
(-1.39615818423853e+19 0 0)
(-1.39363799461622e+19 0 0)
(-1.39113810492745e+19 0 0)
(-1.38865807825088e+19 0 0)
(-1.38619743580741e+19 0 0)
(-1.38375570157126e+19 0 0)
(-1.3813323436215e+19 0 0)
(-1.37892684227391e+19 0 0)
(-1.37653860780047e+19 0 0)
(-1.3741670337066e+19 0 0)
(-1.37181147322453e+19 0 0)
(-1.36947121125188e+19 0 0)
(-1.36714550615566e+19 0 0)
(-1.36483354006339e+19 0 0)
(-1.36253443120109e+19 0 0)
(-1.36024723199067e+19 0 0)
(-1.35797092946385e+19 0 0)
(-1.35570439898952e+19 0 0)
(-1.35344647419443e+19 0 0)
(-1.35119585590926e+19 0 0)
(-1.3489511570074e+19 0 0)
(-1.34671091523642e+19 0 0)
(-1.34447352880025e+19 0 0)
(-1.34223729736894e+19 0 0)
(-1.34000042048802e+19 0 0)
(-1.33776095379396e+19 0 0)
(-1.33551684971151e+19 0 0)
(-1.33326594216912e+19 0 0)
(-1.33100591632703e+19 0 0)
(-1.32873434975057e+19 0 0)
(-1.32644869147439e+19 0 0)
(-1.3241462349371e+19 0 0)
(-1.32182419461065e+19 0 0)
(-1.31947958868566e+19 0 0)
(-1.31710936998515e+19 0 0)
(-1.3147103306936e+19 0 0)
(-1.31227912141212e+19 0 0)
(-1.30981233500089e+19 0 0)
(-1.30730634543198e+19 0 0)
(-1.3047575099195e+19 0 0)
(-1.3021620061476e+19 0 0)
(-1.29951591844293e+19 0 0)
(-1.29681524581702e+19 0 0)
(-1.29405587108156e+19 0 0)
(-1.29123359144296e+19 0 0)
(-1.28834409469276e+19 0 0)
(-1.28538305941948e+19 0 0)
(-1.28234599670371e+19 0 0)
(-1.27922840773486e+19 0 0)
(-1.27602577459558e+19 0 0)
(-1.2727334185437e+19 0 0)
(-1.26934674105193e+19 0 0)
(-1.26586103788067e+19 0 0)
(-1.2622715980685e+19 0 0)
(-1.25857371351889e+19 0 0)
(-1.25476265620763e+19 0 0)
(-1.25083367534321e+19 0 0)
(-1.24678208503787e+19 0 0)
(-1.24260316469285e+19 0 0)
(-1.23829220930785e+19 0 0)
(-1.23384461861873e+19 0 0)
(-1.22925569915769e+19 0 0)
(-1.22452090153882e+19 0 0)
(-1.21963565446773e+19 0 0)
(-1.2145954106695e+19 0 0)
(-1.20939570386368e+19 0 0)
(-1.20403204016796e+19 0 0)
(-1.19849996441307e+19 0 0)
(-1.19279504883319e+19 0 0)
(-1.18691280733901e+19 0 0)
(-1.18084878413243e+19 0 0)
(-1.17459845367737e+19 0 0)
(-1.16815719559085e+19 0 0)
(-1.16152034889973e+19 0 0)
(-1.15468304562903e+19 0 0)
(-1.14764030275732e+19 0 0)
(-1.14038687470893e+19 0 0)
(-1.13291724592015e+19 0 0)
(-1.12522560539549e+19 0 0)
(-1.11730567304792e+19 0 0)
(-1.10915075132422e+19 0 0)
(-1.10075357258307e+19 0 0)
(-1.09210620929235e+19 0 0)
(-1.08319998801551e+19 0 0)
(-1.0740254134602e+19 0 0)
(-1.06457196282805e+19 0 0)
(-1.0548280392228e+19 0 0)
(-1.04478080663604e+19 0 0)
(-1.03441596679969e+19 0 0)
(-1.02371768999205e+19 0 0)
(-1.01266837222709e+19 0 0)
(-1.00124839633654e+19 0 0)
(-9.89435978855639e+18 0 0)
(-9.77206868954527e+18 0 0)
(-9.6453409155496e+18 0 0)
(-9.51387613111727e+18 0 0)
(-9.37734043587628e+18 0 0)
(-9.23536255314874e+18 0 0)
(-9.08752842219271e+18 0 0)
(-8.93337795187704e+18 0 0)
(-8.77239896406439e+18 0 0)
(-8.6040190009905e+18 0 0)
(-8.42760129290437e+18 0 0)
(-8.24243444100838e+18 0 0)
(-8.04772081449619e+18 0 0)
(-7.8425702902572e+18 0 0)
(-7.62598254816998e+18 0 0)
(-7.39683226184738e+18 0 0)
(-7.15385559315907e+18 0 0)
(-6.89562413049053e+18 0 0)
(-6.62052571476237e+18 0 0)
(-6.3267384240185e+18 0 0)
(-6.01219297984486e+18 0 0)
(-5.67456401639919e+18 0 0)
(-5.31120795398177e+18 0 0)
(-4.91913461152979e+18 0 0)
(-4.49504617500246e+18 0 0)
(-4.03523714742852e+18 0 0)
(-3.53552323967975e+18 0 0)
(-2.99142344210383e+18 0 0)
(-2.39997045991958e+18 0 0)
(-1.74882718610883e+18 0 0)
(-1.04539242314177e+18 0 0)
(-2.60916568655921e+17 0 0)
(6.1974840837197e+17 0 0)
(1.6386934075409e+18 0 0)
(3.31932471169909e+18 0 0)
(5.65224613095879e+18 0 0)
(7.67682444458459e+18 0 0)
(9.02412062620752e+18 0 0)
(9.9337334492737e+18 0 0)
(1.0768607456109e+19 0 0)
(1.00630652545642e+19 0 0)
(7.42881521962477e+18 0 0)
(4.67357033421603e+18 0 0)
(1.40661772311855e+18 0 0)
(-8.13021195063525e+17 0 0)
(-1.53141073512969e+18 0 0)
(2.65790795116708e+16 0 0)
(5.0475375535451e+18 0 0)
(1.31299573555748e+19 0 0)
(2.40004978712804e+19 0 0)
(3.49000502713799e+19 0 0)
(4.46995767102768e+19 0 0)
(5.23286815705132e+19 0 0)
(5.44410654237928e+19 0 0)
(4.87894483381893e+19 0 0)
(4.39966663142801e+19 0 0)
(3.24907736407546e+19 0 0)
(2.32424286262845e+19 0 0)
(1.18750291254349e+19 0 0)
(1.13314049072274e+19 0 0)
(-7.82517424406577e+17 0 0)
(-1.4982475051649e+17 0 0)
(-3.36375131890824e+18 0 0)
(-2.77940194590249e+18 0 0)
(-3.09392809886498e+18 0 0)
(-3.42382655299338e+18 0 0)
(-3.66693303846532e+18 0 0)
(-3.77364697141026e+18 0 0)
(-3.80568918312015e+18 0 0)
(-3.79316540591801e+18 0 0)
(-3.75688232197912e+18 0 0)
(-3.71114067969757e+18 0 0)
(-3.66046844857049e+18 0 0)
(-3.60240281699174e+18 0 0)
(-3.53937779623132e+18 0 0)
(-3.47415508629152e+18 0 0)
(-3.4103543695742e+18 0 0)
(-3.34487523932889e+18 0 0)
(-3.27953973028951e+18 0 0)
(-3.21320895439728e+18 0 0)
(-3.14668891716805e+18 0 0)
(-3.08008662342368e+18 0 0)
(-3.01361090016426e+18 0 0)
(-2.94741527373871e+18 0 0)
(-2.88164444291612e+18 0 0)
(-2.81641925552724e+18 0 0)
(-2.75161730971687e+18 0 0)
(-2.68835560693908e+18 0 0)
(-2.62555504729871e+18 0 0)
(-2.56384327165621e+18 0 0)
(-2.50322825010719e+18 0 0)
(-2.44379823090195e+18 0 0)
(-2.38561354681172e+18 0 0)
(-2.32872264113653e+18 0 0)
(-2.27316319769006e+18 0 0)
(-2.21895774018091e+18 0 0)
(-2.16612191415738e+18 0 0)
(-2.1146628151207e+18 0 0)
(-2.06457993069498e+18 0 0)
(-2.01586776070156e+18 0 0)
(-1.96851433401041e+18 0 0)
(-1.92250358889656e+18 0 0)
(-1.87781555788366e+18 0 0)
(-1.83442696734412e+18 0 0)
(-1.79231169231582e+18 0 0)
(-1.75144174380902e+18 0 0)
(-1.71178657926138e+18 0 0)
(-1.67332042667429e+18 0 0)
(-1.63600400321871e+18 0 0)
(-1.59978947613356e+18 0 0)
(-1.56467365488282e+18 0 0)
(-1.5304670505222e+18 0 0)
(-1.49754255804523e+18 0 0)
(-1.46545622623287e+18 0 0)
(-1.43432558856224e+18 0 0)
(-1.4041019878121e+18 0 0)
(-1.37476226757368e+18 0 0)
(-1.34627473950683e+18 0 0)
(-1.31860896367071e+18 0 0)
(-1.2917374295227e+18 0 0)
(-1.26562560218094e+18 0 0)
(-1.24028036093499e+18 0 0)
(-1.21556643324652e+18 0 0)
(-1.1915875671211e+18 0 0)
(-1.16832007413708e+18 0 0)
(-1.14561581121726e+18 0 0)
(-1.12354273315663e+18 0 0)
(-1.10206112735099e+18 0 0)
(-1.08114987791676e+18 0 0)
(-1.0607877805401e+18 0 0)
(-1.04095538712906e+18 0 0)
(-1.02163492645433e+18 0 0)
(-1.00280673356568e+18 0 0)
(-9.84454934259745e+17 0 0)
(-9.66510567615997e+17 0 0)
(-9.49059108068183e+17 0 0)
(-9.32105186397736e+17 0 0)
(-9.1550824177399e+17 0 0)
(-8.99317435070054e+17 0 0)
(-8.83514825614246e+17 0 0)
(-8.68092187038156e+17 0 0)
(-8.53037591016469e+17 0 0)
(-8.38340392049133e+17 0 0)
(-8.23989237837863e+17 0 0)
(-8.09974112511448e+17 0 0)
(-7.96283882982488e+17 0 0)
(-7.82905968780004e+17 0 0)
(-7.69828866110957e+17 0 0)
(-7.56982892207671e+17 0 0)
(-7.44392811849987e+17 0 0)
(-7.32469419247179e+17 0 0)
(-7.20604088016037e+17 0 0)
(-7.09025067204731e+17 0 0)
(-6.97708267898061e+17 0 0)
(-6.86519545673938e+17 0 0)
(-6.75683604359122e+17 0 0)
(-6.65538344990436e+17 0 0)
(-6.55391458039626e+17 0 0)
(-6.45088537220434e+17 0 0)
(-6.35999321059243e+17 0 0)
(-6.26651191197336e+17 0 0)
(-6.17988060952826e+17 0 0)
(-6.09815066910253e+17 0 0)
(-6.02950254733182e+17 0 0)
(-5.96688458665046e+17 0 0)
(-5.86238345676462e+17 0 0)
)
;

boundaryField
{
    electrode
    {
        type            calculated;
        value           uniform (-1.52417741666351e+19 0 0);
    }
    ground
    {
        type            calculated;
        value           uniform (-5.83648972990589e+17 0 0);
    }
    otherfaces
    {
        type            empty;
    }
}


// ************************************************************************* //
