/*--------------------------------*- C++ -*----------------------------------*\
| =========                 |                                                 |
| \\      /  F ield         | foam-extend: Open Source CFD                    |
|  \\    /   O peration     | Version:     4.0                                |
|   \\  /    A nd           | Web:         http://www.foam-extend.org         |
|    \\/     M anipulation  |                                                 |
\*---------------------------------------------------------------------------*/
FoamFile
{
    version     2.0;
    format      ascii;
    class       volScalarField;
    location    "1.3e-06";
    object      Phi;
}
// * * * * * * * * * * * * * * * * * * * * * * * * * * * * * * * * * * * * * //

dimensions      [0 0 0 1 0 0 0];

internalField   nonuniform List<scalar> 
300
(
699.999964893196
699.999781581203
699.999400581834
699.998818501654
699.99804273816
699.997073612608
699.995910885952
699.994554652728
699.993005024053
699.991262111017
699.989326046008
699.987196983107
699.984875097771
699.982360588463
699.979653678254
699.976754616214
699.973663678924
699.970381172005
699.966907431629
699.963242825992
699.959387756739
699.955342660319
699.95110800924
699.946684313227
699.942072120238
699.937272017344
699.932284631448
699.927110629827
699.921750720489
699.916205652336
699.910476215107
699.904563239123
699.898467594788
699.892190191883
699.885731978604
699.879093940389
699.872277098492
699.865282508325
699.858111257572
699.850764464062
699.843243273417
699.835548856477
699.827682406502
699.819645136164
699.811438274326
699.803063062621
699.794520751843
699.785812598135
699.776939859012
699.767903789194
699.758705636276
699.749346636241
699.739828008794
699.730150952564
699.720316640141
699.710326212965
699.70018077608
699.689881392726
699.679429078795
699.668824797139
699.658069451726
699.647163881642
699.636108854939
699.624905062312
699.613553110612
699.602053516178
699.590406697978
699.578612970551
699.566672536744
699.554585480218
699.54235175773
699.52997119115
699.517443459223
699.50476808905
699.491944447265
699.4789717309
699.465848957928
699.452574957426
699.439148359418
699.425567584272
699.411830831742
699.397936069551
699.383881021539
699.369663155353
699.355279669639
699.34072748074
699.326003208865
699.311103163723
699.296023329586
699.280759349765
699.265306510518
699.249659724279
699.23381351231
699.217761986646
699.20149883138
699.185017283241
699.168310111443
699.151369596793
699.134187510017
699.116755089293
699.099063016938
699.081101395259
699.062859721465
699.044326861672
699.02549102391
699.006339730067
698.986859786779
698.967037255106
698.946857418988
698.92630475237
698.905362884869
698.884014565907
698.862241627153
698.840024943119
698.817344389749
698.794178800799
698.770505921762
698.74630236112
698.721543538569
698.696203629965
698.670255508509
698.643670681849
698.616419224525
698.588469705246
698.559789108366
698.530342748862
698.500094179969
698.469005092632
698.437035205688
698.404142145644
698.370281314728
698.335405745729
698.299465941887
698.262409699982
698.224181914339
698.184724359326
698.143975447438
698.101869959737
698.058338744883
698.01330838246
697.966700805651
697.918432877548
697.868415914392
697.816555148161
697.762749119409
697.706888989823
697.648857762286
697.588529393706
697.525767783382
697.460425616649
697.392343038967
697.321346131456
697.247245152564
697.169832503072
697.088880363042
697.004137937431
696.915328232889
696.822144272889
696.724244630795
696.621248138567
696.512727595638
696.398202247368
696.277128736681
696.148890263314
696.012783518811
695.868001929098
695.713617823202
695.548554760389
695.371561903831
695.181167056808
694.97553539711
694.752369642943
694.508888603127
694.241771925053
693.947040998086
693.619865567558
693.254776030223
692.845681642403
692.385780206766
691.867909706381
691.284336821134
690.627377385774
689.889431473943
689.063447009304
688.143173169435
687.123106040677
685.999928535118
684.77108889184
683.434701892708
681.990973321511
680.440077792241
678.782760989441
677.020612040617
675.155917525019
673.190132566405
671.124820720981
668.960486639533
666.69741962671
664.336099562158
661.876999274847
659.320798009464
656.668209065259
653.919968831137
651.076955678558
648.140302518577
645.111001769005
641.989947674082
638.777925105426
635.475668065931
632.083863625105
628.60310081257
625.033908640856
621.376875516855
617.632762376293
613.802234925199
609.885898497526
605.884290884983
601.797908270436
597.627189534952
593.37251555261
589.034243964782
584.612676641496
580.108140147988
575.520938057921
570.851375613592
566.099887548018
561.266991490635
556.353133066722
551.358753395566
546.28418541216
541.129792826479
535.895846434479
530.582672172303
525.190526838021
519.71972970071
514.170542910682
508.543286426925
502.838210782499
497.055608573471
491.195686171488
485.258676562006
479.24471765715
473.153974546891
466.986714159485
460.743243714176
454.42380114669
448.028650490413
441.558005534886
435.012123333388
428.391220600092
421.695549287106
414.925317882881
408.080764553386
401.162082050542
394.169478300285
387.103104751863
379.963116813692
372.749616002948
365.46271373808
358.102477428827
350.66899851807
343.162331776828
335.582572212641
327.929786252382
320.204079811018
312.405527039156
304.534236120747
296.590317018889
288.574001458723
280.485418233102
272.324780407576
264.092192445975
255.787847551038
247.411840278997
238.964359434844
230.445502251788
221.855468721571
213.194370663335
204.462444102275
195.659826131206
186.786806838589
177.843546457806
168.830349052147
159.747366502036
150.594892218081
141.373070853607
132.082189461568
122.722390514567
113.293959464965
103.797040708484
94.231926377054
84.5987691393862
74.8978813831383
65.1294301228278
55.2937589250505
45.3910531023807
35.4216939210514
25.3858868978434
15.284054057215
5.11642099725291
)
;

boundaryField
{
    electrode
    {
        type            fixedValue;
        value           uniform 700;
    }
    ground
    {
        type            fixedValue;
        value           uniform 0;
    }
    otherfaces
    {
        type            empty;
    }
}


// ************************************************************************* //
