/*--------------------------------*- C++ -*----------------------------------*\
| =========                 |                                                 |
| \\      /  F ield         | foam-extend: Open Source CFD                    |
|  \\    /   O peration     | Version:     4.0                                |
|   \\  /    A nd           | Web:         http://www.foam-extend.org         |
|    \\/     M anipulation  |                                                 |
\*---------------------------------------------------------------------------*/
FoamFile
{
    version     2.0;
    format      ascii;
    class       volScalarField;
    location    "1.3e-06";
    object      Sy_electron;
}
// * * * * * * * * * * * * * * * * * * * * * * * * * * * * * * * * * * * * * //

dimensions      [1 -3 -1 0 0 0 0];

internalField   nonuniform List<scalar> 
300
(
3.27194635350299e-15
3.27538921139068e-15
3.27896181779794e-15
3.28135522462933e-15
3.28285164112045e-15
3.2835456553318e-15
3.28351809777003e-15
3.28282660541976e-15
3.28151842302369e-15
3.27963422104508e-15
3.27720338239951e-15
3.27425231339325e-15
3.2708037787029e-15
3.26687796125015e-15
3.26249301159976e-15
3.2576654781776e-15
3.25240512978265e-15
3.24672869705824e-15
3.2406524849554e-15
3.23418941952426e-15
3.22735195228322e-15
3.22015204770646e-15
3.21260126680033e-15
3.20471079620159e-15
3.1964624592346e-15
3.18788986972532e-15
3.17900101988457e-15
3.16980087174138e-15
3.16031535603379e-15
3.15055461789556e-15
3.14049518132669e-15
3.13015897994835e-15
3.11957989356365e-15
3.10876880903133e-15
3.09773608914955e-15
3.08649156891316e-15
3.0750367850787e-15
3.06338458734321e-15
3.05154873361768e-15
3.0395366470749e-15
3.0273556713239e-15
3.01501625012391e-15
3.00252630751021e-15
2.98989339946041e-15
2.97712470793157e-15
2.96422697059111e-15
2.95120284064608e-15
2.93805588250625e-15
2.92477362568095e-15
2.91135481129817e-15
2.8977787624882e-15
2.88406842872005e-15
2.87021561621469e-15
2.85625200080027e-15
2.84219246020125e-15
2.82806588768217e-15
2.81387860923107e-15
2.79963628773777e-15
2.7853439649024e-15
2.77100298858607e-15
2.75662129017529e-15
2.7422030256314e-15
2.7277432150127e-15
2.71321243076318e-15
2.69861816444274e-15
2.68400380608461e-15
2.66937323129754e-15
2.65472993302734e-15
2.6400769547643e-15
2.62541694755265e-15
2.61074893935793e-15
2.59606164378518e-15
2.58135306348911e-15
2.56663589729922e-15
2.55188857590167e-15
2.53711345952218e-15
2.52232140506353e-15
2.50750621544404e-15
2.49270062704963e-15
2.47785591088194e-15
2.46302803771339e-15
2.44822054147383e-15
2.43342874043181e-15
2.41865652253616e-15
2.40388074775034e-15
2.38911402828244e-15
2.37437499899299e-15
2.35966432585639e-15
2.34496361793859e-15
2.33028528778857e-15
2.31562036773763e-15
2.30089959741611e-15
2.2862089799874e-15
2.27155102616622e-15
2.25692591428437e-15
2.24233382308467e-15
2.22777456091089e-15
2.21324764714366e-15
2.19873675727605e-15
2.18424212365101e-15
2.16977342719264e-15
2.155332867411e-15
2.14087334217652e-15
2.12643894119327e-15
2.11201623659931e-15
2.09759184170957e-15
2.08318838638608e-15
2.06877743621037e-15
2.05437480365823e-15
2.03998881222226e-15
2.0256171038597e-15
2.01125679468026e-15
1.99689720493269e-15
1.98253573813414e-15
1.96816985987824e-15
1.95377517437418e-15
1.93932583587681e-15
1.92485804323706e-15
1.9103737877267e-15
1.89586263523753e-15
1.88128873664935e-15
1.86667159577354e-15
1.85197223937538e-15
1.83720667773329e-15
1.82239205924395e-15
1.80752673500449e-15
1.79257379072433e-15
1.77755879190658e-15
1.76246866359177e-15
1.74730250141975e-15
1.73204122644445e-15
1.71668185502357e-15
1.70122004652784e-15
1.68562381806947e-15
1.66984814638086e-15
1.65392129361808e-15
1.637851619027e-15
1.62160997593158e-15
1.60517588005162e-15
1.5885652773586e-15
1.57176189132318e-15
1.55474920071157e-15
1.5374917142402e-15
1.51995502430492e-15
1.50211499056871e-15
1.48400337692718e-15
1.46560876420124e-15
1.4469186278529e-15
1.42790396496443e-15
1.40851471525075e-15
1.38877621382485e-15
1.36866938813341e-15
1.34813198775729e-15
1.32717593123572e-15
1.3057936681488e-15
1.28394252227941e-15
1.26158957585592e-15
1.23875248373113e-15
1.21542861926153e-15
1.1915881493777e-15
1.1672141543978e-15
1.14231437089743e-15
1.11687301266157e-15
1.09093099815089e-15
1.06450268851191e-15
1.03756086958905e-15
1.01015921965262e-15
9.82375051205978e-16
9.54268555103191e-16
9.25911807108033e-16
8.97400718954753e-16
8.68793974236365e-16
8.40203625888217e-16
8.11808689922073e-16
7.83797508149293e-16
7.56324573291369e-16
7.2954186441672e-16
7.03607145472471e-16
6.78699669961339e-16
6.54916685320351e-16
6.32346701677052e-16
6.11065858001429e-16
5.9109374758507e-16
5.72475869990087e-16
5.55173315816687e-16
5.39103854551053e-16
5.24399440992572e-16
5.11256117028406e-16
5.03177853484248e-16
5.53242347837778e-16
1.95375390450389e-15
4.13401719814604e-14
1.48944739598812e-12
2.60236068506841e-10
1.8969411427484e-09
4.20644297020444e-09
5.11756496906299e-09
4.55640434374583e-09
3.6708932926603e-09
2.95070714333123e-09
2.46668340576398e-09
2.16690647563031e-09
1.99262773391284e-09
1.88222360717206e-09
1.82992254051047e-09
1.80192902866317e-09
1.79222028290139e-09
1.79523454400198e-09
1.80486414069006e-09
1.81662793722644e-09
1.82417277637757e-09
1.83059486267779e-09
1.83494599663161e-09
1.83644170352279e-09
1.83466124590578e-09
1.82939398552371e-09
1.82058556006712e-09
1.80829230413857e-09
1.79265049158736e-09
1.77385162204488e-09
1.75212119222548e-09
1.72766542904256e-09
1.70072270146175e-09
1.67056155832846e-09
1.63826505880487e-09
1.60444987915802e-09
1.56940245100555e-09
1.53339364648692e-09
1.49667557552822e-09
1.45948031032998e-09
1.42201958477567e-09
1.38448487337448e-09
1.34704785489682e-09
1.30986101128054e-09
1.27305836299989e-09
1.23675630896839e-09
1.20105448546937e-09
1.16603670970263e-09
1.13177200941775e-09
1.09831573416077e-09
1.06571077631296e-09
1.03398884667119e-09
1.00317239155186e-09
9.73276414079025e-10
9.44307978588146e-10
9.1626778457734e-10
8.89137756832103e-10
8.62897006941923e-10
8.37535390103498e-10
8.13039520865969e-10
7.89393565724964e-10
7.6657897412095e-10
7.44575003966723e-10
7.23359096697013e-10
7.02907404235144e-10
6.83194804456492e-10
6.64198013856366e-10
6.45889961876591e-10
6.28240150501638e-10
6.11221953857987e-10
5.94812617514627e-10
5.78987663507626e-10
5.63723042378831e-10
5.48995409588301e-10
5.34782289094859e-10
5.21062098741357e-10
5.07814228646166e-10
4.95018977358321e-10
4.82657463792171e-10
4.70705963341578e-10
4.59135488483203e-10
4.47924179146834e-10
4.37057804598811e-10
4.26523522271727e-10
4.16309799839644e-10
4.06406055803336e-10
3.9680266548135e-10
3.87490979707709e-10
3.78463343333612e-10
3.6971311865386e-10
3.61234673958038e-10
3.53022977032061e-10
3.44841985520443e-10
3.36521907920193e-10
3.28403858226861e-10
3.20467062988627e-10
3.12723504134424e-10
3.05187635179754e-10
2.97875046136711e-10
2.90203161486786e-10
2.82064115258345e-10
2.74099917632816e-10
2.66365294560594e-10
2.57578744944585e-10
2.4821617803658e-10
2.38686256236946e-10
2.26785960548394e-10
2.13242510224186e-10
1.96149149126524e-10
1.71866943293991e-10
)
;

boundaryField
{
    electrode
    {
        type            zeroGradient;
    }
    ground
    {
        type            zeroGradient;
    }
    otherfaces
    {
        type            empty;
    }
}


// ************************************************************************* //
