/*--------------------------------*- C++ -*----------------------------------*\
| =========                 |                                                 |
| \\      /  F ield         | foam-extend: Open Source CFD                    |
|  \\    /   O peration     | Version:     4.0                                |
|   \\  /    A nd           | Web:         http://www.foam-extend.org         |
|    \\/     M anipulation  |                                                 |
\*---------------------------------------------------------------------------*/
FoamFile
{
    version     2.0;
    format      ascii;
    class       volScalarField;
    location    "1.3e-06";
    object      Te;
}
// * * * * * * * * * * * * * * * * * * * * * * * * * * * * * * * * * * * * * //

dimensions      [0 0 0 1 0 0 0];

internalField   nonuniform List<scalar> 
300
(
24356.0432080618
24356.1621722241
24356.2434846312
24356.2826483453
24356.3350530145
24356.4029664728
24356.4842998458
24356.5790005188
24356.6871448351
24356.8086949029
24356.9436242677
24357.091914605
24357.2535475442
24357.4285053991
24357.6167719932
24357.8183324488
24358.0331731556
24358.2612818744
24358.5026477715
24358.757261451
24359.0251149961
24359.3062020062
24359.6005176349
24359.9080586252
24360.2288233377
24360.562811782
24360.9100256475
24361.2704683212
24361.6441449116
24362.0310622716
24362.4312290073
24362.844655493
24363.2713538864
24363.7113381291
24364.1646239539
24364.6312288905
24365.1111722633
24365.6044751904
24366.1111605861
24366.6312531527
24367.1647793777
24367.7117675341
24368.2722476708
24368.846251612
24369.4338129582
24370.034967079
24370.6497511168
24371.2782039902
24371.9203664002
24372.5762808368
24373.2459915904
24373.9295447707
24374.6269883198
24375.3383720413
24376.0637476263
24376.8031686843
24377.5566907855
24378.3243715029
24379.106270458
24379.9024493806
24380.7129721656
24381.5379049387
24382.3773161382
24383.2312765848
24384.099859569
24384.9831409501
24385.8811992477
24386.7941157508
24387.7219746337
24388.6648630691
24389.6228713594
24390.5960930724
24391.5846251758
24392.5885681935
24393.6080263534
24394.6431077557
24395.6939245439
24396.7605930739
24397.8432341161
24398.9419730313
24400.0569399847
24401.1882701561
24402.3361039461
24403.5005872208
24404.6818715374
24405.8801143901
24407.0954794696
24408.3281369336
24409.5782636699
24410.8460435916
24412.1316679507
24413.4353356215
24414.7572534504
24416.0976365941
24417.4567088613
24418.8347031036
24420.2318615967
24421.6484364484
24423.0846900443
24424.5408954917
24426.0173370998
24427.5143109077
24429.0321251994
24430.5711010946
24432.1315731656
24433.7138900694
24435.3184152716
24436.9455277809
24438.5956229549
24440.26911338
24441.9664297912
24443.688022096
24445.4343604688
24447.2059365289
24449.0032646499
24450.8268833548
24452.6773568518
24454.5552767127
24456.4612636965
24458.3959697661
24460.3600802688
24462.3543163597
24464.3794376552
24466.436245131
24468.5255843426
24470.6483489701
24472.8054847103
24474.9979936007
24477.2269388056
24479.4934498881
24481.7987286985
24484.1440559016
24486.5307982146
24488.9604165161
24491.4344748797
24493.9546506675
24496.52274586
24499.1406997864
24501.8106034491
24504.5347156721
24507.3154814297
24510.1555526225
24513.0578116747
24516.0253986041
24519.061741971
24522.1705944013
24525.3560737963
24528.6227109161
24531.9755047184
24535.4199872519
24538.9622995236
24542.6092809841
24546.3685755109
24550.2487570605
24554.2594800846
24558.4116587398
24562.7176827106
24567.1916792086
24571.8498248813
24576.7107250213
24581.7958853882
24587.1302795035
24592.7428912373
24598.6681244715
24604.9460414515
24611.6249772278
24618.7655404539
24626.4447477631
24634.8114020319
24644.1010957474
24654.4922665272
24666.0428411762
24678.8075135198
24692.9399600227
24708.4753264022
24725.1336150516
24742.7570050528
24761.3934753578
24781.3193116923
24803.4488244537
24829.5463161677
24863.1873272879
24910.8501583835
24983.5339908382
25098.820196463
25284.2092222974
25585.3585346239
26074.1783653361
26853.2325167633
28099.9257098144
30119.48735035
33384.84018838
38743.1237408857
47990.9936157234
63205.9452137646
85166.4117488621
117751.258406319
158965.248369896
210916.732542858
269773.005575149
330540.232145503
388753.474350339
441859.146475365
488874.497298202
529901.32306584
565505.271990681
596373.93132109
623266.056169517
646913.100898296
667910.077588398
686698.800485117
703646.177302916
719076.149500436
733249.485645059
746385.341648916
758659.047364177
770214.961726854
781171.845442723
791627.981559156
801664.998807069
811352.528992602
820739.295898524
829866.958620029
838778.276487452
847503.636405476
856067.59512194
864489.096758443
872782.346583228
880957.397827587
889020.694343264
896975.522614483
904822.347755687
912559.131421931
920181.590920694
927683.43185082
935056.565629999
942291.290823995
949376.463024694
956299.651254391
963047.275467871
969604.741004652
975956.470850903
982086.106324221
987976.983531187
993611.631934532
998974.390749011
1004043.99651813
1008798.79505898
1013223.10099602
1017298.32274168
1021005.83720232
1024326.69162125
1027241.8320437
1029732.0762919
1031778.26917638
1033360.50357535
1034460.63207217
1035046.80674881
1035121.80717669
1034657.15604783
1033632.26821898
1032026.70744618
1029820.36107693
1026992.9073125
1023523.77221942
1019392.01925616
1014576.34494846
1009055.00950072
1002807.5430376
995812.021042597
988042.403624316
979475.114142174
970087.287690351
959852.692310433
948743.886552855
936731.851880286
923785.954943933
909873.759069152
894960.809899721
879010.394280347
861983.386497246
843837.927373106
824531.618519154
804022.988185654
782254.724917069
759167.139446696
734700.236184273
708774.703868655
681308.913019994
652216.346616846
621385.73404154
588686.673956785
553982.654788494
517084.813491447
477763.212583548
435732.707878841
390592.786933984
341784.780631056
288493.89715466
229651.370913888
)
;

boundaryField
{
    electrode
    {
        type            electronTemperature;
        seec            0.05;
        Tse             1000;
        Edepend         1;
        TFN             1000;
        field_emission  0;
        field_enhancement_factor 55;
        work_function   5;
        value           uniform 24356.0432080618;
    }
    ground
    {
        type            electronTemperature;
        seec            0.05;
        Tse             1000;
        Edepend         1;
        TFN             1000;
        field_emission  0;
        field_enhancement_factor 55;
        work_function   5;
        value           uniform 196255.77751607;
    }
    otherfaces
    {
        type            empty;
    }
}


// ************************************************************************* //
