/*--------------------------------*- C++ -*----------------------------------*\
| =========                 |                                                 |
| \\      /  F ield         | foam-extend: Open Source CFD                    |
|  \\    /   O peration     | Version:     4.0                                |
|   \\  /    A nd           | Web:         http://www.foam-extend.org         |
|    \\/     M anipulation  |                                                 |
\*---------------------------------------------------------------------------*/
FoamFile
{
    version     2.0;
    format      ascii;
    class       volScalarField;
    location    "1.3e-06";
    object      TeMean;
}
// * * * * * * * * * * * * * * * * * * * * * * * * * * * * * * * * * * * * * //

dimensions      [0 0 0 1 0 0 0];

internalField   nonuniform List<scalar> 
300
(
31651.9995521796
31652.4368745023
31652.4086275605
31651.9650088337
31651.3959938317
31650.6685367194
31649.7919275704
31648.77417615
31647.6173403496
31646.3243912132
31644.898070764
31643.3410349168
31641.6558371668
31639.8448646171
31637.9104123259
31635.85467483
31633.679740649
31631.3876153324
31628.9802191076
31626.4593858939
31623.8268768483
31621.084369878
31618.2334713067
31615.2757121235
31612.2125458621
31609.0454025524
31605.7756526274
31602.404593713
31598.9334927496
31595.3635285757
31591.6957853614
31587.9313730452
31584.0714150321
31580.1169514635
31576.0689664863
31571.9283682116
31567.6960278996
31563.3728232344
31558.9595951964
31554.4571256861
31549.8661473448
31545.1873992463
31540.4215862083
31535.5693643836
31530.6313580706
31525.6081579776
31520.5003184804
31515.3083524976
31510.0327150643
31504.6738026193
31499.23195393
31493.7075220649
31488.100914746
31482.4125034247
31476.6426463355
31470.7917173399
31464.8600275954
31458.8478346833
31452.7554054735
31446.5829841325
31440.3307837153
31433.9990301716
31427.5878424988
31421.0972825854
31414.527528386
31407.878799973
31401.1512670248
31394.345057829
31387.4602768679
31380.4970276704
31373.4553716597
31366.3352838846
31359.1367797692
31351.8598956177
31344.5045820515
31337.0707149817
31329.5582314406
31321.967165269
31314.2974567997
31306.5489810613
31298.7217151198
31290.8156362722
31282.8306126785
31274.7664384958
31266.6228798461
31258.3997844793
31250.0970579138
31241.7145249492
31233.251938304
31224.7090722684
31216.0856118625
31207.3812069675
31198.595707129
31189.7288578133
31180.780317346
31171.7498226783
31162.6370431928
31153.4416292333
31144.163181971
31134.8012925736
31125.3556121723
31115.8256247965
31106.2107712658
31096.5106323804
31086.7247329285
31076.8525312874
31066.8934292135
31056.8468049453
31046.7120652343
31036.4885680721
31026.1756351387
31015.7725366991
31005.27845811
30994.6926415813
30984.0142295551
30973.2422437941
30962.3756280798
30951.4133737313
30940.3545164304
30929.1978283445
30917.9419754662
30906.5856073632
30895.1272602572
30883.5654645619
30871.8987696033
30860.1255340383
30848.2438782382
30836.2518930056
30824.147610559
30811.9288006713
30799.5930509064
30787.1378685778
30774.5606339686
30761.8583117686
30749.0275782009
30736.0652039019
30722.9677328737
30709.7312486441
30696.3516098746
30682.8245016647
30669.1452656267
30655.3087897048
30641.3094875428
30627.1412679615
30612.7976712987
30598.2719347881
30583.5568260826
30568.6446102478
30553.5266337975
30538.1934599743
30522.6352972131
30506.8414236997
30490.8001931043
30474.4993480529
30457.9254210916
30441.0637653454
30423.8987379044
30406.4137004631
30388.5909053696
30370.4112269248
30351.8550227918
30332.9023520451
30313.5331756933
30293.7309603811
30273.487460142
30252.7991198699
30231.6533411958
30210.0294366806
30187.9037171984
30165.2616992881
30142.0995878346
30118.300201305
30093.5916082986
30067.6672879826
30040.171056639
30010.4915636143
29977.7413847568
29941.0239499965
29899.3796516494
29851.875526584
29797.9557779374
29737.7753511389
29672.893686598
29607.0397082314
29547.4537971118
29506.4451895774
29503.7911777642
29570.9625865989
29756.4068950216
30136.2855184484
30833.7944443717
32049.498712219
34126.3063102169
37696.0622345754
43854.2166998886
54076.5205234497
70140.9608489729
94128.8381068115
128448.144512662
174143.20633642
231283.863871886
297089.113509549
367350.513781821
436655.293380695
500636.498227955
556969.766800198
605253.254566644
646151.580423254
680780.819372827
710293.13144105
735632.75594141
757559.337202855
776699.369211312
793565.892999996
808569.743920877
822040.416990555
834242.600674067
845390.490243723
855657.132442462
865177.572065714
874059.869479323
882398.447553583
890273.379791444
897748.421664531
904875.057933313
911695.167828337
918242.616591279
924544.500760546
930622.177540513
936492.045746975
942166.261235106
947653.339866983
952958.650361964
958084.454772872
963030.462032601
967794.42246094
972372.085208204
976757.488758817
980943.134023809
984920.193575318
988678.626622381
992207.336944261
995494.414272668
998527.160423022
1001292.30157695
1003775.88235155
1005963.10833866
1007839.37897061
1009390.20680619
1010600.53188986
1011455.10920896
1011938.58122175
1012035.50089978
1011730.3821338
1011007.6910978
1009851.79486782
1008247.35602863
1006176.82286357
1003630.01570549
1000589.34896852
997039.014430844
992963.502620342
988347.398101919
983175.18775897
977431.29103216
971099.948270656
964165.20157813
956610.892148735
948420.629881873
939578.402691956
930066.282936568
919865.377472157
908957.975112848
897324.762147777
884945.024352001
871796.797989566
857856.851845368
843100.476019632
827501.466669378
811031.79238705
793661.287247096
775357.570793728
756086.319897742
735810.622165567
714485.60611217
692063.141070502
668491.076271335
643706.73524146
617642.735306234
590221.935337777
561351.285889618
530922.695980197
498810.890681526
464855.487478514
428858.738712474
390568.276022726
349623.945271956
305546.175700937
257642.807568437
204966.901423949
)
;

boundaryField
{
    electrode
    {
        type            calculated;
        value           uniform 31651.999552189;
    }
    ground
    {
        type            calculated;
        value           uniform 175202.499809333;
    }
    otherfaces
    {
        type            empty;
    }
}


// ************************************************************************* //
