/*--------------------------------*- C++ -*----------------------------------*\
| =========                 |                                                 |
| \\      /  F ield         | foam-extend: Open Source CFD                    |
|  \\    /   O peration     | Version:     4.0                                |
|   \\  /    A nd           | Web:         http://www.foam-extend.org         |
|    \\/     M anipulation  |                                                 |
\*---------------------------------------------------------------------------*/
FoamFile
{
    version     2.0;
    format      ascii;
    class       volVectorField;
    location    "2e-10";
    object      E;
}
// * * * * * * * * * * * * * * * * * * * * * * * * * * * * * * * * * * * * * //

dimensions      [0 0 0 1 0 0 0];

internalField   nonuniform List<vector> 
250
(
(-0 4531.05384680065 -0)
(-0 3020.75034190913 -0)
(-0 3020.75033228771 -0)
(-0 3020.7503364436 -0)
(-0 3020.75033152608 -0)
(-0 3020.75032932633 -0)
(-0 3020.75033486665 -0)
(-0 3020.7503356242 -0)
(-0 3020.750334141 -0)
(-0 3020.75034589434 -0)
(-0 3020.7503542195 -0)
(-0 3020.75035431642 -0)
(-0 3020.75036321847 -0)
(-0 3020.7503691557 -0)
(-0 3020.75036691142 -0)
(-0 3020.75036487621 -0)
(-0 3020.75036788163 -0)
(-0 3020.75037414649 -0)
(-0 3020.75037795235 -0)
(-0 3020.75037882599 -0)
(-0 3020.75038752545 -0)
(-0 3020.75040172076 -0)
(-0 3020.75040841624 -0)
(-0 3020.75040930125 -0)
(-0 3020.7504094012 -0)
(-0 3020.75041264037 -0)
(-0 3020.75041837763 -0)
(-0 3020.75041603533 -0)
(-0 3020.75041167864 -0)
(-0 3020.75040916856 -0)
(-0 3020.75040974855 -0)
(-0 3020.75041281498 -0)
(-0 3020.75041532106 -0)
(-0 3020.75041882183 -0)
(-0 3020.75042246949 -0)
(-0 3020.75042282414 -0)
(-0 3020.75042575691 -0)
(-0 3020.750432743 -0)
(-0 3020.75043438219 -0)
(-0 3020.75043521179 -0)
(-0 3020.75043270943 -0)
(-0 3020.75042991294 -0)
(-0 3020.75043563882 -0)
(-0 3020.75044445767 -0)
(-0 3020.7504509389 -0)
(-0 3020.75044851437 -0)
(-0 3020.75043839023 -0)
(-0 3020.75043675028 -0)
(-0 3020.75043436152 -0)
(-0 3020.75042682659 -0)
(-0 3020.75042250064 -0)
(-0 3020.75042591166 -0)
(-0 3020.75043460112 -0)
(-0 3020.75043296131 -0)
(-0 3020.75043061363 -0)
(-0 3020.75043955042 -0)
(-0 3020.75044029061 -0)
(-0 3020.75043560621 -0)
(-0 3020.75042844338 -0)
(-0 3020.75042945503 -0)
(-0 3020.75043677144 -0)
(-0 3020.75044043647 -0)
(-0 3020.75045185397 -0)
(-0 3020.7504605302 -0)
(-0 3020.7504642408 -0)
(-0 3020.75046176636 -0)
(-0 3020.75045820182 -0)
(-0 3020.75045738457 -0)
(-0 3020.75045677935 -0)
(-0 3020.75045218292 -0)
(-0 3020.75045208972 -0)
(-0 3020.75045704081 -0)
(-0 3020.75046334027 -0)
(-0 3020.75047120669 -0)
(-0 3020.75046817149 -0)
(-0 3020.7504633584 -0)
(-0 3020.75045942847 -0)
(-0 3020.75045639133 -0)
(-0 3020.75045497996 -0)
(-0 3020.75045568051 -0)
(-0 3020.7504621279 -0)
(-0 3020.75046825683 -0)
(-0 3020.75047122751 -0)
(-0 3020.7504695697 -0)
(-0 3020.75046731591 -0)
(-0 3020.75046701571 -0)
(-0 3020.75047464831 -0)
(-0 3020.75048635782 -0)
(-0 3020.75048932498 -0)
(-0 3020.75048867427 -0)
(-0 3020.75049357917 -0)
(-0 3020.75049848587 -0)
(-0 3020.75049828059 -0)
(-0 3020.75049801513 -0)
(-0 3020.75049666752 -0)
(-0 3020.75049403825 -0)
(-0 3020.75049127099 -0)
(-0 3020.75049010205 -0)
(-0 3020.75049167528 -0)
(-0 3020.75049533672 -0)
(-0 3020.75049859871 -0)
(-0 3020.75049651477 -0)
(-0 3020.75049700135 -0)
(-0 3020.75050101732 -0)
(-0 3020.75050700748 -0)
(-0 3020.75051191218 -0)
(-0 3020.75051597088 -0)
(-0 3020.75052165334 -0)
(-0 3020.75052294401 -0)
(-0 3020.75052459775 -0)
(-0 3020.75052740458 -0)
(-0 3020.750531544 -0)
(-0 3020.75053399887 -0)
(-0 3020.75053098959 -0)
(-0 3020.75053089398 -0)
(-0 3020.75052902489 -0)
(-0 3020.75052466434 -0)
(-0 3020.75052190577 -0)
(-0 3020.75052298179 -0)
(-0 3020.75052735289 -0)
(-0 3020.7505305946 -0)
(-0 3020.75053644746 -0)
(-0 3020.75053528645 -0)
(-0 3020.75053372011 -0)
(-0 3020.75053776151 -0)
(-0 3020.75054171357 -0)
(-0 3020.75054143225 -0)
(-0 3020.75054014013 -0)
(-0 3020.75054480488 -0)
(-0 3020.75054939484 -0)
(-0 3020.75054937712 -0)
(-0 3020.75054955737 -0)
(-0 3020.7505538086 -0)
(-0 3020.75055976017 -0)
(-0 3020.75056568292 -0)
(-0 3020.75056521777 -0)
(-0 3020.75056496644 -0)
(-0 3020.75056925889 -0)
(-0 3020.75057311038 -0)
(-0 3020.75057547915 -0)
(-0 3020.75057396658 -0)
(-0 3020.7505768036 -0)
(-0 3020.75058234054 -0)
(-0 3020.75058530137 -0)
(-0 3020.75058586275 -0)
(-0 3020.75058872803 -0)
(-0 3020.75059566436 -0)
(-0 3020.75059875753 -0)
(-0 3020.75059630149 -0)
(-0 3020.75059100905 -0)
(-0 3020.75058832947 -0)
(-0 3020.75058944789 -0)
(-0 3020.75059105324 -0)
(-0 3020.7505902344 -0)
(-0 3020.75058911825 -0)
(-0 3020.75058827495 -0)
(-0 3020.75058600943 -0)
(-0 3020.75058405764 -0)
(-0 3020.75058195218 -0)
(-0 3020.75058496353 -0)
(-0 3020.75058716673 -0)
(-0 3020.75058393866 -0)
(-0 3020.75058527421 -0)
(-0 3020.75058873954 -0)
(-0 3020.75059078702 -0)
(-0 3020.75059282202 -0)
(-0 3020.7505953219 -0)
(-0 3020.75059637159 -0)
(-0 3020.75059775381 -0)
(-0 3020.75059822048 -0)
(-0 3020.75060290019 -0)
(-0 3020.75060931483 -0)
(-0 3020.75061138678 -0)
(-0 3020.75061190336 -0)
(-0 3020.75061249459 -0)
(-0 3020.75061380181 -0)
(-0 3020.75061558431 -0)
(-0 3020.75061709454 -0)
(-0 3020.75061856506 -0)
(-0 3020.75062158902 -0)
(-0 3020.75062402569 -0)
(-0 3020.7506259371 -0)
(-0 3020.75063058999 -0)
(-0 3020.75063471845 -0)
(-0 3020.75063688242 -0)
(-0 3020.75063809679 -0)
(-0 3020.75063934508 -0)
(-0 3020.75064360216 -0)
(-0 3020.75064682189 -0)
(-0 3020.75064616235 -0)
(-0 3020.75064470996 -0)
(-0 3020.75064420269 -0)
(-0 3020.75064520193 -0)
(-0 3020.7506490286 -0)
(-0 3020.75065180476 -0)
(-0 3020.75065242135 -0)
(-0 3020.75065314121 -0)
(-0 3020.75065353715 -0)
(-0 3020.75065474993 -0)
(-0 3020.75065708913 -0)
(-0 3020.75065888846 -0)
(-0 3020.75066290973 -0)
(-0 3020.7506664897 -0)
(-0 3020.75067015652 -0)
(-0 3020.75067389889 -0)
(-0 3020.75067614751 -0)
(-0 3020.7506778169 -0)
(-0 3020.75067955495 -0)
(-0 3020.75068305578 -0)
(-0 3020.75068695386 -0)
(-0 3020.75069020172 -0)
(-0 3020.75069199654 -0)
(-0 3020.75069420483 -0)
(-0 3020.7506971771 -0)
(-0 3020.75070014423 -0)
(-0 3020.7507024787 -0)
(-0 3020.75070528085 -0)
(-0 3020.75070822278 -0)
(-0 3020.75071090592 -0)
(-0 3020.75071446517 -0)
(-0 3020.75071804993 -0)
(-0 3020.75072055708 -0)
(-0 3020.75072402962 -0)
(-0 3020.75072845707 -0)
(-0 3020.75073222378 -0)
(-0 3020.75073550069 -0)
(-0 3020.75073916757 -0)
(-0 3020.75074119955 -0)
(-0 3020.75074218823 -0)
(-0 3020.75074501326 -0)
(-0 3020.75074882067 -0)
(-0 3020.75075288754 -0)
(-0 3020.75075604068 -0)
(-0 3020.75075863693 -0)
(-0 3020.75076156539 -0)
(-0 3020.75076419565 -0)
(-0 3020.7507671654 -0)
(-0 3020.75077053499 -0)
(-0 3020.75077354975 -0)
(-0 3020.75077615517 -0)
(-0 3020.75077862913 -0)
(-0 3020.75078180164 -0)
(-0 3020.75078509189 -0)
(-0 3020.75078857331 -0)
(-0 3020.75079230649 -0)
(-0 3020.75079569472 -0)
(-0 3020.75079869863 -0)
(-0 3020.75079877311 -0)
(-0 3020.75079895274 -0)
(-0 4531.27484593324 -0)
)
;

boundaryField
{
    dielectric_2
    {
        type            calculated;
        value           nonuniform 0();
    }
    dielectric_1
    {
        type            calculated;
        value           nonuniform 0();
    }
    otherfaces
    {
        type            empty;
    }
    procBoundary2to0
    {
        type            processor;
        value           uniform (-0 4530.97995267275 -0);
    }
    procBoundary2to3
    {
        type            processor;
        value           uniform (-0 4531.42437906128 -0);
    }
}


// ************************************************************************* //
