/*--------------------------------*- C++ -*----------------------------------*\
| =========                 |                                                 |
| \\      /  F ield         | foam-extend: Open Source CFD                    |
|  \\    /   O peration     | Version:     4.0                                |
|   \\  /    A nd           | Web:         http://www.foam-extend.org         |
|    \\/     M anipulation  |                                                 |
\*---------------------------------------------------------------------------*/
FoamFile
{
    version     2.0;
    format      ascii;
    class       volScalarField;
    location    "7.6e-06";
    object      Ar;
}
// * * * * * * * * * * * * * * * * * * * * * * * * * * * * * * * * * * * * * //

dimensions      [0 0 0 1 0 0 0];

internalField   nonuniform List<scalar> 
300
(
3.2188021905437e+22
3.21880218626491e+22
3.21880218918362e+22
3.21880219035675e+22
3.21880219235431e+22
3.21880219512288e+22
3.21880219849451e+22
3.21880220253505e+22
3.2188022072322e+22
3.21880221258261e+22
3.21880221858684e+22
3.21880222524372e+22
3.21880223255276e+22
3.21880224051365e+22
3.21880224912621e+22
3.21880225839039e+22
3.21880226830657e+22
3.21880227887478e+22
3.21880229009513e+22
3.21880230196794e+22
3.21880231449362e+22
3.21880232767261e+22
3.21880234150546e+22
3.21880235599275e+22
3.21880237113672e+22
3.21880238693683e+22
3.21880240339395e+22
3.21880242050918e+22
3.21880243828249e+22
3.21880245671475e+22
3.21880247580876e+22
3.21880249556482e+22
3.21880251598261e+22
3.2188025370631e+22
3.21880255880733e+22
3.21880258121643e+22
3.21880260429199e+22
3.21880262803503e+22
3.21880265244652e+22
3.21880267752785e+22
3.21880270328042e+22
3.2188027297055e+22
3.21880275680453e+22
3.21880278457898e+22
3.21880281303039e+22
3.21880284216035e+22
3.21880287197071e+22
3.21880290246329e+22
3.21880293364087e+22
3.21880296550561e+22
3.21880299806082e+22
3.21880303130733e+22
3.21880306524776e+22
3.21880309988247e+22
3.21880313521279e+22
3.21880317123925e+22
3.21880320796369e+22
3.21880324538802e+22
3.21880328351421e+22
3.21880332234445e+22
3.21880336188055e+22
3.21880340212458e+22
3.21880344307915e+22
3.21880348474834e+22
3.21880352713404e+22
3.21880357023603e+22
3.2188036140564e+22
3.2188036585973e+22
3.21880370386091e+22
3.21880374984941e+22
3.21880379656525e+22
3.21880384401146e+22
3.21880389219056e+22
3.21880394110414e+22
3.21880399075588e+22
3.21880404114803e+22
3.21880409228228e+22
3.21880414416136e+22
3.21880419678561e+22
3.21880425016038e+22
3.21880430428452e+22
3.2188043591601e+22
3.21880441478971e+22
3.21880447117538e+22
3.21880452832084e+22
3.21880458622754e+22
3.21880464489653e+22
3.21880470432996e+22
3.21880476453122e+22
3.21880482550167e+22
3.21880488724397e+22
3.21880494976466e+22
3.2188050130606e+22
3.21880507713438e+22
3.2188051419875e+22
3.21880520761815e+22
3.2188052740314e+22
3.21880534123141e+22
3.21880540922153e+22
3.21880547800439e+22
3.21880554758198e+22
3.21880561795677e+22
3.21880568913447e+22
3.21880576111467e+22
3.21880583390072e+22
3.21880590749595e+22
3.21880598190121e+22
3.21880605712075e+22
3.21880613315578e+22
3.21880621000794e+22
3.21880628767959e+22
3.21880636617304e+22
3.21880644549114e+22
3.2188065256361e+22
3.21880660661012e+22
3.2188066884169e+22
3.21880677106018e+22
3.21880685453934e+22
3.21880693885607e+22
3.21880702401295e+22
3.21880711001432e+22
3.21880719686059e+22
3.21880728455627e+22
3.21880737310194e+22
3.21880746249805e+22
3.21880755274636e+22
3.21880764385118e+22
3.21880773581228e+22
3.21880782863219e+22
3.21880792231257e+22
3.21880801685638e+22
3.21880811226542e+22
3.21880820854157e+22
3.21880830568879e+22
3.21880840371207e+22
3.21880850261087e+22
3.2188086023861e+22
3.21880870304158e+22
3.21880880458047e+22
3.21880890700314e+22
3.21880901031245e+22
3.21880911451129e+22
3.21880921960409e+22
3.21880932559523e+22
3.2188094324883e+22
3.2188095402824e+22
3.21880964898e+22
3.21880975858367e+22
3.2188098690972e+22
3.21880998052613e+22
3.21881009286952e+22
3.21881020613017e+22
3.21881032031383e+22
3.21881043542014e+22
3.21881055144951e+22
3.21881066840585e+22
3.21881078628836e+22
3.21881090509474e+22
3.21881102482971e+22
3.21881114546001e+22
3.21881126703124e+22
3.21881138943603e+22
3.21881151287654e+22
3.21881163691473e+22
3.21881176235884e+22
3.2188118878046e+22
3.21881201284224e+22
3.21881213961259e+22
3.21881226736835e+22
3.21881239593707e+22
3.21881252498224e+22
3.21881265373344e+22
3.21881278319642e+22
3.21881291170046e+22
3.21881304083613e+22
3.21881317322656e+22
3.21881330196187e+22
3.21881342840302e+22
3.21881355840252e+22
3.21881368459933e+22
3.21881380549232e+22
3.21881392888155e+22
3.21881404623734e+22
3.21881415552839e+22
3.21881426680041e+22
3.21881436790077e+22
3.21881445969504e+22
3.21881455066613e+22
3.21881463082813e+22
3.21881470021166e+22
3.2188147660099e+22
3.21881482308034e+22
3.2188148709703e+22
3.21881490886719e+22
3.21881494356506e+22
3.21881496543952e+22
3.2188149816008e+22
3.21881499169978e+22
3.21881500084217e+22
3.21881500641916e+22
3.21881500948934e+22
3.21881500686791e+22
3.21881500538948e+22
3.21881500467863e+22
3.21881501000614e+22
3.21881501754827e+22
3.21881502651987e+22
3.21881503527004e+22
3.2188150430557e+22
3.21881504980937e+22
3.21881505564035e+22
3.21881506063207e+22
3.21881506488338e+22
3.21881507022988e+22
3.21881507574992e+22
3.21881508084397e+22
3.21881508541124e+22
3.21881508964904e+22
3.21881509347514e+22
3.21881509706765e+22
3.21881510032165e+22
3.21881510344141e+22
3.21881510630869e+22
3.21881510906495e+22
3.21881511157582e+22
3.21881511547222e+22
3.21881511921839e+22
3.21881512292737e+22
3.21881512636378e+22
3.21881512978521e+22
3.21881513294894e+22
3.21881513611605e+22
3.2188151390339e+22
3.21881514196791e+22
3.21881514466008e+22
3.21881514737726e+22
3.2188151498573e+22
3.21881515237054e+22
3.21881515464917e+22
3.21881515696812e+22
3.21881515905341e+22
3.21881516145495e+22
3.2188151644159e+22
3.21881516741273e+22
3.21881517018899e+22
3.21881517300713e+22
3.21881517560759e+22
3.21881517825807e+22
3.21881518069262e+22
3.2188151831844e+22
3.21881518546277e+22
3.21881518780354e+22
3.21881518993356e+22
3.21881519213056e+22
3.218815194119e+22
3.21881519618005e+22
3.21881519803401e+22
3.21881519996603e+22
3.21881520169252e+22
3.21881520350121e+22
3.21881520510568e+22
3.21881520679712e+22
3.21881520828538e+22
3.21881520986472e+22
3.21881521124219e+22
3.21881521321175e+22
3.21881521515843e+22
3.21881521721184e+22
3.21881521905445e+22
3.2188152210085e+22
3.21881522275274e+22
3.2188152246126e+22
3.21881522626395e+22
3.21881522803542e+22
3.21881522959914e+22
3.21881523128794e+22
3.21881523276952e+22
3.21881523437959e+22
3.21881523578265e+22
3.2188152373175e+22
3.21881523864659e+22
3.21881524011413e+22
3.21881524139468e+22
3.21881524283042e+22
3.21881524406436e+22
3.21881524544059e+22
3.2188152466139e+22
3.2188152479311e+22
3.21881524904432e+22
3.21881525034566e+22
3.21881525146402e+22
3.21881525274031e+22
3.21881525379688e+22
3.21881525508494e+22
3.21881525616803e+22
3.21881525745111e+22
3.21881525857988e+22
3.21881525996071e+22
3.21881526121149e+22
3.21881526373473e+22
)
;

boundaryField
{
    electrode
    {
        type            zeroGradient;
    }
    ground
    {
        type            zeroGradient;
    }
    otherfaces
    {
        type            empty;
    }
}


// ************************************************************************* //
