/*--------------------------------*- C++ -*----------------------------------*\
| =========                 |                                                 |
| \\      /  F ield         | foam-extend: Open Source CFD                    |
|  \\    /   O peration     | Version:     4.0                                |
|   \\  /    A nd           | Web:         http://www.foam-extend.org         |
|    \\/     M anipulation  |                                                 |
\*---------------------------------------------------------------------------*/
FoamFile
{
    version     2.0;
    format      ascii;
    class       volScalarField;
    location    "7.6e-06";
    object      Arm;
}
// * * * * * * * * * * * * * * * * * * * * * * * * * * * * * * * * * * * * * //

dimensions      [0 0 0 1 0 0 0];

internalField   nonuniform List<scalar> 
300
(
3.57411570347596e+15
3.57599013499621e+15
3.57793780140506e+15
3.57924400331957e+15
3.58006030019213e+15
3.58043889072729e+15
3.58042397453292e+15
3.58004699956719e+15
3.57933362705785e+15
3.57830583744792e+15
3.57697941084117e+15
3.57536843283497e+15
3.57348495732036e+15
3.57133958725807e+15
3.56894177997619e+15
3.56630007656105e+15
3.56341930990958e+15
3.5603080615451e+15
3.5569746707886e+15
3.55342561910925e+15
3.54966710796088e+15
3.54570505900035e+15
3.54154516222388e+15
3.53719284448598e+15
3.53263748776801e+15
3.52789677485377e+15
3.52297442499277e+15
3.51787247057012e+15
3.51260447802366e+15
3.50717531578168e+15
3.50157128125535e+15
3.49580372517997e+15
3.48989072908616e+15
3.48383769201214e+15
3.47764970022085e+15
3.47133154962634e+15
3.46488342820628e+15
3.45831184469878e+15
3.45162386281338e+15
3.44482302246335e+15
3.43791282958567e+15
3.43089855629983e+15
3.4237840850497e+15
3.41657310736876e+15
3.40926912337522e+15
3.40187539408197e+15
3.39439286771792e+15
3.38682298012131e+15
3.37915798779982e+15
3.37139645831319e+15
3.36352583475284e+15
3.35555856744489e+15
3.3474893152661e+15
3.33933575559578e+15
3.33110604442608e+15
3.32281652547101e+15
3.31447051580836e+15
3.30607093160608e+15
3.29762034261011e+15
3.28911917447853e+15
3.2805717348544e+15
3.27198013071829e+15
3.26334100552355e+15
3.25463644251452e+15
3.2458704195153e+15
3.23706846543812e+15
3.22823270289457e+15
3.21936497164001e+15
3.210466857524e+15
3.20153971758273e+15
3.19258270113935e+15
3.18358867194119e+15
3.17455609727529e+15
3.16549238570452e+15
3.15638403895695e+15
3.14723210423127e+15
3.13804290545668e+15
3.12881235533146e+15
3.11956034134789e+15
3.11025644597295e+15
3.10093513558501e+15
3.09159856996183e+15
3.08224367801785e+15
3.07287269270729e+15
3.06347084327423e+15
3.05404584869677e+15
3.04460939561687e+15
3.03516180333425e+15
3.02569120048986e+15
3.016205300321e+15
3.00669805709612e+15
2.99712458682941e+15
2.98753997357439e+15
2.97794591935233e+15
2.96834245510438e+15
2.95872960667607e+15
2.9491071557782e+15
2.93947465723399e+15
2.92982120107522e+15
2.92014672068458e+15
2.91045746535478e+15
2.9007546807216e+15
2.8910067162266e+15
2.88124267776962e+15
2.87145339265412e+15
2.86162954557995e+15
2.85178608800617e+15
2.84190348535237e+15
2.83199211943329e+15
2.82205743903587e+15
2.81209758245283e+15
2.80211025707036e+15
2.79208773570866e+15
2.78202779940629e+15
2.77192820882112e+15
2.76177132909423e+15
2.75153832817521e+15
2.74125392378397e+15
2.73091900740668e+15
2.72052548801966e+15
2.71004704710666e+15
2.69949654839018e+15
2.68884510198849e+15
2.67810305564649e+15
2.66728182242633e+15
2.65637918672338e+15
2.64536712382047e+15
2.6342629792264e+15
2.623055970139e+15
2.61174402838578e+15
2.60031154152343e+15
2.58875462393334e+15
2.57706825348209e+15
2.56522635628087e+15
2.55319254828932e+15
2.54098559926181e+15
2.52860941543401e+15
2.51603899644245e+15
2.5032555105169e+15
2.49026801420387e+15
2.47706055031165e+15
2.46361644576022e+15
2.44990357442204e+15
2.43588984681006e+15
2.42155069503695e+15
2.40690582292273e+15
2.39194040348207e+15
2.37663805745558e+15
2.36096824255942e+15
2.3448821658155e+15
2.32839213689089e+15
2.31147340723157e+15
2.2940638292463e+15
2.27616212000152e+15
2.25775000557127e+15
2.23877780302774e+15
2.21920230606994e+15
2.19902288842438e+15
2.17822039572033e+15
2.15674991072775e+15
2.1345758407818e+15
2.11168304157264e+15
2.08803335061147e+15
2.06363921840566e+15
2.03848763076276e+15
2.01252416089107e+15
1.9857695671191e+15
1.95826837028037e+15
1.93004957289344e+15
1.90115516071997e+15
1.87165366025819e+15
1.84157851321434e+15
1.81102212679565e+15
1.78015594303279e+15
1.74917385275644e+15
1.71824574454067e+15
1.68755081667459e+15
1.65728809293323e+15
1.62769622582824e+15
1.59893088561889e+15
1.57114634301042e+15
1.54448957291595e+15
1.51904205634377e+15
1.49491841113124e+15
1.47211854515102e+15
1.45055251640332e+15
1.43025990736503e+15
1.41119029237717e+15
1.39325787790618e+15
1.3763821184274e+15
1.36046921199968e+15
1.34557041364412e+15
1.33217642377717e+15
1.32535822147136e+15
1.35129093952258e+15
1.41713044148966e+15
1.49671684444962e+15
1.56172798984842e+15
1.61865201737663e+15
1.67494870924556e+15
1.72943676662875e+15
1.7780204070923e+15
1.79701280005372e+15
1.77865750970822e+15
1.73490226899273e+15
1.68236024257975e+15
1.63388783334842e+15
1.59618986738111e+15
1.56939561816312e+15
1.55154676497768e+15
1.53959757050372e+15
1.53197566320701e+15
1.5269586356987e+15
1.5240432810422e+15
1.52150049079455e+15
1.51928536443142e+15
1.51737729431224e+15
1.51543396263041e+15
1.51320942732743e+15
1.51055940858088e+15
1.50738653486186e+15
1.50327792704107e+15
1.49823325325426e+15
1.49243711054487e+15
1.48597200876283e+15
1.47899871827278e+15
1.47156529368263e+15
1.46370289895001e+15
1.45546075623513e+15
1.4468954360827e+15
1.43804157071264e+15
1.42894941303219e+15
1.41967329057401e+15
1.41024956141546e+15
1.40071640836905e+15
1.39112663531112e+15
1.38149805509248e+15
1.37188048472343e+15
1.36229081037646e+15
1.35276469473985e+15
1.34332427981714e+15
1.33398068600106e+15
1.32476578189799e+15
1.31568093458917e+15
1.30674577043179e+15
1.29798710430001e+15
1.28940058042572e+15
1.28100137985783e+15
1.27279787328974e+15
1.26478656181072e+15
1.2569777808943e+15
1.24936985253076e+15
1.24196147206325e+15
1.23475857537526e+15
1.22775291178752e+15
1.22094331660665e+15
1.21433204419756e+15
1.20790555159607e+15
1.20167188889193e+15
1.19562105637193e+15
1.18975451129546e+15
1.18406084467752e+15
1.17854260521294e+15
1.17319033963668e+15
1.16800046462103e+15
1.16296785578147e+15
1.1580835024e+15
1.1533428568064e+15
1.1487339193646e+15
1.14426105806755e+15
1.13991484466877e+15
1.13569820737436e+15
1.13159600440098e+15
1.12761281150326e+15
1.12373574262994e+15
1.11996255346675e+15
1.1162907669401e+15
1.11271965691546e+15
1.10925048231151e+15
1.10587621310498e+15
1.10259499243034e+15
1.09936584603601e+15
1.09604540264254e+15
1.09263339650571e+15
1.08928783664267e+15
1.08600758268625e+15
1.08280163350255e+15
1.07967292442875e+15
1.07661208545277e+15
1.07323006202259e+15
1.06965992748731e+15
1.06617280691995e+15
1.06277632253149e+15
1.05883941517715e+15
1.05476618612775e+15
1.05058494203118e+15
1.0456782578285e+15
1.04029260973808e+15
1.03407423092419e+15
1.02649012290393e+15
)
;

boundaryField
{
    electrode
    {
        type            zeroGradient;
    }
    ground
    {
        type            zeroGradient;
    }
    otherfaces
    {
        type            empty;
    }
}


// ************************************************************************* //
