/*--------------------------------*- C++ -*----------------------------------*\
| =========                 |                                                 |
| \\      /  F ield         | foam-extend: Open Source CFD                    |
|  \\    /   O peration     | Version:     4.0                                |
|   \\  /    A nd           | Web:         http://www.foam-extend.org         |
|    \\/     M anipulation  |                                                 |
\*---------------------------------------------------------------------------*/
FoamFile
{
    version     2.0;
    format      ascii;
    class       volScalarField;
    location    "7.6e-06";
    object      Arp1;
}
// * * * * * * * * * * * * * * * * * * * * * * * * * * * * * * * * * * * * * //

dimensions      [0 0 0 1 0 0 0];

internalField   nonuniform List<scalar> 
300
(
6.57441043474198e+16
6.57867467654475e+16
6.57600921841093e+16
6.57546756051625e+16
6.5744584407528e+16
6.57303246544789e+16
6.57135373496106e+16
6.56935333018719e+16
6.56704131568555e+16
6.56441909872914e+16
6.56148487091301e+16
6.55823870145868e+16
6.55468022793806e+16
6.55080906062453e+16
6.54662482565213e+16
6.54212711621852e+16
6.53731550647042e+16
6.5321895505965e+16
6.52674878214759e+16
6.52099271448209e+16
6.51492084075102e+16
6.50853263404045e+16
6.50182754747892e+16
6.49480501432335e+16
6.4874644481188e+16
6.47980524284626e+16
6.47182677301226e+16
6.46352839385788e+16
6.45490944151842e+16
6.44596923316941e+16
6.43670706722172e+16
6.42712222355875e+16
6.41721396368736e+16
6.40698153097399e+16
6.39642415091125e+16
6.38554103130023e+16
6.374331362537e+16
6.36279431789762e+16
6.35092905375912e+16
6.33873470992913e+16
6.32621040996495e+16
6.31335526143086e+16
6.30016835627081e+16
6.28664877115522e+16
6.27279556779022e+16
6.25860779332193e+16
6.24408448072939e+16
6.22922464916472e+16
6.21402730440525e+16
6.19849143928718e+16
6.18261603407902e+16
6.16640005698658e+16
6.14984246460873e+16
6.13294220237898e+16
6.11569820507617e+16
6.09810939734633e+16
6.08017469418235e+16
6.06189300145698e+16
6.04326321650472e+16
6.02428422861346e+16
6.00495491962612e+16
5.98527416453552e+16
5.96524083202233e+16
5.9448537850912e+16
5.92411188169548e+16
5.90301397531033e+16
5.88155891560227e+16
5.85974554908285e+16
5.83757271971316e+16
5.8150392695944e+16
5.79214403965475e+16
5.76888587027554e+16
5.74526360200785e+16
5.72127607627577e+16
5.69692213602046e+16
5.67220062644512e+16
5.6471103957157e+16
5.62165029564453e+16
5.59581918241334e+16
5.56961591730486e+16
5.54303936741036e+16
5.5160884063629e+16
5.4887619149328e+16
5.46105878168144e+16
5.43297790419677e+16
5.40451819018681e+16
5.37567855786213e+16
5.34645793155497e+16
5.31685523801652e+16
5.28686943244796e+16
5.25649954991562e+16
5.22574463413885e+16
5.19460337973962e+16
5.16307406316295e+16
5.13115622722537e+16
5.09885275624923e+16
5.06615987483893e+16
5.03307482764036e+16
4.99959676936148e+16
4.96572447408479e+16
4.93145668589813e+16
4.89679216550204e+16
4.86172969748276e+16
4.82626809387717e+16
4.79040619505372e+16
4.75414287002683e+16
4.71747701665669e+16
4.68040756174634e+16
4.64293346113735e+16
4.60505369986213e+16
4.56676729222233e+16
4.52807328190265e+16
4.48897074213247e+16
4.44945877579267e+16
4.40953651555821e+16
4.36920312409679e+16
4.32845779423179e+16
4.28729974915007e+16
4.24572824268237e+16
4.20374255955583e+16
4.16134201575147e+16
4.11852595891258e+16
4.07529376879961e+16
4.03164485786066e+16
3.98757867192227e+16
3.9430946909667e+16
3.89819243008962e+16
3.85287144066291e+16
3.80713131166056e+16
3.76097167129427e+16
3.71439218894985e+16
3.66739257746634e+16
3.61997259587579e+16
3.57213205267001e+16
3.52387080965308e+16
3.47518878655493e+16
3.42608596652036e+16
3.37656240261175e+16
3.32661822557097e+16
3.27625365308152e+16
3.22546900072277e+16
3.17426469518198e+16
3.1226412897341e+16
3.07059948321037e+16
3.01814014247546e+16
2.96526432701121e+16
2.911973328513e+16
2.85826869257033e+16
2.80415229891386e+16
2.74962633846796e+16
2.69469358369206e+16
2.63935701706066e+16
2.58362068764731e+16
2.52748895191324e+16
2.47096741141817e+16
2.41406166415342e+16
2.35678173358512e+16
2.2991352838612e+16
2.24112522014472e+16
2.18279553886392e+16
2.12411103616654e+16
2.06518825959375e+16
2.00583689820344e+16
1.94650309777425e+16
1.88639060733193e+16
1.82692629457713e+16
1.76855880588636e+16
1.7092032727249e+16
1.64965726200736e+16
1.59012841195681e+16
1.53098118141426e+16
1.47302216752067e+16
1.41528036208287e+16
1.35944911733237e+16
1.30394026532481e+16
1.24607802771799e+16
1.19265205815586e+16
1.14214610873433e+16
1.08848230522999e+16
1.03869467833876e+16
9.93877599849023e+15
9.45745484137677e+15
9.02237888044079e+15
8.64721111883105e+15
8.2244722006284e+15
7.86840142366414e+15
7.5633322245713e+15
7.2183270583737e+15
6.9282719887115e+15
6.68959590568051e+15
6.42906252835867e+15
6.19855141614815e+15
6.00447878721357e+15
5.8538938305925e+15
5.65798856723834e+15
5.5119105716152e+15
5.3767585692978e+15
5.29044702181373e+15
5.20107087669124e+15
5.13311907764813e+15
5.08111926349426e+15
5.08266849840525e+15
5.09553776964717e+15
5.13319549545032e+15
5.13186255239035e+15
5.11403502725659e+15
5.07567635824629e+15
5.02744981819337e+15
4.97724599206402e+15
4.92803509731334e+15
4.88194690615354e+15
4.8398106531544e+15
4.8024082292032e+15
4.75191348551882e+15
4.69928699814689e+15
4.65057789249361e+15
4.60682053900525e+15
4.56638811344874e+15
4.53035113281109e+15
4.49707428231263e+15
4.46770537891924e+15
4.44061532494835e+15
4.41698722455636e+15
4.39522231124476e+15
4.37658197399495e+15
4.34459616637368e+15
4.31457466612444e+15
4.2853556922608e+15
4.2592438896687e+15
4.23360656510106e+15
4.21083634728559e+15
4.18827193099591e+15
4.16838518486277e+15
4.14848559670078e+15
4.13111476351986e+15
4.11355113485642e+15
4.09839848754463e+15
4.08290331017526e+15
4.06972674247396e+15
4.05608376830717e+15
4.04469184143228e+15
4.03004079555712e+15
4.00966699032656e+15
3.98880431788162e+15
3.96999750854798e+15
3.95059524078531e+15
3.9331973300395e+15
3.91511163321547e+15
3.8989892062627e+15
3.88210188280637e+15
3.86714573226852e+15
3.85136435227701e+15
3.83749039841336e+15
3.82274072643727e+15
3.80987896802735e+15
3.79609447582661e+15
3.78418213357531e+15
3.77130389623174e+15
3.76028771533777e+15
3.74826611184265e+15
3.73810203960269e+15
3.72689489398738e+15
3.71754358300956e+15
3.70711519343446e+15
3.6985425441474e+15
3.68389136422021e+15
3.66932031825227e+15
3.6535379169297e+15
3.63973127866576e+15
3.62467387579144e+15
3.61158755170057e+15
3.59721510457129e+15
3.58481300395016e+15
3.57109045260674e+15
3.5593388345185e+15
3.5462324145479e+15
3.53509639746568e+15
3.52257456113837e+15
3.51202058042885e+15
3.50005360469559e+15
3.49005094769019e+15
3.47861146149241e+15
3.46913283823528e+15
3.45819371346438e+15
3.44920588515398e+15
3.43872975041554e+15
3.43020821804161e+15
3.4201704912015e+15
3.41210435931405e+15
3.40247804495821e+15
3.39486942015114e+15
3.38559825061369e+15
3.37843351497667e+15
3.36949393117653e+15
3.36274022671911e+15
3.35409411267088e+15
3.34771613687334e+15
3.33929577176999e+15
3.33300732775162e+15
3.3153578493038e+15
)
;

boundaryField
{
    electrode
    {
        type            driftDiffusionPositiveIonDensity;
        seec            0;
        fieldName       Arp1;
        value           uniform 6.55613628776336e+16;
    }
    ground
    {
        type            driftDiffusionPositiveIonDensity;
        seec            0;
        fieldName       Arp1;
        value           uniform 3.3153578493038e+15;
    }
    otherfaces
    {
        type            empty;
    }
}


// ************************************************************************* //
