/*--------------------------------*- C++ -*----------------------------------*\
| =========                 |                                                 |
| \\      /  F ield         | foam-extend: Open Source CFD                    |
|  \\    /   O peration     | Version:     4.0                                |
|   \\  /    A nd           | Web:         http://www.foam-extend.org         |
|    \\/     M anipulation  |                                                 |
\*---------------------------------------------------------------------------*/
FoamFile
{
    version     2.0;
    format      ascii;
    class       volVectorField;
    location    "7.6e-06";
    object      J_Arp1;
}
// * * * * * * * * * * * * * * * * * * * * * * * * * * * * * * * * * * * * * //

dimensions      [1 -1 -1 0 0 0 0];

internalField   nonuniform List<vector> 
300
(
(2.00122299485566e+16 -0 -0)
(7.17685169475904e+16 -0 -0)
(1.28104025298027e+17 -0 -0)
(1.7815281049839e+17 -0 -0)
(2.28905258379237e+17 -0 -0)
(2.79967338020943e+17 -0 -0)
(3.30897347951615e+17 -0 -0)
(3.81886416877939e+17 -0 -0)
(4.32905965469936e+17 -0 -0)
(4.83955611751881e+17 -0 -0)
(5.35042900770413e+17 -0 -0)
(5.86170224646246e+17 -0 -0)
(6.37341160165963e+17 -0 -0)
(6.8855925957265e+17 -0 -0)
(7.39827962147835e+17 -0 -0)
(7.91150722925385e+17 -0 -0)
(8.42530972033498e+17 -0 -0)
(8.93972116757169e+17 -0 -0)
(9.45477542454788e+17 -0 -0)
(9.97050609982967e+17 -0 -0)
(1.04869465452445e+18 -0 -0)
(1.10041298437288e+18 -0 -0)
(1.15220887922951e+18 -0 -0)
(1.20408558872805e+18 -0 -0)
(1.25604633091002e+18 -0 -0)
(1.30809429063081e+18 -0 -0)
(1.360232617695e+18 -0 -0)
(1.41246442562159e+18 -0 -0)
(1.46479278937076e+18 -0 -0)
(1.51722074378118e+18 -0 -0)
(1.56975128174821e+18 -0 -0)
(1.62238735234134e+18 -0 -0)
(1.67513185878134e+18 -0 -0)
(1.72798765650356e+18 -0 -0)
(1.78095755109591e+18 -0 -0)
(1.83404429625117e+18 -0 -0)
(1.88725059171192e+18 -0 -0)
(1.94057908088776e+18 -0 -0)
(1.99403234898521e+18 -0 -0)
(2.04761292047559e+18 -0 -0)
(2.10132325687281e+18 -0 -0)
(2.15516575462671e+18 -0 -0)
(2.20914274260831e+18 -0 -0)
(2.26325647960895e+18 -0 -0)
(2.31750915219397e+18 -0 -0)
(2.37190287217284e+18 -0 -0)
(2.42643967392503e+18 -0 -0)
(2.48112151239337e+18 -0 -0)
(2.53595026010039e+18 -0 -0)
(2.59092770498322e+18 -0 -0)
(2.64605554773283e+18 -0 -0)
(2.70133539932924e+18 -0 -0)
(2.75676877837439e+18 -0 -0)
(2.81235710863829e+18 -0 -0)
(2.86810171682887e+18 -0 -0)
(2.92400382950542e+18 -0 -0)
(2.9800645710707e+18 -0 -0)
(3.03628496095288e+18 -0 -0)
(3.09266591147256e+18 -0 -0)
(3.14920822489549e+18 -0 -0)
(3.20591259163869e+18 -0 -0)
(3.26277958738352e+18 -0 -0)
(3.31980967083337e+18 -0 -0)
(3.37700318166712e+18 -0 -0)
(3.43436033778577e+18 -0 -0)
(3.49188123360286e+18 -0 -0)
(3.54956583751567e+18 -0 -0)
(3.60741398999738e+18 -0 -0)
(3.66542540116064e+18 -0 -0)
(3.7235996493846e+18 -0 -0)
(3.78193617886405e+18 -0 -0)
(3.84043429776045e+18 -0 -0)
(3.89909317674928e+18 -0 -0)
(3.95791184704471e+18 -0 -0)
(4.01688919868834e+18 -0 -0)
(4.0760239792665e+18 -0 -0)
(4.13531479202647e+18 -0 -0)
(4.19476009480407e+18 -0 -0)
(4.25435819842785e+18 -0 -0)
(4.31410726570824e+18 -0 -0)
(4.37400531024605e+18 -0 -0)
(4.43405019554206e+18 -0 -0)
(4.49423963317463e+18 -0 -0)
(4.55457118086179e+18 -0 -0)
(4.61504224420549e+18 -0 -0)
(4.67565008261937e+18 -0 -0)
(4.73639180831138e+18 -0 -0)
(4.79726434856976e+18 -0 -0)
(4.85826438786815e+18 -0 -0)
(4.91938850797705e+18 -0 -0)
(4.98063367186243e+18 -0 -0)
(5.04199707139756e+18 -0 -0)
(5.10347338113219e+18 -0 -0)
(5.16505217953911e+18 -0 -0)
(5.22672906530157e+18 -0 -0)
(5.28853125708443e+18 -0 -0)
(5.35048698498823e+18 -0 -0)
(5.41260092679768e+18 -0 -0)
(5.47486784081896e+18 -0 -0)
(5.5372815186129e+18 -0 -0)
(5.59983545327093e+18 -0 -0)
(5.66252296467782e+18 -0 -0)
(5.7253372697569e+18 -0 -0)
(5.78827149539869e+18 -0 -0)
(5.85131867993547e+18 -0 -0)
(5.91447177189913e+18 -0 -0)
(5.97772362786355e+18 -0 -0)
(6.04106701045553e+18 -0 -0)
(6.10449458586198e+18 -0 -0)
(6.1679989218785e+18 -0 -0)
(6.23157248538632e+18 -0 -0)
(6.29520764033046e+18 -0 -0)
(6.35889664518119e+18 -0 -0)
(6.42263165058171e+18 -0 -0)
(6.4864046968619e+18 -0 -0)
(6.55020771146122e+18 -0 -0)
(6.61403250595652e+18 -0 -0)
(6.67787077351175e+18 -0 -0)
(6.74171408556812e+18 -0 -0)
(6.80555388858669e+18 -0 -0)
(6.86938150068851e+18 -0 -0)
(6.93318810786154e+18 -0 -0)
(6.996964760021e+18 -0 -0)
(7.06070236676432e+18 -0 -0)
(7.12439169271829e+18 -0 -0)
(7.18802335266276e+18 -0 -0)
(7.25158780631005e+18 -0 -0)
(7.31507535244674e+18 -0 -0)
(7.37847612292219e+18 -0 -0)
(7.44178007608721e+18 -0 -0)
(7.50497698940538e+18 -0 -0)
(7.56805645219815e+18 -0 -0)
(7.63100785725749e+18 -0 -0)
(7.69382039191624e+18 -0 -0)
(7.75648302872113e+18 -0 -0)
(7.81898451530251e+18 -0 -0)
(7.88131336331816e+18 -0 -0)
(7.9434578368666e+18 -0 -0)
(8.00540594013256e+18 -0 -0)
(8.06714540397602e+18 -0 -0)
(8.12866367163102e+18 -0 -0)
(8.1899478840493e+18 -0 -0)
(8.25098486308678e+18 -0 -0)
(8.31176109534575e+18 -0 -0)
(8.37226271588268e+18 -0 -0)
(8.43247547760917e+18 -0 -0)
(8.49238476486211e+18 -0 -0)
(8.55197550589782e+18 -0 -0)
(8.61123228318663e+18 -0 -0)
(8.67013897050807e+18 -0 -0)
(8.72867963882724e+18 -0 -0)
(8.7868365331139e+18 -0 -0)
(8.84459303513969e+18 -0 -0)
(8.90193084966734e+18 -0 -0)
(8.95883222148933e+18 -0 -0)
(9.01527275002272e+18 -0 -0)
(9.07124440417096e+18 -0 -0)
(9.12672468313423e+18 -0 -0)
(9.18163451083707e+18 -0 -0)
(9.23612795499826e+18 -0 -0)
(9.28995957190874e+18 -0 -0)
(9.34365533036542e+18 -0 -0)
(9.39601667615572e+18 -0 -0)
(9.44941836562762e+18 -0 -0)
(9.49915833087888e+18 -0 -0)
(9.55286073405198e+18 -0 -0)
(9.60264105596069e+18 -0 -0)
(9.65252243791545e+18 -0 -0)
(9.70216296602745e+18 -0 -0)
(9.75059710070486e+18 -0 -0)
(9.79865139974643e+18 -0 -0)
(9.84711253739011e+18 -0 -0)
(9.89174103854734e+18 -0 -0)
(9.94141926860834e+18 -0 -0)
(9.98330547397855e+18 -0 -0)
(1.00260067503477e+19 -0 -0)
(1.00737228223047e+19 -0 -0)
(1.0114617765503e+19 -0 -0)
(1.0152428610453e+19 -0 -0)
(1.01967079062591e+19 -0 -0)
(1.02337918746651e+19 -0 -0)
(1.02663881474675e+19 -0 -0)
(1.03064197694684e+19 -0 -0)
(1.03396037921145e+19 -0 -0)
(1.03641098496697e+19 -0 -0)
(1.0402977995384e+19 -0 -0)
(1.04253252191871e+19 -0 -0)
(1.04519435723186e+19 -0 -0)
(1.04788977719974e+19 -0 -0)
(1.05028524696041e+19 -0 -0)
(1.05209240942862e+19 -0 -0)
(1.05492544161466e+19 -0 -0)
(1.05697320149164e+19 -0 -0)
(1.06038399269986e+19 -0 -0)
(1.06197854470283e+19 -0 -0)
(1.06731924837559e+19 -0 -0)
(1.06989345514975e+19 -0 -0)
(1.07788648403687e+19 -0 -0)
(1.08368365840826e+19 -0 -0)
(1.09829795385419e+19 -0 -0)
(1.11352352828073e+19 -0 -0)
(1.13829747575765e+19 -0 -0)
(1.16393023400568e+19 -0 -0)
(1.19369817898567e+19 -0 -0)
(1.21268381900193e+19 -0 -0)
(1.23436433405446e+19 -0 -0)
(1.24959181438184e+19 -0 -0)
(1.26044451293321e+19 -0 -0)
(1.26885460260857e+19 -0 -0)
(1.27564892075558e+19 -0 -0)
(1.28148625661051e+19 -0 -0)
(1.28670740262552e+19 -0 -0)
(1.2916597891096e+19 -0 -0)
(1.29621738319197e+19 -0 -0)
(1.30091014844281e+19 -0 -0)
(1.3053609608342e+19 -0 -0)
(1.30998371360882e+19 -0 -0)
(1.31442355836892e+19 -0 -0)
(1.31907937356219e+19 -0 -0)
(1.32355945489195e+19 -0 -0)
(1.32827199293603e+19 -0 -0)
(1.33279874776626e+19 -0 -0)
(1.33754904114485e+19 -0 -0)
(1.34209007903587e+19 -0 -0)
(1.34686144633804e+19 -0 -0)
(1.35131596321807e+19 -0 -0)
(1.35612495040712e+19 -0 -0)
(1.36052285482056e+19 -0 -0)
(1.36528034654768e+19 -0 -0)
(1.36959479855083e+19 -0 -0)
(1.37427041750319e+19 -0 -0)
(1.37847290456592e+19 -0 -0)
(1.38304009630959e+19 -0 -0)
(1.38710801347186e+19 -0 -0)
(1.3915461413549e+19 -0 -0)
(1.39546200503993e+19 -0 -0)
(1.39975490662079e+19 -0 -0)
(1.40350506187624e+19 -0 -0)
(1.40764032298236e+19 -0 -0)
(1.41121506003489e+19 -0 -0)
(1.41518750909965e+19 -0 -0)
(1.41857691080688e+19 -0 -0)
(1.42236560576331e+19 -0 -0)
(1.42560427611698e+19 -0 -0)
(1.42922017569217e+19 -0 -0)
(1.43227648471361e+19 -0 -0)
(1.43572584413947e+19 -0 -0)
(1.43860138204449e+19 -0 -0)
(1.44188581108581e+19 -0 -0)
(1.44458451137925e+19 -0 -0)
(1.44770808299355e+19 -0 -0)
(1.45023761210449e+19 -0 -0)
(1.45320845159573e+19 -0 -0)
(1.45557850721747e+19 -0 -0)
(1.45840562043677e+19 -0 -0)
(1.46062472006679e+19 -0 -0)
(1.46331600847473e+19 -0 -0)
(1.46539195424425e+19 -0 -0)
(1.46795559093599e+19 -0 -0)
(1.46989660773387e+19 -0 -0)
(1.47234138333794e+19 -0 -0)
(1.47415582166593e+19 -0 -0)
(1.47648975887851e+19 -0 -0)
(1.47818604856116e+19 -0 -0)
(1.4804201778607e+19 -0 -0)
(1.48198991754303e+19 -0 -0)
(1.48415371248014e+19 -0 -0)
(1.48562209966534e+19 -0 -0)
(1.48769509558302e+19 -0 -0)
(1.48906325142121e+19 -0 -0)
(1.49105252043656e+19 -0 -0)
(1.49232695549945e+19 -0 -0)
(1.49423954331133e+19 -0 -0)
(1.49542689033628e+19 -0 -0)
(1.49726899186452e+19 -0 -0)
(1.49837467179645e+19 -0 -0)
(1.50015030950584e+19 -0 -0)
(1.50117905196169e+19 -0 -0)
(1.50289122419389e+19 -0 -0)
(1.50384704652786e+19 -0 -0)
(1.50549851991804e+19 -0 -0)
(1.50638509139542e+19 -0 -0)
(1.50797879792574e+19 -0 -0)
(1.50879865815457e+19 -0 -0)
(1.51033372670718e+19 -0 -0)
(1.51108371744485e+19 -0 -0)
(1.51256189428819e+19 -0 -0)
(1.51324332155683e+19 -0 -0)
(1.51467140411713e+19 -0 -0)
(1.51528356107226e+19 -0 -0)
(1.51667338049915e+19 -0 -0)
(1.51720156619989e+19 -0 -0)
(1.51855714417459e+19 -0 -0)
(1.51900024974575e+19 -0 -0)
(1.52031619490566e+19 -0 -0)
(1.52066568422034e+19 -0 -0)
(1.52193458332491e+19 -0 -0)
(1.52216764987655e+19 -0 -0)
(1.52336635656215e+19 -0 -0)
(1.52110896653349e+19 -0 -0)
)
;

boundaryField
{
    electrode
    {
        type            calculated;
        value           uniform (-14036350354.5815 -0 -0);
    }
    ground
    {
        type            calculated;
        value           uniform (1.52397780964117e+19 -0 -0);
    }
    otherfaces
    {
        type            empty;
    }
}


// ************************************************************************* //
