/*--------------------------------*- C++ -*----------------------------------*\
| =========                 |                                                 |
| \\      /  F ield         | foam-extend: Open Source CFD                    |
|  \\    /   O peration     | Version:     4.0                                |
|   \\  /    A nd           | Web:         http://www.foam-extend.org         |
|    \\/     M anipulation  |                                                 |
\*---------------------------------------------------------------------------*/
FoamFile
{
    version     2.0;
    format      ascii;
    class       volScalarField;
    location    "7.6e-06";
    object      N_electronMean;
}
// * * * * * * * * * * * * * * * * * * * * * * * * * * * * * * * * * * * * * //

dimensions      [0 0 0 1 0 0 0];

internalField   nonuniform List<scalar> 
300
(
6.1200843027921e+16
6.1199327946407e+16
6.11951935960841e+16
6.11879837828734e+16
6.11777395485549e+16
6.11644268636287e+16
6.11480281194608e+16
6.11285339642767e+16
6.11059350896941e+16
6.1080224556772e+16
6.10513971822272e+16
6.10194493432676e+16
6.09843788797923e+16
6.09461849585332e+16
6.09048679843613e+16
6.08604295118527e+16
6.08128721696202e+16
6.07621995954122e+16
6.0708416372969e+16
6.06515279722269e+16
6.05915406964254e+16
6.05284616319951e+16
6.04622986002007e+16
6.0393060107625e+16
6.03207553099102e+16
6.02453939832322e+16
6.01669864724106e+16
6.00855436392858e+16
6.00010768205452e+16
5.99135977710047e+16
5.98231186267586e+16
5.97296518949259e+16
5.96332104019822e+16
5.95338072109193e+16
5.94314555615869e+16
5.93261688228522e+16
5.92179604455132e+16
5.91068439191242e+16
5.89928327248434e+16
5.88759402875785e+16
5.87561799366514e+16
5.8633564865776e+16
5.8508108085577e+16
5.83798223801978e+16
5.82487202698162e+16
5.81148139741543e+16
5.79781153785073e+16
5.78386360035133e+16
5.76963869818879e+16
5.75513790418852e+16
5.74036225070458e+16
5.72531272967204e+16
5.70999029008015e+16
5.69439583327236e+16
5.67853020621985e+16
5.6623941946038e+16
5.64598851689107e+16
5.62931381969677e+16
5.61237067424304e+16
5.59515957293343e+16
5.57768092628342e+16
5.55993506007595e+16
5.54192221220692e+16
5.52364253201178e+16
5.50509608258271e+16
5.48628283779418e+16
5.46720267436734e+16
5.44785536716567e+16
5.42824058696364e+16
5.40835789819911e+16
5.38820675671588e+16
5.36778650882044e+16
5.34709639282001e+16
5.32613553790608e+16
5.30490295997836e+16
5.28339756194741e+16
5.26161813570941e+16
5.23956336013788e+16
5.21723179530985e+16
5.19462187899411e+16
5.17173192634118e+16
5.14856012391787e+16
5.12510452397848e+16
5.10136304264896e+16
5.07733345923769e+16
5.05301341743182e+16
5.02840042281538e+16
5.00349183739482e+16
4.97828487733598e+16
4.95277661302714e+16
4.92696396711395e+16
4.90084371610619e+16
4.87441249296738e+16
4.84766678027443e+16
4.82060290375752e+16
4.79321703124661e+16
4.76550517249218e+16
4.73746317938644e+16
4.7090867455375e+16
4.68037140621643e+16
4.65131253806606e+16
4.62190535685718e+16
4.59214491815203e+16
4.56202611980689e+16
4.53154369912659e+16
4.50069223121291e+16
4.46946612936735e+16
4.43785964437338e+16
4.40586686535268e+16
4.37348171821735e+16
4.34069796326378e+16
4.30750919492867e+16
4.27390884258654e+16
4.23989017294232e+16
4.20544629091016e+16
4.17057014051298e+16
4.13525451017712e+16
4.09949203540023e+16
4.06327519571713e+16
4.0265963125078e+16
3.98944755201132e+16
3.95182093006562e+16
3.91370831610012e+16
3.87510143804491e+16
3.83599188184285e+16
3.79637108717269e+16
3.75623034898419e+16
3.71556082143259e+16
3.67435351845347e+16
3.63259931526782e+16
3.59028895237097e+16
3.54741303942816e+16
3.50396205824048e+16
3.45992636546456e+16
3.41529620107891e+16
3.3700616984412e+16
3.32421288514079e+16
3.27773967978434e+16
3.23063189342723e+16
3.18287923424389e+16
3.13447130937517e+16
3.08539762615661e+16
3.03564759523818e+16
2.98521053485536e+16
2.93407568032693e+16
2.88223219215469e+16
2.82966915580799e+16
2.77637557996718e+16
2.72234039440394e+16
2.66755245374682e+16
2.61200054743881e+16
2.5556734017857e+16
2.49855968335824e+16
2.44064800882837e+16
2.38192694634198e+16
2.32238502721623e+16
2.26201076024446e+16
2.20079265980208e+16
2.13871923827817e+16
2.075778973375e+16
2.01196005515167e+16
1.94724902985643e+16
1.88162874054592e+16
1.81507751353409e+16
1.7475690903857e+16
1.67907163254411e+16
1.6095483468393e+16
1.53896173408343e+16
1.46727702002413e+16
1.39446318670139e+16
1.32049628112556e+16
1.24536911218785e+16
1.16910580907859e+16
1.09177852407604e+16
1.01353154363979e+16
9.34603481156813e+15
8.55336924518514e+15
7.76194710639896e+15
6.97775437883056e+15
6.20800671893383e+15
5.46087822464709e+15
4.74517597983056e+15
4.06974690883237e+15
3.44276437932051e+15
2.87109490960106e+15
2.35966656108209e+15
1.91103555793237e+15
1.52529268094083e+15
1.2001910720318e+15
931515116491521
713640583291105
540135164278953
404312976891706
299699828170493
220004048950455
159933832082903
115197853419745
82198804416747.8
57985203670330.2
40188091570345.8
27392535603439.1
18418156382072.5
12166604301445.8
7961236443184.41
5305581606499.11
3732705844924.98
2840024231850.87
2337221585419.66
2047646526899.21
1874302778553.91
1765890623834.55
1695013191815.52
1646446780128.28
1611405226330.76
1584591716760.17
1562674563402.72
1543462510142.89
1525492761749.68
1507859342961.72
1489987951224.72
1471456260623.27
1451987088988.38
1431444787410.81
1409771489908.12
1386975865167.96
1363109631013.59
1338254731918.47
1312512022159.53
1285993945706.01
1258819084958.78
1231108079773.87
1202981160408.89
1174555194507.69
1145942264081.24
1117248634735.91
1088573529510.95
1060008463533.5
1031637391137.84
1003535857606.53
975771076305.236
948400872848.929
921474733804.003
895037096984.915
869127151022.16
843778500617.26
819018956203.912
794869913450.863
771347327188.53
748462255846.427
726221545926.886
704629211961.218
683686286947.245
663390620289.004
643737164641.996
624718608343.395
606326779284.973
588550390811.482
571374076891.667
554783586894.93
538765764720.28
523305948953.83
508388263145.134
493996427075.47
480113767541.264
466723540308.797
453809234399.323
441353670886.636
429339424051.483
417749516898.285
406566979900.81
395774446644.041
385354158532.012
375290168302.944
365569914881.359
356182298320.188
347117025906.902
338364448020.578
329915457104.996
321761709009.517
313895659718.944
306310462550.307
298999306393.152
291954690113.501
285159221108.886
278586399841.551
272224986776.084
266081709103.088
260166703193.9
254490826517.43
249043806529.467
243800379344.704
238771224327.092
233999678727.671
229488004977.541
225263855589.169
221409461992.821
218049576953.406
215441820971.682
214008521916.112
214503698644.071
)
;

boundaryField
{
    electrode
    {
        type            calculated;
        value           uniform 6.12008430280773e+16;
    }
    ground
    {
        type            calculated;
        value           uniform 216254556830.428;
    }
    otherfaces
    {
        type            empty;
    }
}


// ************************************************************************* //
