/*--------------------------------*- C++ -*----------------------------------*\
| =========                 |                                                 |
| \\      /  F ield         | foam-extend: Open Source CFD                    |
|  \\    /   O peration     | Version:     4.0                                |
|   \\  /    A nd           | Web:         http://www.foam-extend.org         |
|    \\/     M anipulation  |                                                 |
\*---------------------------------------------------------------------------*/
FoamFile
{
    version     2.0;
    format      ascii;
    class       volScalarField;
    location    "7.6e-06";
    object      Phi;
}
// * * * * * * * * * * * * * * * * * * * * * * * * * * * * * * * * * * * * * //

dimensions      [0 0 0 1 0 0 0];

internalField   nonuniform List<scalar> 
300
(
699.999927941881
699.999710456374
699.99919830209
699.9984243805
699.997397072443
699.996111002236
699.994567041021
699.992764753345
699.990703573616
699.988383008873
699.985802469449
699.982961313317
699.979858843699
699.976494305805
699.972866887671
699.968975719568
699.964819873535
699.960398362954
699.955710142051
699.95075410538
699.945529087281
699.940033861302
699.93426713959
699.928227572258
699.921913746711
699.915324186948
699.908457352825
699.901311639285
699.89388537556
699.886176824324
699.878184180827
699.869905571978
699.861339055397
699.852482618426
699.843334177096
699.833891575063
699.824152582489
699.814114894889
699.803776131925
699.793133836161
699.782185471762
699.770928423149
699.759359993599
699.747477403792
699.735277790307
699.72275820405
699.709915608635
699.696746878695
699.683248798131
699.66941805829
699.655251256084
699.640744892021
699.625895368174
699.610698986066
699.595151944467
699.579250337116
699.562990150344
699.546367260606
699.529377431918
699.512016313189
699.494279435442
699.476162208928
699.457659920118
699.438767728577
699.419480663701
699.399793621323
699.379701360173
699.359198498194
699.338279508693
699.316938716331
699.295170292939
699.272968253149
699.250326449836
699.227238569352
699.203698126553
699.179698459595
699.155232724497
699.130293889453
699.104874728883
699.078967817202
699.052565522294
699.025659998686
698.998243180379
698.970306773352
698.941842247702
698.912840829357
698.883293491343
698.853190944681
698.822523629203
698.79128170405
698.75945503569
698.72703318205
698.694005382448
698.660360572568
698.626087397142
698.59117408571
698.555608201294
698.51937675446
698.482466336398
698.444863118056
698.406552830523
698.367520745643
698.327751654916
698.28722984708
698.245939084348
698.203862577257
698.160982957993
698.117282252108
698.072741848499
698.027342467514
697.981064127048
697.933886106466
697.885786908196
697.836744216782
697.786734855222
697.735734738352
697.683718823027
697.630661054848
697.576534311132
697.521310339791
697.464959693791
697.407451660763
697.348754187358
697.288833797856
697.227655506489
697.165182722901
697.101377150071
697.036198673986
696.969605244226
696.901552744572
696.831994852598
696.760882887119
696.688165642197
696.613789206272
696.537696764792
696.459828384483
696.380120777206
696.298507041027
696.214916375808
696.129273770292
696.041499657161
695.951509532109
695.859213532325
695.764515969144
695.667314808781
695.567501094154
695.464958299723
695.359561609616
695.251177108756
695.139660872916
695.024857945333
694.906601173694
694.784709910277
694.658988505456
694.529224618169
694.395187277996
694.256624699599
694.113261543032
693.964796238391
693.810897788956
693.651199796751
693.48529849356
693.312742332927
693.133037439154
692.945613557174
692.749866736309
692.544995009946
692.329947267884
692.103633697682
691.864864637229
691.612288141447
691.344308408847
691.058980934737
690.754072408924
690.426882528977
690.074468312099
689.69392017798
689.281520294219
688.832938066553
688.344057686171
687.810114769934
687.225577371567
686.585385345313
685.88395960607
685.115090268724
684.273690624647
683.354223864572
682.351009331715
681.259900166443
680.076807517217
678.797756793845
677.420266309358
675.942416329028
674.362651630212
672.679552877855
670.893429045437
669.00448229891
667.013227279292
664.919901361249
662.724923101509
660.428708341299
658.031980204915
655.534072005001
652.934279213082
650.231697528151
647.426195859976
644.518033323045
641.507914383292
638.39677160141
635.185597341953
631.87537326629
628.467022183505
624.961388930701
621.359224112296
617.6615422387
613.869400896061
609.983779091904
606.005556369997
601.935545502737
597.774471203563
593.523002530831
589.181729925312
584.7511982191
580.231882390904
575.624220011883
570.928585793987
566.145622724693
561.27593427331
556.320107732567
551.278667897211
546.152129983794
540.940951541753
535.645585948918
530.266432730038
524.803891639547
519.258311578307
513.630045300388
507.919397078836
502.126678057444
496.25215276053
490.296095072928
484.258733628539
478.140362578556
471.941391135592
465.662238338275
459.303281898895
452.86491149956
446.347476534334
439.751340225489
433.076826335363
426.324274006441
419.493983568163
412.586271944243
405.60141772394
398.539717106004
391.401428351045
384.186828259387
376.89615603862
369.529670286665
362.087592197622
354.570163178635
346.977587306707
339.310089633377
331.567857912921
323.751101557706
315.859992685012
307.894825626875
299.85589311833
291.74351225164
283.557960408433
275.299540120084
266.96851430201
258.565171726469
250.089761564933
241.542559538653
232.92380175184
224.233751548386
215.472632667391
206.640696710153
197.738155724282
188.765250165546
179.722181007188
170.609178107974
161.426431917402
152.17416224484
142.852549676158
133.4618047233
124.002098606113
114.473633023797
104.876570053366
95.2111031343476
85.4773851449217
75.6756024003167
65.8058988642812
55.8684541889097
45.8634040947425
35.7909223546195
25.651137186897
15.4442178715654
5.17029018236115
)
;

boundaryField
{
    electrode
    {
        type            fixedValue;
        value           uniform 700;
    }
    ground
    {
        type            fixedValue;
        value           uniform 0;
    }
    otherfaces
    {
        type            empty;
    }
}


// ************************************************************************* //
