/*--------------------------------*- C++ -*----------------------------------*\
| =========                 |                                                 |
| \\      /  F ield         | foam-extend: Open Source CFD                    |
|  \\    /   O peration     | Version:     4.0                                |
|   \\  /    A nd           | Web:         http://www.foam-extend.org         |
|    \\/     M anipulation  |                                                 |
\*---------------------------------------------------------------------------*/
FoamFile
{
    version     2.0;
    format      ascii;
    class       volScalarField;
    location    "7.6e-06";
    object      PhiMean;
}
// * * * * * * * * * * * * * * * * * * * * * * * * * * * * * * * * * * * * * //

dimensions      [0 0 0 1 0 0 0];

internalField   nonuniform List<scalar> 
300
(
699.990292709458
699.989271828672
699.98797690395
699.986433071702
699.984649490238
699.982619699877
699.980343442539
699.977819745564
699.975047618886
699.972026306749
699.968755114386
699.965233440711
699.961460753196
699.957436579495
699.953160499793
699.948632138457
699.943851157415
699.938817251519
699.933530142941
699.927989575687
699.92219531179
699.916147127166
699.909844807892
699.903288146285
699.896476936682
699.889410979224
699.882090071493
699.874514004789
699.866682562946
699.858595515767
699.850252613872
699.841653597085
699.832798187976
699.823686080045
699.814316934649
699.804690377394
699.794805993954
699.784663327807
699.774261875993
699.763601084209
699.752680344178
699.741498991206
699.730056298214
699.718351472346
699.706383651415
699.694151900448
699.681655208014
699.668892483464
699.65586255396
699.642564164109
699.628995974477
699.615156567965
699.601044441635
699.586658006321
699.571995572876
699.557055345964
699.541835413897
699.526333743533
699.51054817556
699.494476419062
699.478116046982
699.461464491036
699.444519036063
699.427276814055
699.409734814054
699.39188987574
699.373738668656
699.355277686995
699.336503244095
699.317411466409
699.297998286979
699.278259438348
699.2581904548
699.237786668444
699.217043191471
699.195954915533
699.174516514503
699.152722431897
699.130566871391
699.108043773899
699.08514683165
699.061869457011
699.038204770846
699.014145594873
698.9896844381
698.96481349828
698.939524646436
698.913809405606
698.887658937441
698.861064036214
698.834015111326
698.806502171708
698.778514838687
698.750042300908
698.721073294948
698.691596089381
698.661598466871
698.63106770907
698.599990574293
698.568353279851
698.5361414813
698.503340245292
698.469934021063
698.435906635388
698.401241246578
698.365920317164
698.329925589713
698.293238043565
698.255837873088
698.217704442234
698.178816240169
698.139150841655
698.098684860306
698.057393907704
698.015252544311
697.972234217683
697.928311221839
697.883454641403
697.837634270056
697.790818535079
697.742974420789
697.694067403983
697.644061355136
697.592918465795
697.54059913434
697.487061839517
697.432263019413
697.376156955687
697.318695616883
697.259828507766
697.199502502876
697.137661668214
697.074247059985
697.009196502599
696.942444355375
696.873921284534
696.80355395182
696.73126468946
696.656971134546
696.580585856405
696.50201591359
696.421162370416
696.33791976355
696.252175500581
696.163809208613
696.072692009697
695.978685652878
695.881641563621
695.78139975236
695.677787584676
695.570618438548
695.459690093311
695.344782908814
695.225657770929
695.102053662363
694.973684835287
694.840237693631
694.701366821701
694.556690940956
694.405786867524
694.24818466639
694.083355676287
693.910690523975
693.729483115462
693.538920197115
693.338052957885
693.125766710114
692.900772047512
692.661583183635
692.40645657357
692.133336634717
691.839817152173
691.523134035826
691.180077195237
690.806993084668
690.399876333812
689.954209027786
689.464926181343
688.926726911045
688.333970935434
687.680662513288
686.960840804528
686.168657191372
685.298259272686
684.344420409639
683.302419615647
682.168012786952
680.937839931714
679.609409033453
678.180745849015
676.650607215279
675.018493099996
673.284404577841
671.448711729395
669.511997754273
667.474960868704
665.338184880251
663.102069761606
660.766982302234
658.333231815854
655.801142572853
653.170829234052
650.442261121607
647.615621809937
644.691323761067
641.67004752294
638.552629368712
635.339991748032
632.0330658265
628.632731181573
625.139819301784
621.55507977013
617.879272177446
614.11323165024
610.257883048701
606.314076682322
602.28261272013
598.164209448748
593.95954611827
589.669228571382
585.293833411924
580.833871005924
576.289831164789
571.662144047053
566.951227641671
562.157522214686
557.281639119705
552.3241322438
547.285553514007
542.166398369524
536.967165871616
531.688301141211
526.330258490515
520.893442111449
515.378269925639
509.785109918833
504.114347227249
498.36631769937
492.541377625155
486.639834464047
480.662019275795
474.608214914207
468.478743183668
462.274000217772
455.994441933062
449.640470722438
443.212518447369
436.710963057154
430.136214490821
423.488628140502
416.768593854769
409.976446034042
403.112556016214
396.177238513867
389.170847710319
382.093679763807
374.946072842141
367.728305561638
360.440701043299
353.08352127178
345.657075142812
338.161608833547
330.597417778146
322.964732957355
315.263837045638
307.494949162678
299.658362050564
291.754336185444
283.783222018622
275.745318769777
267.640992162569
259.470527587905
251.234279226331
242.932518379952
234.565588383986
226.13374700998
217.637327392852
209.076574322845
200.451811322819
191.763270723897
183.011266981353
174.19602041245
165.317836933966
156.376925270165
147.373583399136
138.308008969957
129.180492587808
119.991221185918
110.740478448777
101.428440920635
92.0553857576491
82.6214796178088
73.1269938520789
63.5720856464219
53.9570208742169
44.2819478989735
34.5471280157258
24.752701307233
14.898925659047
4.98593389744019
)
;

boundaryField
{
    electrode
    {
        type            calculated;
        value           uniform 699.999999999581;
    }
    ground
    {
        type            calculated;
        value           uniform 0;
    }
    otherfaces
    {
        type            empty;
    }
}


// ************************************************************************* //
