/*--------------------------------*- C++ -*----------------------------------*\
| =========                 |                                                 |
| \\      /  F ield         | foam-extend: Open Source CFD                    |
|  \\    /   O peration     | Version:     4.0                                |
|   \\  /    A nd           | Web:         http://www.foam-extend.org         |
|    \\/     M anipulation  |                                                 |
\*---------------------------------------------------------------------------*/
FoamFile
{
    version     2.0;
    format      ascii;
    class       volScalarField;
    location    "7.6e-06";
    object      Sy_electron;
}
// * * * * * * * * * * * * * * * * * * * * * * * * * * * * * * * * * * * * * //

dimensions      [1 -3 -1 0 0 0 0];

internalField   nonuniform List<scalar> 
300
(
3.2309053376091e-09
3.23162360060034e-09
3.23188869666668e-09
3.23180470143799e-09
3.23173744111206e-09
3.23161532316988e-09
3.23144708542753e-09
3.23123760044e-09
3.2309845200048e-09
3.23068797430221e-09
3.23034767221598e-09
3.22996322686457e-09
3.22953429337781e-09
3.22906049598656e-09
3.22854144352412e-09
3.22797672988231e-09
3.22736593243677e-09
3.22670861242035e-09
3.22600431473597e-09
3.22525256780681e-09
3.22445288346127e-09
3.22360475679846e-09
3.22270766604836e-09
3.22176107243471e-09
3.22076442000607e-09
3.21971713556816e-09
3.21861862846641e-09
3.21746829045221e-09
3.21626549555362e-09
3.21500959988776e-09
3.21369994148686e-09
3.21233584020614e-09
3.21091659753193e-09
3.20944149638332e-09
3.20790980096345e-09
3.20632075658433e-09
3.20467358948148e-09
3.20296750666411e-09
3.20120169571521e-09
3.19937532460144e-09
3.19748754149205e-09
3.19553747457052e-09
3.19352423183644e-09
3.19144690090322e-09
3.18930454880453e-09
3.18709622178156e-09
3.18482094506948e-09
3.18247772269742e-09
3.18006553724358e-09
3.17758334964145e-09
3.17503009892773e-09
3.17240470205557e-09
3.16970605359996e-09
3.16693302557576e-09
3.16408446713236e-09
3.16115920432491e-09
3.15815603981705e-09
3.15507375263445e-09
3.15191109787527e-09
3.14866680643353e-09
3.14533958470663e-09
3.14192811427383e-09
3.1384310515906e-09
3.13484702763765e-09
3.13117464764022e-09
3.12741249073057e-09
3.12355910950302e-09
3.1196130296749e-09
3.11557274970384e-09
3.11143674037828e-09
3.1072034443902e-09
3.10287127588975e-09
3.0984386200528e-09
3.09390383259666e-09
3.08926523924133e-09
3.08452113524068e-09
3.07966978482205e-09
3.07470942059614e-09
3.06963824300098e-09
3.06445441957297e-09
3.05915608446638e-09
3.05374133759627e-09
3.04820824394404e-09
3.0425548328846e-09
3.0367790974524e-09
3.03087899343232e-09
3.0248524377623e-09
3.01869730712556e-09
3.01241144031834e-09
3.00599264424941e-09
2.99943868352221e-09
2.99274723083383e-09
2.98591585716671e-09
2.97894228258056e-09
2.97182478050123e-09
2.96506057591475e-09
2.95960068167257e-09
2.9540107489945e-09
2.94828759989186e-09
2.9424282912981e-09
2.93642987538512e-09
2.93028935874832e-09
2.92400368817305e-09
2.91756974461273e-09
2.91098433928451e-09
2.90424421044648e-09
2.89734602016483e-09
2.89028635084508e-09
2.88306170176153e-09
2.87566848523948e-09
2.86810302269166e-09
2.86036154043338e-09
2.85244016522386e-09
2.84433491959077e-09
2.83604171684264e-09
2.82755635576009e-09
2.81887451502858e-09
2.80999174734411e-09
2.80090347300799e-09
2.79160497324549e-09
2.78209138304018e-09
2.7723576836091e-09
2.76239869420807e-09
2.75220906359439e-09
2.74178326077019e-09
2.73111556513099e-09
2.72020005594102e-09
2.70903060119182e-09
2.69760084549151e-09
2.68590419722708e-09
2.6739338147466e-09
2.66168259160396e-09
2.64914314063765e-09
2.63630777689167e-09
2.62316849929064e-09
2.609716970965e-09
2.59594449791518e-09
2.58184200608878e-09
2.56740001671685e-09
2.55260861966972e-09
2.53745744459799e-09
2.5219356298193e-09
2.50603178862407e-09
2.48973397288588e-09
2.47302963343603e-09
2.45590557763745e-09
2.43834792252006e-09
2.42034204504635e-09
2.40187252533743e-09
2.38292309456147e-09
2.36347655744005e-09
2.34351473039999e-09
2.323018383761e-09
2.30196712720863e-09
2.28033926791178e-09
2.25811195219074e-09
2.23526096098759e-09
2.21175957347173e-09
2.18758213222264e-09
2.16397410297651e-09
2.14025797423842e-09
2.11579006374725e-09
2.0905503922317e-09
2.06450479897365e-09
2.0377082114784e-09
2.01046237365729e-09
1.98266197294862e-09
1.95369664372309e-09
1.92331845272365e-09
1.89162681365627e-09
1.85875455837372e-09
1.82465242874378e-09
1.78906912402896e-09
1.751625443042e-09
1.71128586357226e-09
1.66764697999615e-09
1.62158892428338e-09
1.56866900188408e-09
1.51124643634867e-09
1.45039892587155e-09
1.38656861451097e-09
1.31911140765566e-09
1.24955194505326e-09
1.17951164485742e-09
1.10805091787876e-09
1.03427445006281e-09
9.68201124045142e-10
9.13171233360709e-10
8.65653008695535e-10
8.31633724761329e-10
8.15889409400437e-10
8.23981047081654e-10
8.53039361731184e-10
9.1896770781577e-10
1.02739566731977e-09
1.21019509401385e-09
1.50415134342076e-09
1.99428629135413e-09
2.86283207696823e-09
4.15288442496907e-09
5.42994136822878e-09
6.67287399099778e-09
7.506424128359e-09
7.13223337614108e-09
6.04584688554939e-09
4.69210151021743e-09
3.53259255228276e-09
2.69190633293181e-09
2.13903354262115e-09
1.78774380189751e-09
1.57171881330138e-09
1.44571738901739e-09
1.36473668657907e-09
1.3220209244475e-09
1.30079110310067e-09
1.2896295295744e-09
1.28768727158562e-09
1.29085746923235e-09
1.29644981033552e-09
1.30293795557049e-09
1.30908329157092e-09
1.31270307728452e-09
1.31420422797498e-09
1.31383059751084e-09
1.3113773969604e-09
1.30674955321932e-09
1.29993672148998e-09
1.29098711361338e-09
1.27999048228711e-09
1.26706604230732e-09
1.25235338723013e-09
1.23600541924501e-09
1.21818277985051e-09
1.19904943804521e-09
1.17876920039732e-09
1.15750293918074e-09
1.13540647936732e-09
1.11262851661593e-09
1.08930986264609e-09
1.0655742140251e-09
1.04152953685292e-09
1.01728569823119e-09
9.92952336497683e-10
9.68630413476168e-10
9.44411505791171e-10
9.20376990141696e-10
8.96598439826307e-10
8.73138076363524e-10
8.50049334210611e-10
8.27377456953694e-10
8.05160113011109e-10
7.83428023200868e-10
7.62205570441288e-10
7.41511527003031e-10
7.21297760313559e-10
7.01651537949004e-10
6.82589752689144e-10
6.64107617266449e-10
6.46203205121151e-10
6.28873552780938e-10
6.12072634931875e-10
5.9576711199043e-10
5.7998630683981e-10
5.64718757056761e-10
5.4995202215728e-10
5.35673106618906e-10
5.21868872125057e-10
5.08526015645973e-10
4.95630945386342e-10
4.83169588023889e-10
4.71127357813592e-10
4.59483865865547e-10
4.48210076430007e-10
4.37284271203884e-10
4.26695198532527e-10
4.16432689776196e-10
4.06487679162463e-10
3.96851702325946e-10
3.8751696624081e-10
3.78476406823491e-10
3.69723728458844e-10
3.612535503957e-10
3.53060296397303e-10
3.44646650255139e-10
3.36304713799443e-10
3.28158882262245e-10
3.20207629665161e-10
3.12465986475735e-10
3.0495053359845e-10
2.97491052517178e-10
2.89129811921351e-10
2.80935565404589e-10
2.72965565014961e-10
2.64364711236761e-10
2.54694498906073e-10
2.45344326405727e-10
2.33015966801794e-10
2.19507591712242e-10
2.02346555445079e-10
1.77679371394064e-10
)
;

boundaryField
{
    electrode
    {
        type            zeroGradient;
    }
    ground
    {
        type            zeroGradient;
    }
    otherfaces
    {
        type            empty;
    }
}


// ************************************************************************* //
