/*--------------------------------*- C++ -*----------------------------------*\
| =========                 |                                                 |
| \\      /  F ield         | foam-extend: Open Source CFD                    |
|  \\    /   O peration     | Version:     4.0                                |
|   \\  /    A nd           | Web:         http://www.foam-extend.org         |
|    \\/     M anipulation  |                                                 |
\*---------------------------------------------------------------------------*/
FoamFile
{
    version     2.0;
    format      ascii;
    class       volScalarField;
    location    "7.6e-06";
    object      TeMean;
}
// * * * * * * * * * * * * * * * * * * * * * * * * * * * * * * * * * * * * * //

dimensions      [0 0 0 1 0 0 0];

internalField   nonuniform List<scalar> 
300
(
36035.543919514
36035.8366918824
36035.9720663846
36035.9857835471
36036.024606495
36036.0671596721
36036.1164002863
36036.1749795893
36036.2428109171
36036.3204711496
36036.4084379753
36036.5071570554
36036.6170721605
36036.7386001353
36036.8721462112
36037.0181028229
36037.1768484015
36037.3487514207
36037.5341700153
36037.7334518283
36037.9469363609
36038.1749532156
36038.4178241159
36038.6758623097
36038.9493722396
36039.2386588185
36039.5440213002
36039.8657510689
36040.2041388912
36040.5594651535
36040.9319987965
36041.3220179793
36041.7298080475
36042.1556450444
36042.5998004637
36043.0625378962
36043.5441198175
36044.0448150749
36044.564891589
36045.104612596
36045.664238349
36046.244035705
36046.8442713087
36047.4652092772
36048.1071142141
36048.7702510354
36049.4548846414
36050.1612791944
36050.889695475
36051.6403908652
36052.4136195943
36053.2096451809
36054.0287474948
36054.8712073994
36055.7373108933
36056.6273542174
36057.5416306277
36058.4804321683
36059.4440606783
36060.4328225935
36061.4470277387
36062.4869970792
36063.5530424555
36064.645475317
36065.764636577
36066.9108842517
36068.0845779852
36069.2860808812
36070.5157627994
36071.7740046493
36073.061191787
36074.3777068441
36075.7239517839
36077.1003449505
36078.5073032781
36079.9452446265
36081.4146114963
36082.9158776348
36084.4495160163
36086.0160041799
36087.6158534293
36089.2495920275
36090.9177471077
36092.6208513164
36094.3594514137
36096.1341277333
36097.9454907645
36099.7941582723
36101.6807577563
36103.6059433493
36105.5703776966
36107.5747422719
36109.6197788577
36111.7062385487
36113.834884306
36116.0065188707
36118.2219627822
36120.4820670866
36122.7877094392
36125.1398008453
36127.5392987909
36129.9871699756
36132.4844132335
36135.0320927325
36137.6313064217
36140.2831863554
36142.9889025909
36145.7496712312
36148.5667658385
36151.441506908
36154.3752668468
36157.3694704588
36160.4255924548
36163.5451851976
36166.7298556284
36169.9812656691
36173.3011438153
36176.6913111784
36180.1536858764
36183.690235665
36187.3030105468
36190.9941642874
36194.7659444617
36198.6207180328
36202.5609833327
36206.5893426446
36210.7085031763
36214.9213227054
36219.2308154331
36223.6401288811
36228.1525705392
36232.7716393427
36237.5010333375
36242.3446167975
36247.3064624903
36252.390934907
36257.6026703097
36262.9465702991
36268.4278376481
36274.0520122151
36279.8250005005
36285.7531000196
36291.8430337006
36298.1019838719
36304.5376738011
36311.1584486222
36317.9733162592
36324.9920235729
36332.2250795011
36339.6838828101
36347.3809120582
36355.3297769797
36363.5453728043
36372.0441477437
36380.8441784151
36389.9655222121
36399.4304355108
36409.2640984601
36419.4951079001
36430.1577538345
36441.3012207965
36452.9886793538
36465.2801575565
36478.2361770495
36491.9360681872
36506.4602089926
36521.872974451
36538.2642168713
36555.7721828746
36574.5404219602
36594.6704083987
36616.2537434122
36639.4113529438
36664.176997977
36690.5906326172
36718.9255992339
36749.3845476198
36782.0973887587
36817.7270404679
36857.3526085954
36902.400898373
36955.5825255602
37021.2047216543
37105.4367686375
37217.976770233
37373.2304966675
37591.8255299006
37904.49921179
38357.0255489574
39017.8964329697
39992.1686164207
41445.1133159681
43642.5839061328
47091.5049760228
52307.0163764926
59654.0407631131
70326.7248434191
84931.2745790143
104594.421045422
129667.228942266
160249.60746781
196008.015728667
236020.387774256
279504.902302745
326000.179715224
374934.251812816
425286.73419052
475409.43964196
523472.622781137
568034.723816677
608297.066319107
644079.485167335
675603.845074776
703311.760851823
727703.805227585
749255.402615315
768429.828980775
785629.835661345
801180.408359294
815346.816964739
828339.691193048
840332.762115685
851481.054607628
861912.301482276
871731.294252718
881023.465741219
889859.342397833
898296.85215834
906383.397720996
914157.606201718
921650.6739456
928887.464578494
935887.400786799
942665.13477871
949231.192344246
955592.532917219
961752.928731996
967713.34956424
973472.292308458
979026.230988656
984369.053805768
989492.55982397
994387.562654357
999043.646764852
1003449.21082567
1007591.53423618
1011456.68913846
1015029.84899322
1018295.50593963
1021237.25470674
1023838.45821659
1026082.12168524
1027950.54710408
1029425.64103032
1030488.66621267
1031120.64238693
1031296.96284527
1031008.79642383
1030235.19374279
1028954.04541674
1027145.20853784
1024788.44315293
1021863.43462847
1018349.65127317
1014226.30194136
1009472.61664157
1004067.20255606
997988.144233381
991213.748661206
983721.790604515
975489.587032275
966493.092801975
956707.694026378
946108.686892356
934669.626117295
922362.520719771
909157.908722875
895024.677789025
879929.894413944
863838.531112319
846713.317767104
828514.555996894
809203.149038172
788735.614684304
767057.980906135
744115.059723994
719845.633049165
694174.538120995
667025.35740698
638312.358425963
607927.36328907
575747.141888138
541635.551391633
505409.450032002
466846.901104589
425668.853366057
381483.183377662
333748.356644131
281674.361565808
224219.805985231
)
;

boundaryField
{
    electrode
    {
        type            calculated;
        value           uniform 36035.5439195156;
    }
    ground
    {
        type            calculated;
        value           uniform 191637.998286702;
    }
    otherfaces
    {
        type            empty;
    }
}


// ************************************************************************* //
