/*--------------------------------*- C++ -*----------------------------------*\
| =========                 |                                                 |
| \\      /  F ield         | foam-extend: Open Source CFD                    |
|  \\    /   O peration     | Version:     4.0                                |
|   \\  /    A nd           | Web:         http://www.foam-extend.org         |
|    \\/     M anipulation  |                                                 |
\*---------------------------------------------------------------------------*/
FoamFile
{
    version     2.0;
    format      ascii;
    class       volScalarField;
    location    "5.4e-06";
    object      Arm;
}
// * * * * * * * * * * * * * * * * * * * * * * * * * * * * * * * * * * * * * //

dimensions      [0 0 0 1 0 0 0];

internalField   nonuniform List<scalar> 
300
(
3.57413237916296e+15
3.57600877468422e+15
3.57795722540764e+15
3.57926326825072e+15
3.5800795113618e+15
3.58045805396659e+15
3.58044310114842e+15
3.58006609347244e+15
3.57935268999247e+15
3.57832487403236e+15
3.57699842089273e+15
3.57538741658191e+15
3.57350391445841e+15
3.57135851720833e+15
3.56896068192947e+15
3.56631895282244e+15
3.56343815471044e+15
3.56032687347633e+15
3.55699345025825e+15
3.55344436485539e+15
3.54968581872569e+15
3.54572373354869e+15
3.54156379934518e+15
3.53721146015377e+15
3.53265604976744e+15
3.5279152969563e+15
3.52299290763162e+15
3.51789089986636e+15
3.51262286212608e+15
3.50719367357604e+15
3.50158958423038e+15
3.49582196475246e+15
3.48990891785575e+15
3.48385582917508e+15
3.47766778496762e+15
3.47134958588694e+15
3.46490140803064e+15
3.45832976644384e+15
3.45164172931078e+15
3.44484083275765e+15
3.43793058080112e+15
3.43091624902243e+15
3.42380171856873e+15
3.41659068101384e+15
3.40928663653835e+15
3.40189284843036e+15
3.39441026188812e+15
3.38684032324916e+15
3.37917527216762e+15
3.37141369514264e+15
3.36354299596638e+15
3.35557567151013e+15
3.34750633631619e+15
3.3393527031907e+15
3.33112290891976e+15
3.32283332035853e+15
3.31448724086826e+15
3.30608758660248e+15
3.29763692926923e+15
3.28913568798118e+15
3.28058817701945e+15
3.27199650690663e+15
3.26335733097117e+15
3.25465269280583e+15
3.24588657062437e+15
3.23708454227234e+15
3.22824870525883e+15
3.21938089932361e+15
3.21048271030239e+15
3.20155549739244e+15
3.19259841435008e+15
3.18360431196664e+15
3.17457165390938e+15
3.16550788119182e+15
3.15639945698201e+15
3.14724743854669e+15
3.13805816691316e+15
3.12882751736414e+15
3.11957545821792e+15
3.11027144666892e+15
3.10095005483788e+15
3.09161341307815e+15
3.08225843885655e+15
3.07288738937819e+15
3.063485450944e+15
3.05406036268065e+15
3.04462382792839e+15
3.03517616688712e+15
3.02570547364224e+15
3.01621949765919e+15
3.00671222046604e+15
2.99713860710976e+15
2.98755390846358e+15
2.97795977033853e+15
2.96835622190786e+15
2.95874328926889e+15
2.9491207541215e+15
2.93948818240814e+15
2.92983464098632e+15
2.92016006815417e+15
2.91047072550964e+15
2.90076788900432e+15
2.89101980623722e+15
2.88125569080715e+15
2.87146632853703e+15
2.86164237758896e+15
2.8517988533137e+15
2.84191615109746e+15
2.83200469066595e+15
2.82206992339408e+15
2.81210998009809e+15
2.80212257360746e+15
2.79209996483133e+15
2.78203994079982e+15
2.7719402788576e+15
2.76178332868102e+15
2.75155020954553e+15
2.74126571246412e+15
2.73093071275513e+15
2.72053712945778e+15
2.71005858158324e+15
2.69950802084519e+15
2.68885646927971e+15
2.67811431613813e+15
2.66729299048051e+15
2.65639028993676e+15
2.6453781123916e+15
2.63427388325964e+15
2.62306677967668e+15
2.6117547576482e+15
2.60032217724626e+15
2.58876516680534e+15
2.57707872579446e+15
2.56523676861448e+15
2.55320284000065e+15
2.54099578582742e+15
2.52861952756842e+15
2.51604902672666e+15
2.50326542789304e+15
2.4902778451072e+15
2.47707029472418e+15
2.46362611963593e+15
2.44991317680127e+15
2.43589936853908e+15
2.42156008696928e+15
2.40691512158219e+15
2.39194960951164e+15
2.37664718516103e+15
2.36097731065542e+15
2.34489110666792e+15
2.32840098953866e+15
2.31148221102102e+15
2.29407251663614e+15
2.27617070804804e+15
2.25775852690748e+15
2.23878624906762e+15
2.21921062890851e+15
2.19903110654037e+15
2.1782285354158e+15
2.15675796010477e+15
2.13458377580508e+15
2.11169088542274e+15
2.08804104640665e+15
2.06364679194695e+15
2.03849512515908e+15
2.01253149251696e+15
1.98577670827486e+15
1.95827533602036e+15
1.93005634740382e+15
1.90116171352801e+15
1.8716600280677e+15
1.84158463066386e+15
1.81102790696348e+15
1.78016136081766e+15
1.7491789339024e+15
1.71825047878949e+15
1.6875551825409e+15
1.65729204762927e+15
1.62769985945595e+15
1.59893419872983e+15
1.57114934296135e+15
1.54449232925619e+15
1.51904452741459e+15
1.49492070959187e+15
1.47212074174752e+15
1.45055441712167e+15
1.4302615181929e+15
1.41119143231091e+15
1.39325806831236e+15
1.3763802080415e+15
1.36046220086662e+15
1.34554990945467e+15
1.33211497381648e+15
1.32516710427233e+15
1.35080227801368e+15
1.41582563749253e+15
1.49298235188898e+15
1.55093068354251e+15
1.59000767500685e+15
1.6150113042396e+15
1.62549379201702e+15
1.61591046166102e+15
1.59004743829431e+15
1.55589254489459e+15
1.52171526947703e+15
1.49274497764059e+15
1.47019049744917e+15
1.45388263689822e+15
1.44258433447543e+15
1.43477879188318e+15
1.42909469745672e+15
1.42449732840804e+15
1.42098105245733e+15
1.41771377613284e+15
1.41439748108177e+15
1.41119489275796e+15
1.40788569627315e+15
1.40436917819405e+15
1.40055073708888e+15
1.39637977518329e+15
1.3918382246022e+15
1.3868073692401e+15
1.38119377701314e+15
1.375047958835e+15
1.36846129844111e+15
1.36159624106181e+15
1.35449638077664e+15
1.34718441696868e+15
1.33969832603075e+15
1.3320814726816e+15
1.32435389687329e+15
1.31655052103676e+15
1.30870997805076e+15
1.30085284125245e+15
1.29300173427431e+15
1.28519439397205e+15
1.27743402451483e+15
1.26975668643181e+15
1.26216620219022e+15
1.25468620638744e+15
1.24732842412923e+15
1.24009467303336e+15
1.23300752980731e+15
1.22605916677363e+15
1.2192608357108e+15
1.21263190884202e+15
1.20616136848827e+15
1.19985865668882e+15
1.19372716947275e+15
1.18775913277273e+15
1.18196133986919e+15
1.17632914903596e+15
1.1708588637671e+15
1.16555455635436e+15
1.16040833182209e+15
1.1554181737057e+15
1.15058247901742e+15
1.14588571886944e+15
1.14133633595123e+15
1.13692641046014e+15
1.13266135693273e+15
1.12852820491766e+15
1.12452938177326e+15
1.12065623438033e+15
1.11690609681955e+15
1.11327481637366e+15
1.10975436227551e+15
1.1063411946108e+15
1.10302431304018e+15
1.09980919970113e+15
1.0966876964337e+15
1.0936649521642e+15
1.09072789817684e+15
1.08788224347686e+15
1.08511586065234e+15
1.0824272275391e+15
1.07981452513519e+15
1.0772776461172e+15
1.07481843568476e+15
1.0724303751518e+15
1.07011213368958e+15
1.06782322112058e+15
1.06542802461235e+15
1.06303856361184e+15
1.06070737296312e+15
1.05842476790106e+15
1.05619892026965e+15
1.05403148958352e+15
1.0519121711024e+15
1.04951239145016e+15
1.04707152004938e+15
1.04469105405594e+15
1.0423745259334e+15
1.03963830746641e+15
1.036886838342e+15
1.03400010403948e+15
1.03070750716236e+15
1.02703891624154e+15
1.02282521979826e+15
1.01771344031379e+15
)
;

boundaryField
{
    electrode
    {
        type            zeroGradient;
    }
    ground
    {
        type            zeroGradient;
    }
    otherfaces
    {
        type            empty;
    }
}


// ************************************************************************* //
