/*--------------------------------*- C++ -*----------------------------------*\
| =========                 |                                                 |
| \\      /  F ield         | foam-extend: Open Source CFD                    |
|  \\    /   O peration     | Version:     4.0                                |
|   \\  /    A nd           | Web:         http://www.foam-extend.org         |
|    \\/     M anipulation  |                                                 |
\*---------------------------------------------------------------------------*/
FoamFile
{
    version     2.0;
    format      ascii;
    class       volScalarField;
    location    "5.4e-06";
    object      Arp1;
}
// * * * * * * * * * * * * * * * * * * * * * * * * * * * * * * * * * * * * * //

dimensions      [0 0 0 1 0 0 0];

internalField   nonuniform List<scalar> 
300
(
6.18872780834835e+16
6.1929483184254e+16
6.19038939084881e+16
6.18990699313837e+16
6.18898581090336e+16
6.18767846297995e+16
6.18613942541762e+16
6.18430348758864e+16
6.18218036136264e+16
6.17977140412309e+16
6.1770750151425e+16
6.17409135957805e+16
6.17082020272599e+16
6.16726129345034e+16
6.16341440175975e+16
6.15927927319525e+16
6.15485564123884e+16
6.15014322581577e+16
6.14514173205291e+16
6.13985085002412e+16
6.13427025403636e+16
6.12839960203402e+16
6.12223853493992e+16
6.11578667594668e+16
6.1090436298495e+16
6.10200898234664e+16
6.09468229926017e+16
6.08706312584456e+16
6.0791509860342e+16
6.07094538165778e+16
6.06244579168641e+16
6.05365167150379e+16
6.04456245209189e+16
6.03517753927453e+16
6.02549631300845e+16
6.01551812657214e+16
6.00524230582149e+16
5.99466814855355e+16
5.98379492365917e+16
5.97262187052915e+16
5.96114819839627e+16
5.94937308568419e+16
5.93729567939791e+16
5.92491509393431e+16
5.91223040993839e+16
5.89924067515243e+16
5.88594491018495e+16
5.87234211250432e+16
5.85843123860093e+16
5.84421115116424e+16
5.82968057017507e+16
5.81483821424704e+16
5.79968331567214e+16
5.78421595047897e+16
5.76843361362692e+16
5.75233417723885e+16
5.73591626438439e+16
5.7191783171807e+16
5.70211872064532e+16
5.6847358230915e+16
5.66702794086247e+16
5.64899336000152e+16
5.63063033668594e+16
5.61193709749451e+16
5.5929118396573e+16
5.57355273132283e+16
5.55385791200711e+16
5.53382549312831e+16
5.51345355859564e+16
5.49274016557955e+16
5.47168334538064e+16
5.4502811043399e+16
5.42853142493497e+16
5.40643226696401e+16
5.38398156876937e+16
5.36117724865513e+16
5.33801720636108e+16
5.31449932460848e+16
5.29062147078092e+16
5.26638149871424e+16
5.24177725051605e+16
5.21680655851059e+16
5.19146724730287e+16
5.16575713584978e+16
5.1396740396583e+16
5.11321577307976e+16
5.08638015161186e+16
5.0591649943157e+16
5.03156812630687e+16
5.00358738125018e+16
4.97522060395993e+16
4.94646565304877e+16
4.91732040359126e+16
4.88778274983154e+16
4.85785060798138e+16
4.82752191896424e+16
4.79679465123919e+16
4.76566680364952e+16
4.73413640823198e+16
4.70220153307736e+16
4.66986028519923e+16
4.6371108133564e+16
4.60395131087882e+16
4.57038001851968e+16
4.53639522722162e+16
4.50199528087628e+16
4.46717857908534e+16
4.43194357983045e+16
4.39628880210538e+16
4.36021282855056e+16
4.32371430796349e+16
4.28679195777464e+16
4.2494445664994e+16
4.21167099606594e+16
4.17347018409385e+16
4.13484114614272e+16
4.09578297783724e+16
4.05629485694219e+16
4.01637604540876e+16
3.97602589129692e+16
3.93524383069448e+16
3.89402938958155e+16
3.85238218563806e+16
3.81030193004983e+16
3.76778842934915e+16
3.72484158721327e+16
3.68146140630759e+16
3.63764799052877e+16
3.59340154639537e+16
3.54872238675141e+16
3.50361093110931e+16
3.45806771113087e+16
3.41209337152353e+16
3.36568867601372e+16
3.31885450698727e+16
3.2715918809001e+16
3.22390195111864e+16
3.17578596663282e+16
3.12724542045334e+16
3.07828194267251e+16
3.02889708687115e+16
2.97909288683625e+16
2.928872418442e+16
2.87823638970104e+16
2.82718530473597e+16
2.77573172499531e+16
2.72387446055422e+16
2.67161401721065e+16
2.61895466772674e+16
2.56590076616026e+16
2.5124573814484e+16
2.45862916760347e+16
2.40442433239669e+16
2.34984706869355e+16
2.29490977753698e+16
2.23962008506831e+16
2.1839843578346e+16
2.12804195278577e+16
2.07173892581388e+16
2.0152455688519e+16
1.95830907138174e+16
1.90137266633678e+16
1.84390668415057e+16
1.78647680359643e+16
1.73019071516703e+16
1.6736631750734e+16
1.61656211359544e+16
1.55957930671669e+16
1.50263998403978e+16
1.44673874841762e+16
1.39129341330053e+16
1.33713578515554e+16
1.28398894849222e+16
1.22985473190074e+16
1.17622708999226e+16
1.12720333287986e+16
1.07839837084115e+16
1.02738869423269e+16
9.8260551115938e+15
9.40244265743782e+15
8.93959462645789e+15
8.5591885000979e+15
8.18776960073949e+15
7.80635487145547e+15
7.48131267075183e+15
7.19354593451232e+15
6.86922606146405e+15
6.61857320784172e+15
6.39838984140592e+15
6.15137173527487e+15
5.93584681967785e+15
5.76610610609117e+15
5.61728623177498e+15
5.44478065207581e+15
5.30543563209582e+15
5.18925283654995e+15
5.10774717247829e+15
5.03993999785167e+15
4.98118068357793e+15
4.9464233348256e+15
4.95212294126059e+15
4.96813941272147e+15
5.00769885737063e+15
5.0074105520475e+15
4.99196157989465e+15
4.95569151433893e+15
4.90815905951023e+15
4.85861878610045e+15
4.8105921889191e+15
4.76523792510245e+15
4.72407716663364e+15
4.68700960311705e+15
4.64871731045267e+15
4.59636603401914e+15
4.54954781225485e+15
4.50571094150981e+15
4.46691403270875e+15
4.43049189927936e+15
4.39862651670596e+15
4.36857363909613e+15
4.34271752311955e+15
4.31817028892912e+15
4.29747153410472e+15
4.27763050427506e+15
4.25914329289224e+15
4.22783304884214e+15
4.20051106336755e+15
4.17288507798907e+15
4.14908071992718e+15
4.12464191021985e+15
4.10389532333411e+15
4.08219688932354e+15
4.06410106191851e+15
4.04477056663162e+15
4.02897429131934e+15
4.01168256735115e+15
3.99789832422457e+15
3.98239224908813e+15
3.97037876703658e+15
3.95646099360135e+15
3.9460561453322e+15
3.93301359041782e+15
3.9139355765675e+15
3.89293411658306e+15
3.87528441263771e+15
3.85555837656919e+15
3.83918281455096e+15
3.82059161009809e+15
3.80539494181385e+15
3.78786914088945e+15
3.77380457339237e+15
3.75728642624862e+15
3.74429418882609e+15
3.72872666862725e+15
3.71673653147091e+15
3.7020405848298e+15
3.69096135670338e+15
3.67705513497076e+15
3.66682258794405e+15
3.65365558673054e+15
3.64423256025735e+15
3.63177097341628e+15
3.6231375362326e+15
3.61135037770202e+15
3.60349022171976e+15
3.5923576806973e+15
3.57945907224976e+15
3.56268331103044e+15
3.54988436873876e+15
3.53377921509233e+15
3.52174040222649e+15
3.50626013125414e+15
3.4949342660915e+15
3.48004908512349e+15
3.46939868278586e+15
3.45508751751478e+15
3.44508830604558e+15
3.43133233256936e+15
3.42195558750151e+15
3.40872302469304e+15
3.39993701274133e+15
3.38718806732931e+15
3.3789638505203e+15
3.36666370339911e+15
3.3589612142421e+15
3.34707624787557e+15
3.33986727727094e+15
3.32837259430157e+15
3.32162686103676e+15
3.31049477914292e+15
3.30416935423892e+15
3.29334462555084e+15
3.28740123799692e+15
3.27685493793231e+15
3.27125843375789e+15
3.26094319494559e+15
3.25566977666862e+15
3.24553792916624e+15
3.24051975787721e+15
3.22801929299043e+15
)
;

boundaryField
{
    electrode
    {
        type            driftDiffusionPositiveIonDensity;
        seec            0;
        fieldName       Arp1;
        value           uniform 6.17082973258223e+16;
    }
    ground
    {
        type            driftDiffusionPositiveIonDensity;
        seec            0;
        fieldName       Arp1;
        value           uniform 3.22801929299043e+15;
    }
    otherfaces
    {
        type            empty;
    }
}


// ************************************************************************* //
