/*--------------------------------*- C++ -*----------------------------------*\
| =========                 |                                                 |
| \\      /  F ield         | foam-extend: Open Source CFD                    |
|  \\    /   O peration     | Version:     4.0                                |
|   \\  /    A nd           | Web:         http://www.foam-extend.org         |
|    \\/     M anipulation  |                                                 |
\*---------------------------------------------------------------------------*/
FoamFile
{
    version     2.0;
    format      ascii;
    class       volVectorField;
    location    "5.4e-06";
    object      E;
}
// * * * * * * * * * * * * * * * * * * * * * * * * * * * * * * * * * * * * * //

dimensions      [0 0 0 1 0 0 0];

internalField   nonuniform List<vector> 
300
(
(5.42653989660247 -0 -0)
(10.7195125317871 -0 -0)
(18.9447174739344 -0 -0)
(26.5355670561743 -0 -0)
(34.0778204904739 -0 -0)
(41.6861828930752 -0 -0)
(49.2860372972031 -0 -0)
(56.8988902785438 -0 -0)
(64.5252316744401 -0 -0)
(72.1651672294661 -0 -0)
(79.8206616553483 -0 -0)
(87.4930588604114 -0 -0)
(95.1837989177094 -0 -0)
(102.894367222382 -0 -0)
(110.626256642766 -0 -0)
(118.38098777084 -0 -0)
(126.160107231929 -0 -0)
(133.965189116904 -0 -0)
(141.797837080461 -0 -0)
(149.659685898248 -0 -0)
(157.552403219631 -0 -0)
(165.477691245476 -0 -0)
(173.437288406017 -0 -0)
(181.432971101127 -0 -0)
(189.466555353126 -0 -0)
(197.539898492967 -0 -0)
(205.654900825582 -0 -0)
(213.813507349283 -0 -0)
(222.017709367023 -0 -0)
(230.269546164233 -0 -0)
(238.571106694921 -0 -0)
(246.924531192799 -0 -0)
(255.33201284125 -0 -0)
(263.795799412852 -0 -0)
(272.318194906252 -0 -0)
(280.901561219878 -0 -0)
(289.548319712425 -0 -0)
(298.260952914736 -0 -0)
(307.0420061119 -0 -0)
(315.894089053557 -0 -0)
(324.819877611727 -0 -0)
(333.822115550254 -0 -0)
(342.903616035206 -0 -0)
(352.067262480924 -0 -0)
(361.316009037139 -0 -0)
(370.65288411024 -0 -0)
(380.081002362898 -0 -0)
(389.60357879873 -0 -0)
(399.223909147746 -0 -0)
(408.94527063426 -0 -0)
(418.770800032819 -0 -0)
(428.703685792549 -0 -0)
(438.748159715864 -0 -0)
(448.910552176874 -0 -0)
(459.197575131176 -0 -0)
(469.614241110824 -0 -0)
(480.164586574896 -0 -0)
(490.852597605278 -0 -0)
(501.682359034428 -0 -0)
(512.658068367638 -0 -0)
(523.784045307392 -0 -0)
(535.064735784799 -0 -0)
(546.504714665835 -0 -0)
(558.108688222868 -0 -0)
(569.881496659149 -0 -0)
(581.828116777484 -0 -0)
(593.953665017978 -0 -0)
(606.26340054869 -0 -0)
(618.762728762991 -0 -0)
(631.457205016509 -0 -0)
(644.35253862975 -0 -0)
(657.454597201363 -0 -0)
(670.769411298465 -0 -0)
(684.303179429441 -0 -0)
(698.062273427129 -0 -0)
(712.053244267329 -0 -0)
(726.28282821161 -0 -0)
(740.757953451923 -0 -0)
(755.485747311398 -0 -0)
(770.473543781743 -0 -0)
(785.728891808477 -0 -0)
(801.259563990101 -0 -0)
(817.073566051879 -0 -0)
(833.179146846133 -0 -0)
(849.584809195585 -0 -0)
(866.299321448759 -0 -0)
(883.331729786927 -0 -0)
(900.691371615113 -0 -0)
(918.387889669951 -0 -0)
(936.431247244942 -0 -0)
(954.831744570769 -0 -0)
(973.600036207978 -0 -0)
(992.74714982371 -0 -0)
(1012.28450629802 -0 -0)
(1032.22394118842 -0 -0)
(1052.57772787814 -0 -0)
(1073.35860233688 -0 -0)
(1094.5797896939 -0 -0)
(1116.25503279045 -0 -0)
(1138.39862283954 -0 -0)
(1161.02543235274 -0 -0)
(1184.15095049936 -0 -0)
(1207.79132121035 -0 -0)
(1231.9633840738 -0 -0)
(1256.6847184038 -0 -0)
(1281.97369069089 -0 -0)
(1307.8495057645 -0 -0)
(1334.33226182379 -0 -0)
(1361.44300999937 -0 -0)
(1389.2038185051 -0 -0)
(1417.63784201206 -0 -0)
(1446.76939665151 -0 -0)
(1476.62404115342 -0 -0)
(1507.22866466017 -0 -0)
(1538.61158207079 -0 -0)
(1570.80263724598 -0 -0)
(1603.83331525588 -0 -0)
(1637.73686426159 -0 -0)
(1672.54842822589 -0 -0)
(1708.30519130184 -0 -0)
(1745.04653542731 -0 -0)
(1782.81421228352 -0 -0)
(1821.65253117414 -0 -0)
(1861.60856471434 -0 -0)
(1902.73237408823 -0 -0)
(1945.07725626036 -0 -0)
(1988.70001550683 -0 -0)
(2033.6612621945 -0 -0)
(2080.02574178822 -0 -0)
(2127.86269831756 -0 -0)
(2177.24627550276 -0 -0)
(2228.2559611538 -0 -0)
(2280.97708039498 -0 -0)
(2335.5013425703 -0 -0)
(2391.9274483422 -0 -0)
(2450.3617742618 -0 -0)
(2510.91913303863 -0 -0)
(2573.72358590275 -0 -0)
(2638.9094638732 -0 -0)
(2706.62246575294 -0 -0)
(2777.02054840036 -0 -0)
(2850.27558376731 -0 -0)
(2926.57591872077 -0 -0)
(3006.12539073131 -0 -0)
(3089.14439688003 -0 -0)
(3175.88670223015 -0 -0)
(3266.63857237486 -0 -0)
(3361.70433865888 -0 -0)
(3461.41312042239 -0 -0)
(3566.12849240523 -0 -0)
(3676.2536652611 -0 -0)
(3792.23593649284 -0 -0)
(3914.57433301138 -0 -0)
(4043.82444024089 -0 -0)
(4180.609559675 -0 -0)
(4325.62953248161 -0 -0)
(4479.66715856933 -0 -0)
(4643.62322987515 -0 -0)
(4818.47648546357 -0 -0)
(5005.42521959024 -0 -0)
(5205.69506236474 -0 -0)
(5420.88459268202 -0 -0)
(5652.65645483456 -0 -0)
(5903.44688483916 -0 -0)
(6178.81103638847 -0 -0)
(6484.0723503981 -0 -0)
(6821.72702203139 -0 -0)
(7194.80202785119 -0 -0)
(7608.18621612307 -0 -0)
(8069.24393804264 -0 -0)
(8586.86710499472 -0 -0)
(9171.08626486944 -0 -0)
(9832.6705237511 -0 -0)
(10577.7168815377 -0 -0)
(11412.045515356 -0 -0)
(12352.7931205307 -0 -0)
(13415.4503466363 -0 -0)
(14600.9862063396 -0 -0)
(15921.6072559308 -0 -0)
(17397.0518692002 -0 -0)
(19023.3048182519 -0 -0)
(20805.7386443989 -0 -0)
(22757.1277519978 -0 -0)
(24865.6532988567 -0 -0)
(27126.2403633305 -0 -0)
(29541.8741978389 -0 -0)
(32088.6468128447 -0 -0)
(34749.1625373671 -0 -0)
(37521.803350167 -0 -0)
(40377.0531847792 -0 -0)
(43285.1170110652 -0 -0)
(46237.7677025118 -0 -0)
(49227.1787558959 -0 -0)
(52227.1344176374 -0 -0)
(55217.3348105701 -0 -0)
(58196.8354259676 -0 -0)
(61164.8194409091 -0 -0)
(64128.7613971915 -0 -0)
(67084.9657728986 -0 -0)
(70026.7953856997 -0 -0)
(72976.5873936395 -0 -0)
(75947.9997490813 -0 -0)
(78942.6324880445 -0 -0)
(81953.7245639428 -0 -0)
(84963.6118435639 -0 -0)
(87960.1548045245 -0 -0)
(90932.8107831206 -0 -0)
(93876.9120763873 -0 -0)
(96791.9281091294 -0 -0)
(99678.9482170311 -0 -0)
(102539.967373425 -0 -0)
(105377.450000129 -0 -0)
(108192.237457869 -0 -0)
(110979.707464954 -0 -0)
(113737.282343042 -0 -0)
(116467.523913981 -0 -0)
(119172.849851109 -0 -0)
(121855.492684397 -0 -0)
(124517.539711829 -0 -0)
(127160.912123578 -0 -0)
(129787.422856533 -0 -0)
(132398.733250137 -0 -0)
(134996.39917368 -0 -0)
(137581.841137362 -0 -0)
(140155.727012502 -0 -0)
(142714.598981213 -0 -0)
(145255.793628341 -0 -0)
(147780.423027006 -0 -0)
(150289.548983026 -0 -0)
(152784.133585965 -0 -0)
(155265.099831044 -0 -0)
(157733.274919485 -0 -0)
(160189.458939032 -0 -0)
(162634.366610413 -0 -0)
(165068.691945296 -0 -0)
(167493.050230389 -0 -0)
(169908.048603219 -0 -0)
(172314.225863738 -0 -0)
(174712.116244817 -0 -0)
(177102.198881725 -0 -0)
(179484.958948397 -0 -0)
(181860.660423284 -0 -0)
(184226.68765162 -0 -0)
(186580.640221662 -0 -0)
(188922.948769316 -0 -0)
(191253.997841168 -0 -0)
(193574.171514778 -0 -0)
(195883.811832415 -0 -0)
(198183.274089599 -0 -0)
(200472.879334398 -0 -0)
(202752.968715719 -0 -0)
(205023.845845194 -0 -0)
(207285.833825476 -0 -0)
(209539.219062883 -0 -0)
(211784.303445676 -0 -0)
(214021.349700041 -0 -0)
(216250.63202321 -0 -0)
(218472.388319113 -0 -0)
(220686.873840741 -0 -0)
(222894.311053152 -0 -0)
(225094.943860703 -0 -0)
(227288.984708396 -0 -0)
(229476.671447555 -0 -0)
(231658.207201315 -0 -0)
(233833.824910744 -0 -0)
(236003.721724163 -0 -0)
(238166.377849954 -0 -0)
(240320.091142045 -0 -0)
(242464.891422388 -0 -0)
(244600.980718609 -0 -0)
(246728.588109512 -0 -0)
(248847.901808551 -0 -0)
(250959.136623956 -0 -0)
(253062.471876254 -0 -0)
(255158.111083383 -0 -0)
(257246.227186347 -0 -0)
(259327.0164016 -0 -0)
(261400.64600578 -0 -0)
(263467.303568051 -0 -0)
(265527.146791245 -0 -0)
(267580.353688996 -0 -0)
(269627.069980168 -0 -0)
(271667.464903503 -0 -0)
(273701.673698041 -0 -0)
(275729.853636516 -0 -0)
(277752.129741329 -0 -0)
(279768.650774385 -0 -0)
(281779.534377395 -0 -0)
(283784.920052429 -0 -0)
(285784.917049997 -0 -0)
(287779.65208713 -0 -0)
(289769.217643917 -0 -0)
(291753.72880825 -0 -0)
(293733.269471598 -0 -0)
(295707.943939584 -0 -0)
(297677.821625887 -0 -0)
(299642.999156577 -0 -0)
(301603.531212544 -0 -0)
(303559.499006808 -0 -0)
(305510.185810844 -0 -0)
)
;

boundaryField
{
    electrode
    {
        type            calculated;
        value           uniform (4.49891589369145 -0 -0);
    }
    ground
    {
        type            calculated;
        value           uniform (306483.643249811 -0 -0);
    }
    otherfaces
    {
        type            empty;
    }
}


// ************************************************************************* //
