/*--------------------------------*- C++ -*----------------------------------*\
| =========                 |                                                 |
| \\      /  F ield         | foam-extend: Open Source CFD                    |
|  \\    /   O peration     | Version:     4.0                                |
|   \\  /    A nd           | Web:         http://www.foam-extend.org         |
|    \\/     M anipulation  |                                                 |
\*---------------------------------------------------------------------------*/
FoamFile
{
    version     2.0;
    format      ascii;
    class       volVectorField;
    location    "5.4e-06";
    object      J_electron;
}
// * * * * * * * * * * * * * * * * * * * * * * * * * * * * * * * * * * * * * //

dimensions      [1 -1 -1 0 0 0 0];

internalField   nonuniform List<vector> 
300
(
(-1.29839466632329e+19 0 0)
(-1.33223679492437e+19 0 0)
(-1.57323922867375e+19 0 0)
(-1.52606927493821e+19 0 0)
(-1.52621271390676e+19 0 0)
(-1.52492551248574e+19 0 0)
(-1.51889473188631e+19 0 0)
(-1.51438878661885e+19 0 0)
(-1.50964948381299e+19 0 0)
(-1.50485083218468e+19 0 0)
(-1.50008518548065e+19 0 0)
(-1.49530726317846e+19 0 0)
(-1.49052587653351e+19 0 0)
(-1.48574125572013e+19 0 0)
(-1.48095217509479e+19 0 0)
(-1.476158604357e+19 0 0)
(-1.47136018936011e+19 0 0)
(-1.46655658475206e+19 0 0)
(-1.46174746391508e+19 0 0)
(-1.4569324783728e+19 0 0)
(-1.45211128013002e+19 0 0)
(-1.44728351363694e+19 0 0)
(-1.44244881121435e+19 0 0)
(-1.43760680536434e+19 0 0)
(-1.43275711693385e+19 0 0)
(-1.42789936181261e+19 0 0)
(-1.42303314339922e+19 0 0)
(-1.41815806665817e+19 0 0)
(-1.41327372404366e+19 0 0)
(-1.40837969853168e+19 0 0)
(-1.40347557158975e+19 0 0)
(-1.39856091322771e+19 0 0)
(-1.39363528909217e+19 0 0)
(-1.38869825711606e+19 0 0)
(-1.3837493655458e+19 0 0)
(-1.37878816651055e+19 0 0)
(-1.37381419274823e+19 0 0)
(-1.3688269826908e+19 0 0)
(-1.36382605927775e+19 0 0)
(-1.358810945305e+19 0 0)
(-1.35378115362647e+19 0 0)
(-1.34873621308462e+19 0 0)
(-1.34367568493536e+19 0 0)
(-1.33859912985178e+19 0 0)
(-1.33350589147168e+19 0 0)
(-1.32839482935987e+19 0 0)
(-1.32326489965464e+19 0 0)
(-1.31811742743195e+19 0 0)
(-1.31295821279094e+19 0 0)
(-1.30779213044462e+19 0 0)
(-1.30260144174685e+19 0 0)
(-1.29732156743858e+19 0 0)
(-1.29188413326214e+19 0 0)
(-1.28640563175998e+19 0 0)
(-1.2810260440929e+19 0 0)
(-1.27569740751246e+19 0 0)
(-1.27036009839481e+19 0 0)
(-1.26500054603085e+19 0 0)
(-1.25961430009255e+19 0 0)
(-1.25419979463836e+19 0 0)
(-1.24875637439938e+19 0 0)
(-1.2432836503711e+19 0 0)
(-1.23778131265373e+19 0 0)
(-1.23224907709429e+19 0 0)
(-1.22668667180847e+19 0 0)
(-1.22109381852201e+19 0 0)
(-1.21547025785506e+19 0 0)
(-1.20981572529349e+19 0 0)
(-1.20412996744483e+19 0 0)
(-1.19841274112335e+19 0 0)
(-1.19266381292545e+19 0 0)
(-1.18688295779206e+19 0 0)
(-1.18106996774166e+19 0 0)
(-1.17522464675977e+19 0 0)
(-1.16934681026851e+19 0 0)
(-1.16343629608659e+19 0 0)
(-1.15749295698705e+19 0 0)
(-1.15151665747214e+19 0 0)
(-1.14550729280879e+19 0 0)
(-1.13946476410993e+19 0 0)
(-1.13338900475829e+19 0 0)
(-1.12727995723201e+19 0 0)
(-1.12113759696496e+19 0 0)
(-1.11496191108223e+19 0 0)
(-1.10875291119649e+19 0 0)
(-1.10251063704682e+19 0 0)
(-1.09623513608555e+19 0 0)
(-1.08992649223534e+19 0 0)
(-1.08358480394217e+19 0 0)
(-1.0772101864576e+19 0 0)
(-1.07080278567986e+19 0 0)
(-1.06436275909946e+19 0 0)
(-1.05789028407611e+19 0 0)
(-1.05138556229218e+19 0 0)
(-1.04484880352611e+19 0 0)
(-1.03828023766868e+19 0 0)
(-1.03168010866896e+19 0 0)
(-1.02504866993139e+19 0 0)
(-1.01838618530415e+19 0 0)
(-1.01169292635931e+19 0 0)
(-1.0049691719256e+19 0 0)
(-9.98215198150282e+18 0 0)
(-9.91431284765911e+18 0 0)
(-9.84617704612954e+18 0 0)
(-9.77774723401515e+18 0 0)
(-9.7090259085909e+18 0 0)
(-9.6400154877315e+18 0 0)
(-9.57071806257273e+18 0 0)
(-9.50113552925563e+18 0 0)
(-9.43126942306691e+18 0 0)
(-9.36112088125748e+18 0 0)
(-9.29069058624586e+18 0 0)
(-9.21997871921339e+18 0 0)
(-9.14898473160802e+18 0 0)
(-9.07770748790637e+18 0 0)
(-9.00614494362901e+18 0 0)
(-8.93429419690007e+18 0 0)
(-8.86215124360049e+18 0 0)
(-8.78971099885863e+18 0 0)
(-8.71696698800184e+18 0 0)
(-8.64391129932864e+18 0 0)
(-8.57053441478571e+18 0 0)
(-8.49682494454392e+18 0 0)
(-8.42276951881102e+18 0 0)
(-8.34835246213444e+18 0 0)
(-8.27355563088255e+18 0 0)
(-8.1983580559261e+18 0 0)
(-8.12273575788754e+18 0 0)
(-8.04666113470654e+18 0 0)
(-7.97010299367352e+18 0 0)
(-7.89302575261601e+18 0 0)
(-7.81538896214019e+18 0 0)
(-7.73714717349826e+18 0 0)
(-7.65824966819158e+18 0 0)
(-7.57863702290235e+18 0 0)
(-7.49824221879206e+18 0 0)
(-7.4170053406973e+18 0 0)
(-7.33482231106686e+18 0 0)
(-7.25158756666835e+18 0 0)
(-7.16729426089817e+18 0 0)
(-7.08175223069973e+18 0 0)
(-6.99449371419895e+18 0 0)
(-6.90608657816932e+18 0 0)
(-6.81670230563829e+18 0 0)
(-6.72156216475255e+18 0 0)
(-6.62187089550796e+18 0 0)
(-6.52289454693365e+18 0 0)
(-6.42311594663372e+18 0 0)
(-6.32059871793827e+18 0 0)
(-6.21471823740535e+18 0 0)
(-6.10531358128839e+18 0 0)
(-5.99146734321821e+18 0 0)
(-5.8734076361672e+18 0 0)
(-5.74991279424589e+18 0 0)
(-5.62030398854608e+18 0 0)
(-5.48626433332426e+18 0 0)
(-5.33941071234309e+18 0 0)
(-5.19673213096244e+18 0 0)
(-5.02151259946693e+18 0 0)
(-4.86980845327247e+18 0 0)
(-4.65684935697918e+18 0 0)
(-4.44143582190869e+18 0 0)
(-4.11588630643789e+18 0 0)
(-3.26119391840279e+18 0 0)
(-2.58955241733069e+18 0 0)
(-2.54803262330372e+18 0 0)
(-2.47091817372503e+18 0 0)
(-2.1822792309565e+18 0 0)
(-1.61895731203198e+18 0 0)
(-1.01010847547208e+18 0 0)
(-4.99265680663642e+17 0 0)
(-1.5042395800653e+17 0 0)
(-5.98467623272841e+17 0 0)
(-1.2626185847864e+18 0 0)
(-5.26328908299108e+17 0 0)
(-7.82001571275735e+17 0 0)
(-2.37385346838849e+18 0 0)
(-2.86441674603548e+18 0 0)
(-2.72611222938347e+18 0 0)
(-4.32617526088591e+18 0 0)
(-4.68434418560349e+18 0 0)
(-4.15627404660179e+18 0 0)
(-4.40295170658062e+18 0 0)
(-3.40255505670734e+18 0 0)
(-1.40910130353825e+18 0 0)
(2.23213073033855e+17 0 0)
(2.67207807143825e+18 0 0)
(5.61018688416304e+18 0 0)
(7.77278789124568e+18 0 0)
(9.64704043966294e+18 0 0)
(1.11122808616746e+19 0 0)
(1.17807686515234e+19 0 0)
(1.21829008379171e+19 0 0)
(9.70881777220531e+18 0 0)
(9.05986109939515e+18 0 0)
(7.0326245756578e+18 0 0)
(5.23426660889172e+18 0 0)
(8.15808065922839e+18 0 0)
(-4.45459486530689e+18 0 0)
(1.13010647023013e+18 0 0)
(1.31244987945288e+16 0 0)
(-2.23697949853117e+18 0 0)
(-2.26785031924919e+18 0 0)
(-2.1851645667247e+18 0 0)
(-2.23180687032198e+18 0 0)
(-2.44635635792844e+18 0 0)
(-2.70079888349901e+18 0 0)
(-2.87883807462012e+18 0 0)
(-2.97295359644898e+18 0 0)
(-3.00682954543452e+18 0 0)
(-3.00298995433058e+18 0 0)
(-2.98357096635762e+18 0 0)
(-2.95201618053633e+18 0 0)
(-2.91302726545139e+18 0 0)
(-2.87495235316329e+18 0 0)
(-2.83206145908057e+18 0 0)
(-2.78641800137876e+18 0 0)
(-2.73908162335485e+18 0 0)
(-2.69174820088026e+18 0 0)
(-2.64341951831995e+18 0 0)
(-2.59636216292096e+18 0 0)
(-2.54805066507511e+18 0 0)
(-2.49963444102891e+18 0 0)
(-2.45113059582395e+18 0 0)
(-2.40272101232208e+18 0 0)
(-2.35448530788532e+18 0 0)
(-2.3065141370922e+18 0 0)
(-2.2589081257383e+18 0 0)
(-2.21174849640937e+18 0 0)
(-2.16510996621369e+18 0 0)
(-2.11905982786316e+18 0 0)
(-2.07365793452744e+18 0 0)
(-2.02895758547372e+18 0 0)
(-1.98500487412571e+18 0 0)
(-1.94183974243525e+18 0 0)
(-1.89949543740518e+18 0 0)
(-1.85799955682704e+18 0 0)
(-1.81737390740951e+18 0 0)
(-1.777633490244e+18 0 0)
(-1.73879212254152e+18 0 0)
(-1.70082349127444e+18 0 0)
(-1.66375382930171e+18 0 0)
(-1.62775261399707e+18 0 0)
(-1.59253537396311e+18 0 0)
(-1.55822920379763e+18 0 0)
(-1.5248074402186e+18 0 0)
(-1.49226659388519e+18 0 0)
(-1.46059208229436e+18 0 0)
(-1.429769180173e+18 0 0)
(-1.39978089272481e+18 0 0)
(-1.37060937057507e+18 0 0)
(-1.34223534538442e+18 0 0)
(-1.31464012740166e+18 0 0)
(-1.28780164838637e+18 0 0)
(-1.26171816697894e+18 0 0)
(-1.23628071857629e+18 0 0)
(-1.21160268100856e+18 0 0)
(-1.18762678847304e+18 0 0)
(-1.16423461999374e+18 0 0)
(-1.14150355442328e+18 0 0)
(-1.11938073777906e+18 0 0)
(-1.09785170540054e+18 0 0)
(-1.07689521124542e+18 0 0)
(-1.0564925809001e+18 0 0)
(-1.03662526084579e+18 0 0)
(-1.01727685118079e+18 0 0)
(-9.98428720192954e+17 0 0)
(-9.80055448064429e+17 0 0)
(-9.62158084688264e+17 0 0)
(-9.44597689469473e+17 0 0)
(-9.27680915838862e+17 0 0)
(-9.11103573890376e+17 0 0)
(-8.94926384996897e+17 0 0)
(-8.79139664543019e+17 0 0)
(-8.63736078938703e+17 0 0)
(-8.48703860100856e+17 0 0)
(-8.34031777112368e+17 0 0)
(-8.19708537232719e+17 0 0)
(-8.05723206835148e+17 0 0)
(-7.92064856884273e+17 0 0)
(-7.78721433722825e+17 0 0)
(-7.65677389625059e+17 0 0)
(-7.52887042230655e+17 0 0)
(-7.40285281086032e+17 0 0)
(-7.28421225770648e+17 0 0)
(-7.1658860048426e+17 0 0)
(-7.05044905587135e+17 0 0)
(-6.93760273199072e+17 0 0)
(-6.82615006092254e+17 0 0)
(-6.71786112562724e+17 0 0)
(-6.61683671517969e+17 0 0)
(-6.51565255225798e+17 0 0)
(-6.41299859318735e+17 0 0)
(-6.32219186390865e+17 0 0)
(-6.22911308772044e+17 0 0)
(-6.14257046172102e+17 0 0)
(-6.06111700432708e+17 0 0)
(-5.99253676231307e+17 0 0)
(-5.93006418583942e+17 0 0)
(-5.82593472975802e+17 0 0)
)
;

boundaryField
{
    electrode
    {
        type            calculated;
        value           uniform (-1.55031882453211e+19 0 0);
    }
    ground
    {
        type            calculated;
        value           uniform (-5.7999897185896e+17 0 0);
    }
    otherfaces
    {
        type            empty;
    }
}


// ************************************************************************* //
