/*--------------------------------*- C++ -*----------------------------------*\
| =========                 |                                                 |
| \\      /  F ield         | foam-extend: Open Source CFD                    |
|  \\    /   O peration     | Version:     4.0                                |
|   \\  /    A nd           | Web:         http://www.foam-extend.org         |
|    \\/     M anipulation  |                                                 |
\*---------------------------------------------------------------------------*/
FoamFile
{
    version     2.0;
    format      ascii;
    class       volScalarField;
    location    "5.4e-06";
    object      PhiMean;
}
// * * * * * * * * * * * * * * * * * * * * * * * * * * * * * * * * * * * * * //

dimensions      [0 0 0 1 0 0 0];

internalField   nonuniform List<scalar> 
300
(
699.986367941427
699.985018217273
699.983401764067
699.981540377741
699.979443500822
699.97710422373
699.974521818759
699.971695088973
699.96862286256
699.965304267662
699.961738556623
699.957925134076
699.953863522659
699.949553352602
699.944994350559
699.940186328322
699.935129173589
699.929822843844
699.92426735857
699.918462791998
699.912409267817
699.906106953915
699.899556057247
699.892756818851
699.885709508061
699.878414428515
699.870871906429
699.863082286023
699.855045928241
699.846763201828
699.838234476744
699.829460136293
699.820440568567
699.811176150377
699.801667243437
699.791914189827
699.78191730671
699.771676883713
699.761193177541
699.750466405743
699.739496743696
699.728284321715
699.716829217452
699.705131451824
699.693190984662
699.681007710707
699.668581455134
699.655911970559
699.642998933621
699.629841945335
699.61644052993
699.602794144608
699.588902168857
699.574763904966
699.560378560463
699.545745241265
699.530862938649
699.515730523338
699.500346739843
699.484710200023
699.468819377927
699.452672604049
699.436268058696
699.419603765162
699.402677605112
699.38548731122
699.368030439389
699.350304363067
699.332306267218
699.314033141372
699.295481772407
699.276648736114
699.257530402422
699.238122931968
699.218422253191
699.198424063681
699.178123836453
699.157516804686
699.136597950981
699.115361977822
699.093803330282
699.071916155151
699.049694287734
699.027131244384
699.004220206935
698.9809540284
698.957325215045
698.933325900424
698.908947830763
698.88418236071
698.859020433543
698.833452563973
698.807468861282
698.78105897153
698.754212056374
698.726916777058
698.699161273217
698.670933144635
698.642219425969
698.61300656905
698.583280421556
698.553026196815
698.522228442575
698.490871042898
698.458937163256
698.426409222412
698.39326886939
698.359496934219
698.3250734098
698.289977401013
698.254187076592
698.217679628117
698.180431220281
698.142416950595
698.103610798325
698.063985557198
698.023512798943
697.982162817283
697.939904536929
697.896705433255
697.85253145223
697.807346949079
697.761114581507
697.713795241874
697.665347933574
697.615729633309
697.564895164184
697.512797079665
697.459385494185
697.404607926137
697.348409123887
697.290730879955
697.231511819113
697.170687163407
697.108188488703
697.043943496663
696.977875678182
696.909903967629
696.83994235107
696.767899477116
696.69367818287
696.617174978459
696.538279478891
696.456873761731
696.372831676372
696.286018070728
696.196287859165
696.103485020053
696.007441419308
695.90797548291
695.804890761101
695.697974172703
695.586994021028
695.471697766571
695.351809363928
695.227026146686
695.097015450384
694.961410138805
694.819804283236
694.671746164357
694.516733177025
694.354197409059
694.183476084455
694.003794785328
693.8142521271
693.613811644747
693.401290927366
693.175311348639
692.93424889321
692.676174537035
692.398805579183
692.099489025287
691.775194278773
691.422421184871
691.037169821081
690.614989305354
690.150882872805
689.639376997541
689.074716456447
688.450728259862
687.76107914087
686.999519404262
686.159903107104
685.236375286992
684.223823579052
683.117705218515
681.914259919774
680.610717884094
679.20515701096
677.696423596448
676.084061367473
674.368187227886
672.549455986313
670.628982100181
668.607804142747
666.486802111674
664.266633588839
661.947733704572
659.530486312223
657.015237022991
654.402173054682
651.69146751051
648.883396777212
645.978495888756
642.977630574804
639.881748858935
636.691853870897
633.408904602535
630.03382082907
626.567439043387
623.010542543414
619.363826395784
615.628033401292
611.804042212112
607.89272192605
603.894859468352
599.811198618898
595.642410140257
591.389132300024
587.051938111627
582.631377296481
578.127940842943
573.54210451549
568.874291444822
564.124917773026
559.294455771018
554.383502439493
549.392602459634
544.322298300959
539.173083044149
533.945452544511
528.639855341873
523.256748161078
517.796544666015
512.259671025759
506.646509802774
500.957459105822
495.1928738003
489.353127398677
483.438550473363
477.449495357026
471.386272154401
465.249218939048
459.038732910414
452.755283508707
446.399289225013
439.971197002274
433.47140220456
426.900331182816
420.258357829619
413.545889575587
406.76328021654
399.910919734249
392.989142971184
385.998323739133
378.938778939019
371.810867287
364.614888665101
357.351187596646
350.020047812286
342.621800400664
335.156713728173
327.625106187724
320.027231318285
312.363395510188
304.633841888761
296.838875756503
288.978750345562
281.053824431475
273.06441180074
265.010898356472
256.893584355649
248.712844767954
240.468965639737
232.162311689782
223.793155249983
215.361851421679
206.868659330063
198.313925038057
189.697894959036
181.020906657679
172.283194243353
163.485087322117
154.62680809034
145.708678847223
136.730910344867
127.693818112955
118.597601777729
109.442570570346
100.228913286398
90.9569332600858
81.6268089841865
72.2388386050543
62.7931906341852
53.2901583705766
43.7299010084269
34.1127078728086
24.4387293395067
14.7082519001354
4.92141808011245
)
;

boundaryField
{
    electrode
    {
        type            calculated;
        value           uniform 700.000000000033;
    }
    ground
    {
        type            calculated;
        value           uniform 0;
    }
    otherfaces
    {
        type            empty;
    }
}


// ************************************************************************* //
