/*--------------------------------*- C++ -*----------------------------------*\
| =========                 |                                                 |
| \\      /  F ield         | foam-extend: Open Source CFD                    |
|  \\    /   O peration     | Version:     4.0                                |
|   \\  /    A nd           | Web:         http://www.foam-extend.org         |
|    \\/     M anipulation  |                                                 |
\*---------------------------------------------------------------------------*/
FoamFile
{
    version     2.0;
    format      ascii;
    class       volScalarField;
    location    "5.4e-06";
    object      Sy_electron;
}
// * * * * * * * * * * * * * * * * * * * * * * * * * * * * * * * * * * * * * //

dimensions      [1 -3 -1 0 0 0 0];

internalField   nonuniform List<scalar> 
300
(
3.41142317833666e-09
3.4122225655188e-09
3.41254068279209e-09
3.41248953915543e-09
3.4124687086754e-09
3.41240122958036e-09
3.41229683389559e-09
3.41216064472309e-09
3.41199022414548e-09
3.4117857674333e-09
3.41154701971883e-09
3.4112736343654e-09
3.41096531369058e-09
3.41062173250556e-09
3.41024255439156e-09
3.40982743179879e-09
3.40937600417296e-09
3.40888789805547e-09
3.40836272658656e-09
3.40780008903419e-09
3.40719957033e-09
3.4065607405768e-09
3.4058831545368e-09
3.40516635110641e-09
3.40440985273131e-09
3.40361316491552e-09
3.40277577557318e-09
3.40189715443957e-09
3.40097675248453e-09
3.40001400124658e-09
3.39900831216404e-09
3.39795907599092e-09
3.396865662099e-09
3.39572741775871e-09
3.39454366745962e-09
3.393313712208e-09
3.39203682880429e-09
3.39071226913826e-09
3.38933925945528e-09
3.38791699961299e-09
3.38644466234311e-09
3.38492139248798e-09
3.38334630614008e-09
3.38171848983325e-09
3.38003700018099e-09
3.37830086430312e-09
3.37650907965482e-09
3.37466060879449e-09
3.3727543667075e-09
3.37078921483851e-09
3.36876400340576e-09
3.36667769225431e-09
3.3645294294502e-09
3.36257031362995e-09
3.36145254461598e-09
3.36029122445551e-09
3.35908478247367e-09
3.35783175449259e-09
3.35653067359473e-09
3.35518004575334e-09
3.35377834139513e-09
3.35232399208309e-09
3.3508153888368e-09
3.34925088095224e-09
3.34762877506659e-09
3.34594733424838e-09
3.34420477703735e-09
3.34239927662171e-09
3.34052896001347e-09
3.33859190723909e-09
3.33658615053514e-09
3.33450967357839e-09
3.33236041075035e-09
3.33013624640253e-09
3.32783501410743e-09
3.32545449598865e-09
3.32299242202349e-09
3.32044646935293e-09
3.31781426164964e-09
3.31509336834919e-09
3.31228130417538e-09
3.30937552833318e-09
3.30637344390226e-09
3.30327239720873e-09
3.30006967712286e-09
3.29676251445084e-09
3.29334808124343e-09
3.28982349007235e-09
3.28618579330352e-09
3.28243198242276e-09
3.27855898720855e-09
3.27456367489557e-09
3.2704428495359e-09
3.26619325087765e-09
3.26181155350253e-09
3.25729436581794e-09
3.25263822899063e-09
3.24783961579218e-09
3.24289492935259e-09
3.23780050186244e-09
3.23255259312518e-09
3.22714738900304e-09
3.22158099969691e-09
3.2158494580507e-09
3.20994871746052e-09
3.20387464978393e-09
3.1976230430426e-09
3.1911895988414e-09
3.18456992971156e-09
3.17775955608879e-09
3.17075390309183e-09
3.16354829701344e-09
3.15613796151632e-09
3.14851801351674e-09
3.1406834586803e-09
3.1326291865376e-09
3.1243499652214e-09
3.11584043579131e-09
3.10709510591919e-09
3.09810834318069e-09
3.08887436773408e-09
3.07938724446521e-09
3.06964087430632e-09
3.05962898504059e-09
3.04934512117402e-09
3.03878263300126e-09
3.02793466478231e-09
3.01679414199286e-09
3.00535375739706e-09
2.99360595605295e-09
2.98154291897125e-09
2.96915654560202e-09
2.95643843466721e-09
2.94337986317313e-09
2.92997176446609e-09
2.91620470477369e-09
2.90206885196394e-09
2.88755395324687e-09
2.87264931296563e-09
2.85734371963489e-09
2.8416254288225e-09
2.82548227102936e-09
2.80890134069031e-09
2.791868708767e-09
2.77437122857139e-09
2.75717387272578e-09
2.74053779191998e-09
2.72341071835676e-09
2.7057740461019e-09
2.68760884384666e-09
2.66889507630793e-09
2.64961159788985e-09
2.62973586057669e-09
2.60924387694543e-09
2.5881104467067e-09
2.56630772026437e-09
2.54380833786211e-09
2.52057850759481e-09
2.49659032707071e-09
2.4718041240266e-09
2.4461897032991e-09
2.41972660412554e-09
2.39241393986503e-09
2.364514183727e-09
2.33614102262306e-09
2.3067614155737e-09
2.27590494166997e-09
2.24355596443775e-09
2.20984957327462e-09
2.17308528753639e-09
2.13256725849747e-09
2.09011590566097e-09
2.04493647359704e-09
1.9961454212735e-09
1.94431862767507e-09
1.88967231456708e-09
1.83046622799813e-09
1.76642922487973e-09
1.69907627085866e-09
1.62605120707171e-09
1.54203712778713e-09
1.45697032501962e-09
1.37226173313299e-09
1.28990943329613e-09
1.21446249970256e-09
1.13505493867781e-09
1.06675091922223e-09
1.01965697213569e-09
9.75487029832242e-10
9.60322076924054e-10
9.64254032105376e-10
9.98186365283641e-10
1.07548779942691e-09
1.20463612772187e-09
1.41731744493651e-09
1.76556278767903e-09
2.34173696497356e-09
3.36390273217603e-09
4.61346501549955e-09
5.70003970571511e-09
6.98172249062807e-09
7.48103277302502e-09
6.93315929029592e-09
5.78497245162436e-09
4.51975726199855e-09
3.41211102760051e-09
2.63708671336078e-09
2.12252974532971e-09
1.79289541580536e-09
1.58917283731883e-09
1.46925732879811e-09
1.3918739931162e-09
1.34986135188456e-09
1.33036125763809e-09
1.31871507542087e-09
1.31578859638924e-09
1.31789741246818e-09
1.32235943176644e-09
1.32760276276446e-09
1.33249846092995e-09
1.33627199967909e-09
1.33740682281115e-09
1.33583359037077e-09
1.33216962411039e-09
1.3263319646576e-09
1.31831642598353e-09
1.30817823825965e-09
1.29601437537944e-09
1.28195043434444e-09
1.26613155769766e-09
1.24871533372593e-09
1.22986626617721e-09
1.20975140298644e-09
1.18853689403813e-09
1.16638529532227e-09
1.14345348610967e-09
1.11989108914492e-09
1.09583930209061e-09
1.07143008592556e-09
1.04678546423558e-09
1.02201716860379e-09
9.97223079868738e-10
9.72482715223598e-10
9.4787390988943e-10
9.23476386588972e-10
8.99360089658929e-10
8.75586225913609e-10
8.52207146680627e-10
8.29266989731088e-10
8.06802272714342e-10
7.84842530446106e-10
7.63410949554791e-10
7.42524984605551e-10
7.22197050367415e-10
7.02435096135296e-10
6.83244970045669e-10
6.64625154755092e-10
6.46569090397576e-10
6.29071680086417e-10
6.12127807860652e-10
5.95727958073807e-10
5.79861207785084e-10
5.64515270499457e-10
5.49676922747677e-10
5.3533223898145e-10
5.21466821449808e-10
5.08066155514089e-10
4.95115979447379e-10
4.82601577882483e-10
4.70508184716029e-10
4.58809733996147e-10
4.47479418423097e-10
4.36502851753517e-10
4.25868175838762e-10
4.15564738520544e-10
4.05582517518082e-10
3.95912095767651e-10
3.86544690166388e-10
3.77472216450485e-10
3.6868735470994e-10
3.60183590341691e-10
3.51955040629377e-10
3.43815292255427e-10
3.35490899522711e-10
3.27376696076401e-10
3.19448008163312e-10
3.11716078234229e-10
3.04194720563978e-10
2.96899056859813e-10
2.89279143419255e-10
2.81162900741866e-10
2.73222420140099e-10
2.65511779349807e-10
2.56779632804848e-10
2.47446140356777e-10
2.37976859966892e-10
2.26112069009559e-10
2.12646943851676e-10
1.95658929993827e-10
1.7151718776271e-10
)
;

boundaryField
{
    electrode
    {
        type            zeroGradient;
    }
    ground
    {
        type            zeroGradient;
    }
    otherfaces
    {
        type            empty;
    }
}


// ************************************************************************* //
