/*--------------------------------*- C++ -*----------------------------------*\
| =========                 |                                                 |
| \\      /  F ield         | foam-extend: Open Source CFD                    |
|  \\    /   O peration     | Version:     4.0                                |
|   \\  /    A nd           | Web:         http://www.foam-extend.org         |
|    \\/     M anipulation  |                                                 |
\*---------------------------------------------------------------------------*/
FoamFile
{
    version     2.0;
    format      ascii;
    class       volScalarField;
    location    "5.4e-06";
    object      Te;
}
// * * * * * * * * * * * * * * * * * * * * * * * * * * * * * * * * * * * * * //

dimensions      [0 0 0 1 0 0 0];

internalField   nonuniform List<scalar> 
300
(
40274.5164518272
40274.817711155
40275.002148725
40275.1151694466
40275.2919397034
40275.5066698162
40275.7627991231
40276.0621150293
40276.4038769096
40276.788239599
40277.2152137932
40277.6847891885
40278.196981489
40278.751806816
40279.3492873672
40279.9894515807
40280.6723336642
40281.3979737956
40282.166418134
40282.977718852
40283.8319341801
40284.7291284493
40285.6693721416
40286.652741942
40287.6793207933
40288.749197957
40289.86246908
40291.0192362606
40292.2196081208
40293.4636998862
40294.7516334663
40296.0835375401
40297.4595476481
40298.8798062872
40300.3444630127
40301.8536745411
40303.4076048619
40305.0064253549
40306.6503149113
40308.3394600632
40310.074055117
40311.8543022836
40313.6804117903
40315.5526020088
40317.4710997379
40319.4361407778
40321.4479703351
40323.5068417461
40325.6130125881
40327.766742707
40329.9683083955
40332.2180442634
40334.5163744358
40336.8637048282
40339.2602993202
40341.7063829429
40344.2022555042
40346.7482717212
40349.344808421
40351.9922576452
40354.6910246915
40357.4415277457
40360.2441980286
40363.0994801046
40366.0078322472
40368.969726841
40371.9856507965
40375.0561059832
40378.1816096858
40381.3626950725
40384.5999116829
40387.8938259401
40391.2450216809
40394.6541007073
40398.1216833668
40401.6484091514
40405.2349373231
40408.8819475743
40412.5901407072
40416.3602393504
40420.1929887061
40424.0891573307
40428.0495379518
40432.0749483227
40436.1662321205
40440.3242598797
40444.5499299796
40448.8441696747
40453.2079361707
40457.642217767
40462.1480350443
40466.7264421161
40471.3785279498
40476.105417746
40480.9082743978
40485.7883000268
40490.7467375968
40495.7848726194
40500.9040349525
40506.1056006974
40511.3909942012
40516.7616901769
40522.2192159433
40527.7651537943
40533.4011435108
40539.1288850236
40544.9501412313
40550.8667409985
40556.8805823397
40562.9936357987
40569.2079480519
40575.5256457399
40581.9489395509
40588.480128584
40595.1216050019
40601.8758590037
40608.7454841502
40615.7331830638
40622.841773538
40630.0741950967
40637.4335160458
40644.9229410496
40652.545819298
40660.3056533105
40668.2061084422
40676.2510231615
40684.4444201761
40692.7905184888
40701.2937465011
40709.9587562474
40718.7904388895
40727.7939416582
40736.9746863202
40746.3383893156
40755.8910840961
40765.6391457611
40775.589316263
40785.7487360763
40796.1249799557
40806.7260797783
40817.5605709224
40828.6375884045
40839.9668257097
40851.5585028146
40863.4240830208
40875.576259061
40888.0277633222
40900.7917338177
40913.8827233249
40927.316716845
40941.1110245165
40955.2844628367
40969.8574620342
40984.8522901534
41000.2934090715
41016.2072706235
41032.6238161626
41049.5743711376
41067.0966562922
41085.2288617338
41104.0182333311
41123.5223894067
41143.8148778455
41165.0854691421
41187.4889463583
41210.944666572
41235.4072444246
41261.0269451833
41288.0377787185
41316.6702492036
41347.0922540927
41379.441603132
41413.6694540883
41449.6861623024
41488.1312687966
41529.5308571896
41573.4156272564
41620.0344715912
41670.6479637366
41725.4384845813
41784.818942854
41851.0292602665
41925.7042397985
42011.1744778753
42112.443906268
42235.0432704833
42386.4688225809
42579.1207030874
42828.5335271621
43155.0895354556
43589.2879567832
44173.8196037338
44970.9889146705
46054.9924776637
47537.2797405953
49608.316768837
52511.106732357
56760.9911397287
62271.6577576888
69246.933039677
80247.5463888593
95726.8484597733
116689.762877389
145671.776372479
184775.320341834
234753.837689375
293673.848311173
357347.360643165
421149.443907254
481511.490115286
536446.220811147
585209.296310807
627893.571371848
665109.534842669
697495.567648227
725716.382534676
750483.571092632
772387.841875972
791901.653868388
809412.180692987
825218.840833233
839575.148971819
852718.068742369
864832.302298978
876070.469977416
886558.08754306
896399.407716863
905680.818340219
914473.828090535
922837.66430544
930821.229123872
938464.690245539
945800.764416205
952855.764976078
959650.463147773
966200.799568565
972518.478954484
978611.465008542
984484.428623114
990139.075701905
995574.979876903
1000789.31322541
1005773.32646197
1010518.55672159
1015018.2297412
1019261.8051551
1023237.47231335
1026931.97118632
1030330.87375398
1033418.69091448
1036178.99567523
1038594.52875846
1040647.27389682
1042318.57558366
1043588.78840589
1044437.93115701
1044837.21162107
1044786.55166803
1044253.38688733
1043217.63163841
1041657.01248392
1039549.75303642
1036873.68125234
1033606.37885337
1029725.11317433
1025206.77092597
1020027.85611311
1014164.8117988
1007593.37233695
1000292.53037718
992235.474466722
983393.602287097
973744.278173486
963260.584419621
951914.163967367
939675.173322347
926512.300798471
912392.576181242
897281.156082416
881141.065278414
863932.955503709
845614.962767134
826143.824807937
805479.42513803
783564.83655668
760339.607585995
735745.146854078
709702.309377645
682129.279539543
652940.285869154
622024.743545992
589252.426107884
554487.486067007
517541.670383873
478185.590705766
436134.761977822
390990.301768944
342194.723003683
288935.7143484
230148.990905252
)
;

boundaryField
{
    electrode
    {
        type            electronTemperature;
        seec            0.05;
        Tse             1000;
        Edepend         1;
        TFN             1000;
        field_emission  0;
        field_enhancement_factor 55;
        work_function   5;
        value           uniform 40274.5164518272;
    }
    ground
    {
        type            electronTemperature;
        seec            0.05;
        Tse             1000;
        Edepend         1;
        TFN             1000;
        field_emission  0;
        field_enhancement_factor 55;
        work_function   5;
        value           uniform 196801.141811473;
    }
    otherfaces
    {
        type            empty;
    }
}


// ************************************************************************* //
