/*--------------------------------*- C++ -*----------------------------------*\
| =========                 |                                                 |
| \\      /  F ield         | foam-extend: Open Source CFD                    |
|  \\    /   O peration     | Version:     4.0                                |
|   \\  /    A nd           | Web:         http://www.foam-extend.org         |
|    \\/     M anipulation  |                                                 |
\*---------------------------------------------------------------------------*/
FoamFile
{
    version     2.0;
    format      ascii;
    class       volScalarField;
    location    "5.4e-06";
    object      TeMean;
}
// * * * * * * * * * * * * * * * * * * * * * * * * * * * * * * * * * * * * * //

dimensions      [0 0 0 1 0 0 0];

internalField   nonuniform List<scalar> 
300
(
34335.4934885961
34335.7851640954
34335.902516613
34335.8775337574
34335.8625811088
34335.8379863953
34335.8065363421
34335.7712353767
34335.7322623032
34335.6903665211
34335.646216002
34335.6004423644
34335.5536640112
34335.5064613327
34335.4593959648
34335.4130090509
34335.3678197378
34335.3243307922
34335.2830280574
34335.2443802308
34335.2088421583
34335.1768523343
34335.1488357403
34335.1252029767
34335.1063497832
34335.0926700705
34335.084547268
34335.0823511894
34335.0864482126
34335.0971875087
34335.1148995163
34335.1399249914
34335.1726121064
34335.2132932208
34335.2622915256
34335.319916281
34335.3864723372
34335.4622706202
34335.5476178222
34335.6428110569
34335.748140208
34335.8639013772
34335.9903872212
34336.1278836533
34336.2766740142
34336.4370387713
34336.6092549809
34336.7935952106
34336.99032376
34337.199696623
34337.4219617766
34337.6573764021
34337.9062162115
34338.1687533909
34338.4452631078
34338.7360316009
34339.0413373727
34339.3614530608
34339.6966605864
34340.0472436094
34340.4134856876
34340.795681085
34341.1941061475
34341.6090315312
34342.0407641425
34342.4896296022
34342.9559502334
34343.4400475176
34343.9422466262
34344.4628822307
34345.0022889215
34345.560790894
34346.1387328179
34346.7364755152
34347.3543707079
34347.992764057
34348.6520283044
34349.3325723096
34350.0347957107
34350.759096202
34351.505910353
34352.2756896306
34353.068874654
34353.885904244
34354.7272271301
34355.5933290146
34356.4847275152
34357.4019395662
34358.3454842706
34359.3159062444
34360.3137498014
34361.3395728693
34362.3940044726
34363.4776725999
34364.5912093388
34365.7352918888
34366.9106085368
34368.1178715793
34369.3578113829
34370.631187183
34371.9388054058
34373.2814665499
34374.659996653
34376.0752931452
34377.5282795068
34379.019904738
34380.551147798
34382.1230278021
34383.736618913
34385.393034262
34387.0934316332
34388.8390127032
34390.6310180463
34392.4707645485
34394.3596112195
34396.2989579222
34398.2902597045
34400.3350613598
34402.435001342
34404.5917426735
34406.8070162455
34409.0826482989
34411.4205434158
34413.822717261
34416.2913099657
34418.8285437447
34421.436720189
34424.118280075
34426.8758068005
34429.7119886563
34432.6296506453
34435.6317926063
34438.7215932382
34441.9023564457
34445.1775627391
34448.5509774798
34452.0266130648
34455.6087091403
34459.3017710755
34463.1106074457
34467.0403573865
34471.0965080824
34475.2849244473
34479.6118805788
34484.0841476998
34488.7090641344
34493.4945704801
34498.4493088892
34503.5826188824
34508.904668099
34514.4266733649
34520.1609149505
34526.1208867165
34532.3216059854
34538.7796286509
34545.5134635257
34552.5437684327
34559.8942043487
34567.5920969566
34575.6711276228
34584.1846459242
34593.2022677508
34602.7857224233
34612.983024227
34623.8351043654
34635.4055065263
34647.8059916256
34661.1738016944
34675.6449821006
34691.3259305808
34708.2698185073
34726.5376905859
34746.2540606706
34767.4961352579
34790.3152261034
34814.8663821501
34841.2766374683
34869.8365782093
34901.3155352887
34936.8462972744
34978.3623776768
35029.3350793949
35095.02976163
35183.4502878047
35307.0166807375
35483.9579190297
35740.9363460925
36117.6428311572
36673.1553343247
37497.0812480213
38727.8609455493
40584.4765634722
43421.6347994782
47925.6159119817
54786.8875336377
64464.9650743215
78555.3896012248
97782.7114605869
123564.969505905
156404.292705029
196143.189466672
241409.701809217
290704.08959175
342276.019559508
394431.544682759
445607.613190745
494378.109672468
539588.250990542
580562.522109369
617113.059752339
649414.184899311
677839.987689405
702869.547057953
724995.192733427
744653.300379195
762242.206804812
778108.812140973
792538.328743916
805762.349702877
817971.56443304
829319.281188199
839931.027864384
849917.429376734
859370.744055199
868365.959418385
876964.48112116
885216.775377
893164.012148784
900839.509888242
908269.958224256
915476.370158383
922474.869915228
929277.338764352
935891.863494742
942323.237916007
948573.417507725
954641.775573117
960525.402773864
966219.348366134
971716.850461708
977009.512637792
982087.574118561
986939.738263324
991553.458391528
995915.51449014
1000011.95325127
1003827.78216101
1007347.33259444
1010554.4990307
1013432.38015846
1015964.16601055
1018132.91424225
1019921.03363748
1021310.65472189
1022283.4666717
1022820.77325901
1022900.2369731
1022509.09172616
1021631.41372027
1020244.36513454
1018328.81831534
1015865.31282483
1012834.46139781
1009216.68085663
1004992.16964818
1000141.31239541
994643.739982372
988478.455796814
981624.930130284
974061.85743285
965766.768258081
956717.076384007
946889.749908283
936260.195009222
924802.59570333
912489.824341028
899293.331092426
885182.94114203
870126.690907366
854090.540732139
837038.313894846
818931.362336183
799733.371542743
779399.028903495
757874.940433133
735109.25159247
711039.383597649
685591.344438686
658692.71535411
630256.990019155
600176.815050465
568333.015294876
534589.223346616
498764.719347133
460641.648907006
419943.971085884
376281.920493435
329122.609207258
277686.92680621
220945.294131226
)
;

boundaryField
{
    electrode
    {
        type            calculated;
        value           uniform 34335.4934885984;
    }
    ground
    {
        type            calculated;
        value           uniform 188769.611945658;
    }
    otherfaces
    {
        type            empty;
    }
}


// ************************************************************************* //
