/*--------------------------------*- C++ -*----------------------------------*\
| =========                 |                                                 |
| \\      /  F ield         | foam-extend: Open Source CFD                    |
|  \\    /   O peration     | Version:     4.0                                |
|   \\  /    A nd           | Web:         http://www.foam-extend.org         |
|    \\/     M anipulation  |                                                 |
\*---------------------------------------------------------------------------*/
FoamFile
{
    version     2.0;
    format      ascii;
    class       volScalarField;
    location    "9.8e-06";
    object      Ar;
}
// * * * * * * * * * * * * * * * * * * * * * * * * * * * * * * * * * * * * * //

dimensions      [0 0 0 1 0 0 0];

internalField   nonuniform List<scalar> 
300
(
3.21880153658498e+22
3.21880153234517e+22
3.21880153539371e+22
3.21880153671918e+22
3.21880153891531e+22
3.21880154194411e+22
3.21880154562458e+22
3.21880155002629e+22
3.21880155513672e+22
3.21880156095224e+22
3.21880156747344e+22
3.21880157469907e+22
3.21880158262856e+22
3.21880159126151e+22
3.21880160059765e+22
3.21880161063681e+22
3.21880162137926e+22
3.2188016328249e+22
3.21880164497369e+22
3.21880165782581e+22
3.21880167138151e+22
3.21880168564107e+22
3.21880170060485e+22
3.21880171627325e+22
3.21880173264831e+22
3.21880174972927e+22
3.21880176751679e+22
3.21880178601172e+22
3.21880180521381e+22
3.21880182512368e+22
3.21880184574385e+22
3.21880186707435e+22
3.21880188911457e+22
3.2188019118652e+22
3.21880193532697e+22
3.21880195950068e+22
3.2188019843876e+22
3.2188020099884e+22
3.21880203630373e+22
3.21880206333459e+22
3.21880209108202e+22
3.2188021195469e+22
3.21880214873027e+22
3.21880217863322e+22
3.21880220925687e+22
3.21880224060237e+22
3.21880227267114e+22
3.21880230546457e+22
3.21880233898497e+22
3.21880237323404e+22
3.2188024082146e+22
3.21880244392702e+22
3.21880248037341e+22
3.21880251755364e+22
3.21880255546851e+22
3.21880259411804e+22
3.21880263350355e+22
3.2188026736264e+22
3.21880271448803e+22
3.21880275609006e+22
3.21880279843377e+22
3.21880284152063e+22
3.21880288535269e+22
3.21880292993346e+22
3.21880297526425e+22
3.21880302134424e+22
3.21880306817493e+22
3.21880311575788e+22
3.21880316409466e+22
3.21880321318686e+22
3.2188032630363e+22
3.21880331364542e+22
3.21880336501611e+22
3.21880341714937e+22
3.21880347004826e+22
3.2188035237144e+22
3.21880357814889e+22
3.21880363335383e+22
3.21880368932896e+22
3.218803746079e+22
3.21880380360222e+22
3.21880386190008e+22
3.21880392097456e+22
3.2188039808271e+22
3.21880404146084e+22
3.21880410287664e+22
3.21880416507498e+22
3.21880422805743e+22
3.21880429182679e+22
3.21880435638389e+22
3.2188044217309e+22
3.21880448787386e+22
3.21880455480882e+22
3.21880462253713e+22
3.21880469106031e+22
3.21880476037983e+22
3.2188048304972e+22
3.21880490141391e+22
3.2188049731325e+22
3.21880504565437e+22
3.21880511898031e+22
3.21880519311155e+22
3.21880526805262e+22
3.21880534380194e+22
3.21880542036173e+22
3.21880549773421e+22
3.21880557591915e+22
3.21880565491974e+22
3.21880573473616e+22
3.21880581536907e+22
3.21880589681982e+22
3.2188059790898e+22
3.21880606218089e+22
3.21880614609443e+22
3.21880623083172e+22
3.21880631639563e+22
3.21880640278908e+22
3.21880649001038e+22
3.21880657806038e+22
3.2188066669423e+22
3.21880675666031e+22
3.21880684720719e+22
3.21880693859028e+22
3.21880703081339e+22
3.21880712387649e+22
3.21880721778157e+22
3.21880731253333e+22
3.21880740813188e+22
3.21880750458015e+22
3.21880760188019e+22
3.21880770003533e+22
3.21880779904778e+22
3.21880789891979e+22
3.21880799965574e+22
3.21880810126099e+22
3.2188082037354e+22
3.21880830708032e+22
3.21880841129994e+22
3.21880851639785e+22
3.21880862237484e+22
3.2188087292342e+22
3.21880883697925e+22
3.21880894561488e+22
3.21880905514591e+22
3.21880916557642e+22
3.21880927690602e+22
3.2188093891377e+22
3.21880950227455e+22
3.218809616321e+22
3.21880973128315e+22
3.2188098471609e+22
3.21880996395751e+22
3.21881008167995e+22
3.21881020032833e+22
3.21881031990481e+22
3.21881044041265e+22
3.2188105618563e+22
3.21881068423062e+22
3.2188108075384e+22
3.21881093177195e+22
3.21881105693827e+22
3.21881118301551e+22
3.21881131001243e+22
3.2188114379029e+22
3.21881156667066e+22
3.21881169643673e+22
3.21881182606495e+22
3.21881195593452e+22
3.21881208737735e+22
3.21881221970366e+22
3.21881235285066e+22
3.21881248611572e+22
3.21881261962539e+22
3.21881275302021e+22
3.21881288627725e+22
3.21881302065161e+22
3.21881315676691e+22
3.21881328867603e+22
3.21881341958606e+22
3.21881355470719e+22
3.21881368276766e+22
3.21881380739084e+22
3.21881393495443e+22
3.21881405277622e+22
3.21881416642038e+22
3.21881427806878e+22
3.21881437917403e+22
3.21881447349268e+22
3.2188145637722e+22
3.21881464165472e+22
3.21881471117896e+22
3.21881477648792e+22
3.21881483127812e+22
3.2188148757992e+22
3.21881491211091e+22
3.21881493979823e+22
3.21881495910204e+22
3.21881497369437e+22
3.21881498314713e+22
3.21881499065367e+22
3.21881499204856e+22
3.21881498887413e+22
3.2188149822216e+22
3.21881497910579e+22
3.21881498187685e+22
3.21881499035866e+22
3.21881500116358e+22
3.21881501238145e+22
3.21881502221823e+22
3.2188150305513e+22
3.2188150374131e+22
3.21881504311558e+22
3.21881504783624e+22
3.21881505288741e+22
3.21881505858496e+22
3.21881506383282e+22
3.2188150684857e+22
3.21881507274321e+22
3.21881507657216e+22
3.2188150801403e+22
3.2188150833738e+22
3.21881508649809e+22
3.21881508939451e+22
3.21881509218436e+22
3.21881509474251e+22
3.21881509855372e+22
3.21881510241338e+22
3.2188151062401e+22
3.21881510981384e+22
3.21881511337983e+22
3.21881511670269e+22
3.21881512003829e+22
3.21881512313346e+22
3.21881512625655e+22
3.21881512914004e+22
3.21881513206284e+22
3.21881513474394e+22
3.21881513747481e+22
3.21881513995948e+22
3.21881514250398e+22
3.21881514479666e+22
3.21881514752184e+22
3.21881515071111e+22
3.21881515396484e+22
3.21881515696442e+22
3.21881516003758e+22
3.21881516285348e+22
3.21881516575455e+22
3.2188151683939e+22
3.21881517113007e+22
3.21881517360069e+22
3.21881517617965e+22
3.21881517849229e+22
3.21881518092401e+22
3.21881518308168e+22
3.21881518536806e+22
3.21881518737475e+22
3.21881518952199e+22
3.21881519138491e+22
3.21881519339896e+22
3.21881519512396e+22
3.2188151970125e+22
3.21881519860972e+22
3.2188152003833e+22
3.21881520190962e+22
3.21881520429796e+22
3.21881520630028e+22
3.21881520859921e+22
3.21881521048477e+22
3.21881521267936e+22
3.21881521445432e+22
3.21881521655042e+22
3.21881521822121e+22
3.2188152202258e+22
3.21881522179871e+22
3.21881522371815e+22
3.21881522519871e+22
3.21881522703728e+22
3.218815228429e+22
3.21881523019037e+22
3.21881523149776e+22
3.21881523319006e+22
3.2188152344386e+22
3.21881523610617e+22
3.21881523731195e+22
3.21881523892411e+22
3.21881524005998e+22
3.21881524161176e+22
3.21881524267883e+22
3.21881524421372e+22
3.21881524530242e+22
3.21881524682969e+22
3.21881524785108e+22
3.2188152493946e+22
3.2188152504661e+22
3.2188152520162e+22
3.21881525316049e+22
3.21881525488939e+22
3.2188152564549e+22
3.21881525934384e+22
)
;

boundaryField
{
    electrode
    {
        type            zeroGradient;
    }
    ground
    {
        type            zeroGradient;
    }
    otherfaces
    {
        type            empty;
    }
}


// ************************************************************************* //
