/*--------------------------------*- C++ -*----------------------------------*\
| =========                 |                                                 |
| \\      /  F ield         | foam-extend: Open Source CFD                    |
|  \\    /   O peration     | Version:     4.0                                |
|   \\  /    A nd           | Web:         http://www.foam-extend.org         |
|    \\/     M anipulation  |                                                 |
\*---------------------------------------------------------------------------*/
FoamFile
{
    version     2.0;
    format      ascii;
    class       volScalarField;
    location    "9.8e-06";
    object      Arm;
}
// * * * * * * * * * * * * * * * * * * * * * * * * * * * * * * * * * * * * * //

dimensions      [0 0 0 1 0 0 0];

internalField   nonuniform List<scalar> 
300
(
3.57409848469761e+15
3.57597095538394e+15
3.57791783700842e+15
3.57922419677545e+15
3.58004054754774e+15
3.58041918614456e+15
3.58040430681844e+15
3.5800273648964e+15
3.57931402377605e+15
3.57828626103025e+15
3.57695986154919e+15
3.57534891052394e+15
3.57346546237469e+15
3.57132012033521e+15
3.56892234195899e+15
3.56628066523207e+15
3.56339993109867e+15
3.56028871673743e+15
3.55695535965168e+15
3.55340634297368e+15
3.54964786815374e+15
3.5456858568251e+15
3.54152599893964e+15
3.53717370425597e+15
3.53261840277218e+15
3.52787773144926e+15
3.52295542281101e+15
3.51785352351309e+15
3.51258557801547e+15
3.50715644405882e+15
3.50155246631691e+15
3.49578497566653e+15
3.48987203249135e+15
3.48381904917971e+15
3.47763111200839e+15
3.47131301217419e+15
3.46486494949635e+15
3.45829342642629e+15
3.45160550220437e+15
3.44480472051877e+15
3.43789458922223e+15
3.43088037698194e+15
3.42376596753077e+15
3.4165550523624e+15
3.40925113152897e+15
3.4018574637752e+15
3.39437500033988e+15
3.38680516660502e+15
3.37914023586418e+15
3.37137875683867e+15
3.36350821176442e+15
3.3555410046111e+15
3.3474718384054e+15
3.33931835524189e+15
3.33108873021198e+15
3.32279928397136e+15
3.31445334725844e+15
3.30605383626699e+15
3.29760331879108e+15
3.28910222700998e+15
3.28055486194484e+15
3.27196332702268e+15
3.26332425588228e+15
3.25461977132353e+15
3.24585385077002e+15
3.23705197432988e+15
3.22821628960814e+15
3.21934863640195e+15
3.21045060057129e+15
3.20152353698985e+15
3.19256659056821e+15
3.18357263798057e+15
3.17454015010386e+15
3.16547650316467e+15
3.15636823732184e+15
3.14721638974988e+15
3.13802726734497e+15
3.12879682003315e+15
3.11954485482869e+15
3.1102410789998e+15
3.10091985357444e+15
3.09158336758753e+15
3.08222856138124e+15
3.07285764376924e+15
3.06345588679777e+15
3.05403098936705e+15
3.04459462143154e+15
3.03514710141102e+15
3.0256765923874e+15
3.01619077145425e+15
3.00668356580347e+15
2.99711024188265e+15
2.98752571750464e+15
2.97793175059948e+15
2.96832837393184e+15
2.958715613097e+15
2.94909324980346e+15
2.93946082780362e+15
2.92980746023633e+15
2.92013307559029e+15
2.91044391084027e+15
2.90074118146792e+15
2.89099333838969e+15
2.88122938019137e+15
2.87144017547974e+15
2.86161643541079e+15
2.8517730477929e+15
2.84189054781874e+15
2.83197927954559e+15
2.82204468914417e+15
2.81208492235886e+15
2.80209768116509e+15
2.79207525025639e+15
2.78201540468771e+15
2.77191588847665e+15
2.76175908223144e+15
2.75152620240907e+15
2.7412418936635e+15
2.7309070635233e+15
2.72051361100968e+15
2.71003527983932e+15
2.69948484609666e+15
2.68883350765318e+15
2.67809157091458e+15
2.6672704329198e+15
2.65636786492513e+15
2.64535591934519e+15
2.63425186208208e+15
2.62304495019714e+15
2.6117330914656e+15
2.60030070082928e+15
2.58874387875339e+15
2.57705758154707e+15
2.56521574706197e+15
2.55318206226065e+15
2.54097522100174e+15
2.5285991142741e+15
2.51602877977592e+15
2.50324540930496e+15
2.49025800209212e+15
2.47705062726324e+15
2.4636065958481e+15
2.44989379859004e+15
2.43588015424093e+15
2.42154113473645e+15
2.40689635849188e+15
2.39193103421628e+15
2.37662876905057e+15
2.36095901639025e+15
2.3448730692997e+15
2.32838313109419e+15
2.31146445291233e+15
2.29405499372663e+15
2.27615338628512e+15
2.25774134106829e+15
2.23876921630125e+15
2.21919384488643e+15
2.19901453433749e+15
2.17821212243966e+15
2.15674173007837e+15
2.13456777668309e+15
2.11167507091793e+15
2.08802553002851e+15
2.06363152206222e+15
2.03848001556607e+15
2.01251671008669e+15
1.98576230820185e+15
1.9582612880179e+15
1.93004268276861e+15
1.90114849272843e+15
1.87164717746095e+15
1.8415722803921e+15
1.81101623017299e+15
1.78015040703472e+15
1.74916865091291e+15
1.71824088591672e+15
1.68754632130097e+15
1.65728400164796e+15
1.62769244597105e+15
1.59892741241893e+15
1.5711431650895e+15
1.54448661569244e+15
1.51903935231773e+15
1.49491583392344e+15
1.47211599771078e+15
1.4505501423643e+15
1.43025762065361e+15
1.41118808601837e+15
1.39325584429743e+15
1.37638043403579e+15
1.36046858216535e+15
1.34557282518278e+15
1.3321915092253e+15
1.3254237334176e+15
1.3514346346891e+15
1.41747303178333e+15
1.49774715027105e+15
1.56502891940162e+15
1.62883651945987e+15
1.7041186901115e+15
1.7924816250345e+15
1.88722240692435e+15
1.96811905057295e+15
1.99088414772001e+15
1.95753620465195e+15
1.89070425331527e+15
1.81637567418957e+15
1.7526913231596e+15
1.70546176559056e+15
1.67348442287498e+15
1.65271486938445e+15
1.64027689274815e+15
1.6323723225394e+15
1.62875793167433e+15
1.62694959306299e+15
1.62536164129499e+15
1.624714322924e+15
1.62435285666618e+15
1.62381421729274e+15
1.62284074806692e+15
1.62123568956316e+15
1.61822682641075e+15
1.6139612597723e+15
1.60873778690266e+15
1.60262071164262e+15
1.59576394928047e+15
1.58821611507877e+15
1.58001406264176e+15
1.5712162329567e+15
1.56189095706336e+15
1.5520864740125e+15
1.54186775410775e+15
1.53130450925409e+15
1.52044881866172e+15
1.50935456135752e+15
1.49808990521843e+15
1.48668769391949e+15
1.47521197683197e+15
1.46369317970518e+15
1.45217823930701e+15
1.44070009156708e+15
1.42928142758303e+15
1.41796484638143e+15
1.40676180360311e+15
1.39570103727937e+15
1.38481750033435e+15
1.37411415906526e+15
1.36361256206526e+15
1.35332664877345e+15
1.34325775329506e+15
1.33342027306691e+15
1.32380771953513e+15
1.3144031169954e+15
1.30523434867283e+15
1.29630948770764e+15
1.28763516288195e+15
1.27921408696141e+15
1.27103238258093e+15
1.26309794724516e+15
1.25540060038333e+15
1.24794022616046e+15
1.2406944169673e+15
1.23364564373653e+15
1.22678357011531e+15
1.22012352978866e+15
1.21365953429816e+15
1.20738169341107e+15
1.20128452166961e+15
1.1953550710509e+15
1.18959666623539e+15
1.18399881561339e+15
1.17856322922709e+15
1.17327229585623e+15
1.16812826759655e+15
1.16311747475804e+15
1.15823692038375e+15
1.15348350106106e+15
1.14885589907973e+15
1.14435481379119e+15
1.13997272630961e+15
1.13570727500765e+15
1.13151701944311e+15
1.12725837446298e+15
1.12284182686705e+15
1.11845806070066e+15
1.11415736259357e+15
1.10994839820861e+15
1.10583553085865e+15
1.10181032443712e+15
1.0974691633533e+15
1.09274050747552e+15
1.08811741363788e+15
1.08361167751939e+15
1.07848303398932e+15
1.07304979291937e+15
1.0675591181201e+15
1.06100513037271e+15
1.05388468285953e+15
1.04563010329028e+15
1.03552192503028e+15
)
;

boundaryField
{
    electrode
    {
        type            zeroGradient;
    }
    ground
    {
        type            zeroGradient;
    }
    otherfaces
    {
        type            empty;
    }
}


// ************************************************************************* //
