/*--------------------------------*- C++ -*----------------------------------*\
| =========                 |                                                 |
| \\      /  F ield         | foam-extend: Open Source CFD                    |
|  \\    /   O peration     | Version:     4.0                                |
|   \\  /    A nd           | Web:         http://www.foam-extend.org         |
|    \\/     M anipulation  |                                                 |
\*---------------------------------------------------------------------------*/
FoamFile
{
    version     2.0;
    format      ascii;
    class       volScalarField;
    location    "9.8e-06";
    object      Arp1;
}
// * * * * * * * * * * * * * * * * * * * * * * * * * * * * * * * * * * * * * //

dimensions      [0 0 0 1 0 0 0];

internalField   nonuniform List<scalar> 
300
(
6.90141540554904e+16
6.90566550010514e+16
6.90292081166799e+16
6.90230347978958e+16
6.9011983841601e+16
6.8996407602308e+16
6.8978077959418e+16
6.89562682583028e+16
6.89310809228995e+16
6.89025329388329e+16
6.88706053302224e+16
6.88352993375632e+16
6.87966117632369e+16
6.87545391244246e+16
6.87090781836598e+16
6.8660225414267e+16
6.86079771480845e+16
6.85523295677122e+16
6.8493278698944e+16
6.84308204159038e+16
6.83649504411913e+16
6.82956643476628e+16
6.82229575598709e+16
6.81468253552447e+16
6.80672628660481e+16
6.79842650812109e+16
6.78978268474993e+16
6.78079428719348e+16
6.77146077236881e+16
6.76178158357752e+16
6.75175615072789e+16
6.74138389059189e+16
6.7306642069732e+16
6.71959649095935e+16
6.70818012119913e+16
6.69641446409024e+16
6.68429887406999e+16
6.67183269389736e+16
6.65901525486595e+16
6.64584587712128e+16
6.63232386996322e+16
6.618448532077e+16
6.60421915187698e+16
6.58963500781684e+16
6.57469536865407e+16
6.55939949380614e+16
6.54374663368635e+16
6.52773602997638e+16
6.51136691601e+16
6.49463851712618e+16
6.4775500509514e+16
6.46010072781459e+16
6.44228975109742e+16
6.42411631756259e+16
6.40557961774566e+16
6.3866788363491e+16
6.36741315258534e+16
6.34778174056457e+16
6.32778376972494e+16
6.30741840515953e+16
6.28668480805085e+16
6.26558213608988e+16
6.2441095438234e+16
6.22226618309959e+16
6.20005120349288e+16
6.1774637526644e+16
6.15450297681945e+16
6.13116802113634e+16
6.10745803013928e+16
6.08337214815474e+16
6.05890951975658e+16
6.03406929014194e+16
6.00885060559367e+16
5.98325261392624e+16
5.95727446486348e+16
5.93091531051772e+16
5.90417430581964e+16
5.87705060892291e+16
5.84954338164806e+16
5.82165178994536e+16
5.7933750042902e+16
5.7647122001155e+16
5.73566255828314e+16
5.70622526546994e+16
5.67639951460432e+16
5.64618450532583e+16
5.61557944436892e+16
5.58458354600049e+16
5.55319603246273e+16
5.52141613435176e+16
5.4892430910518e+16
5.45667615116264e+16
5.42371457288868e+16
5.39035762443044e+16
5.35660458443188e+16
5.32245474233423e+16
5.28790739878294e+16
5.25296186604101e+16
5.2176174683386e+16
5.18187354226801e+16
5.14572943718406e+16
5.10918451555228e+16
5.07223815331005e+16
5.03488974027119e+16
4.99713868046868e+16
4.95898439250246e+16
4.92042630991713e+16
4.8814638815112e+16
4.8420965718087e+16
4.802323861573e+16
4.76214524762472e+16
4.72156024202307e+16
4.68056837572988e+16
4.63916920542907e+16
4.59736229741486e+16
4.55514718960047e+16
4.51252347583613e+16
4.46949103196749e+16
4.42604955708463e+16
4.38219726920558e+16
4.33793325366286e+16
4.29326413632823e+16
4.24818637998717e+16
4.20269623708706e+16
4.15679379873547e+16
4.11047847385148e+16
4.06374958904736e+16
4.01660649631876e+16
3.96904857664538e+16
3.92107524618136e+16
3.87268595900407e+16
3.82388020929116e+16
3.7746575337587e+16
3.7250175145072e+16
3.67495978235401e+16
3.6244840208284e+16
3.57358997091937e+16
3.52227743669016e+16
3.47054629199834e+16
3.41839648848599e+16
3.36582806507557e+16
3.31284115934548e+16
3.25943602101208e+16
3.20561302830782e+16
3.15137270678205e+16
3.09671575393838e+16
3.04164306363405e+16
2.98615576732664e+16
2.93025525703635e+16
2.87394327107631e+16
2.81722187453754e+16
2.76009369041649e+16
2.70256166458244e+16
2.64462979875093e+16
2.58630207968917e+16
2.52758485348275e+16
2.46848303337492e+16
2.40900724952862e+16
2.34916251463849e+16
2.28896736303403e+16
2.2284251828969e+16
2.16756672148096e+16
2.10639498664996e+16
2.04494353928239e+16
1.98324000240037e+16
1.92118174706284e+16
1.8599281793366e+16
1.79914460611701e+16
1.73755691362507e+16
1.67590194927339e+16
1.61427596730342e+16
1.55341737060311e+16
1.4932346932193e+16
1.43411728293763e+16
1.37610807307735e+16
1.31794322850506e+16
1.25892633879458e+16
1.20487322584493e+16
1.15240395164353e+16
1.09605185003142e+16
1.0467143189898e+16
1.00032008042705e+16
9.49948342939213e+15
9.07620326482435e+15
8.67064226126264e+15
8.25363425659835e+15
7.90305077680804e+15
7.57430857542812e+15
7.23388877818698e+15
6.96073576810672e+15
6.7117798423084e+15
6.44480805999036e+15
6.22363782028744e+15
6.0438876497286e+15
5.86353190171015e+15
5.68544719938488e+15
5.53952566720377e+15
5.42269927869375e+15
5.33596842092205e+15
5.23817713830494e+15
5.17561224176009e+15
5.14186536105453e+15
5.14805161819326e+15
5.17114332003731e+15
5.18697818128388e+15
5.17552498577666e+15
5.14564020553696e+15
5.09925778743752e+15
5.04925653771652e+15
4.99852248550708e+15
4.95102076456237e+15
4.90663334583014e+15
4.86744788680178e+15
4.82061878550747e+15
4.76549040799478e+15
4.71462055387037e+15
4.66874878197807e+15
4.62653841780772e+15
4.58878743495646e+15
4.5540775634258e+15
4.52334519113239e+15
4.49510915172403e+15
4.47040970428516e+15
4.44773511009759e+15
4.42827267150489e+15
4.3970211315093e+15
4.36597796065333e+15
4.33592016544126e+15
4.30898960432542e+15
4.28266567443944e+15
4.25925381147862e+15
4.23613009660146e+15
4.21575651286052e+15
4.19539734703431e+15
4.17767369045594e+15
4.15972813138284e+15
4.1443379705528e+15
4.12852415177012e+15
4.1152159037623e+15
4.10130597619262e+15
4.08987761600882e+15
4.07406504353664e+15
4.05350953227021e+15
4.03219596068245e+15
4.01328140851705e+15
3.9934537866479e+15
3.97601827823428e+15
3.95752912480592e+15
3.94144112695358e+15
3.92416753951114e+15
3.90931762543095e+15
3.89315908697692e+15
3.87945524182741e+15
3.86432430757689e+15
3.85168955167228e+15
3.83751663956953e+15
3.82588691943621e+15
3.81261182474805e+15
3.80193222833906e+15
3.78950374205759e+15
3.77972826472928e+15
3.76810241635164e+15
3.75919222925554e+15
3.74833125451619e+15
3.73974043984253e+15
3.7223330616314e+15
3.70859917332043e+15
3.69171820152366e+15
3.67880272222301e+15
3.66262557988858e+15
3.65048379587934e+15
3.63496804599217e+15
3.62356035872787e+15
3.60866745203278e+15
3.59795785236588e+15
3.58365239832026e+15
3.57360834796601e+15
3.55985806251647e+15
3.55044947631725e+15
3.53722520409881e+15
3.52842380294553e+15
3.51569789190894e+15
3.5074777338782e+15
3.49522488370773e+15
3.48755696458336e+15
3.47574197719833e+15
3.46859797625537e+15
3.4571985651617e+15
3.45055836435953e+15
3.4395557034175e+15
3.43340226960882e+15
3.42275735279976e+15
3.41705366312483e+15
3.40675134995634e+15
3.40147345401354e+15
3.3914667356893e+15
3.38658086741251e+15
3.37641453643151e+15
3.36901503103388e+15
3.35023267761082e+15
)
;

boundaryField
{
    electrode
    {
        type            driftDiffusionPositiveIonDensity;
        seec            0;
        fieldName       Arp1;
        value           uniform 6.88302879036337e+16;
    }
    ground
    {
        type            driftDiffusionPositiveIonDensity;
        seec            0;
        fieldName       Arp1;
        value           uniform 3.35023267761082e+15;
    }
    otherfaces
    {
        type            empty;
    }
}


// ************************************************************************* //
