/*--------------------------------*- C++ -*----------------------------------*\
| =========                 |                                                 |
| \\      /  F ield         | foam-extend: Open Source CFD                    |
|  \\    /   O peration     | Version:     4.0                                |
|   \\  /    A nd           | Web:         http://www.foam-extend.org         |
|    \\/     M anipulation  |                                                 |
\*---------------------------------------------------------------------------*/
FoamFile
{
    version     2.0;
    format      ascii;
    class       volScalarField;
    location    "9.8e-06";
    object      electron;
}
// * * * * * * * * * * * * * * * * * * * * * * * * * * * * * * * * * * * * * //

dimensions      [0 0 0 1 0 0 0];

internalField   nonuniform List<scalar> 
300
(
6.90254593993218e+16
6.90234841206605e+16
6.90184986831511e+16
6.90101108914679e+16
6.89983841796027e+16
6.89832936955455e+16
6.89648334433713e+16
6.89430029905389e+16
6.89177992608709e+16
6.88892197028781e+16
6.88572616184197e+16
6.88219220988762e+16
6.87831980947871e+16
6.87410863947871e+16
6.86955836279563e+16
6.8646686265772e+16
6.85943906224719e+16
6.8538692856156e+16
6.84795889698778e+16
6.84170748128045e+16
6.83511460814726e+16
6.82817983211172e+16
6.82090269270873e+16
6.81328271463454e+16
6.80531940790403e+16
6.79701226801654e+16
6.78836077613e+16
6.77936439924165e+16
6.77002259037724e+16
6.76033478878805e+16
6.75030042015567e+16
6.73991889680381e+16
6.72918961791768e+16
6.71811196977087e+16
6.70668532595905e+16
6.69490904764163e+16
6.68278248378956e+16
6.67030497144029e+16
6.65747583596039e+16
6.64429439131356e+16
6.63075994033563e+16
6.61687177501656e+16
6.60262917678786e+16
6.58803141681673e+16
6.57307775630654e+16
6.55776744680196e+16
6.54209973050069e+16
6.52607384057094e+16
6.50968900147354e+16
6.49294442928967e+16
6.47583933205333e+16
6.45837291008858e+16
6.44054435635201e+16
6.42235285677924e+16
6.40379759063515e+16
6.3848777308686e+16
6.36559244447133e+16
6.34594089283954e+16
6.32592223213878e+16
6.30553561367274e+16
6.284780184254e+16
6.26365508657763e+16
6.24215945959715e+16
6.22029243890188e+16
6.19805315709667e+16
6.1754407441826e+16
6.15245432793845e+16
6.12909303430309e+16
6.10535598775845e+16
6.08124231171193e+16
6.0567511288788e+16
6.03188156166389e+16
6.0066327325415e+16
5.98100376443427e+16
5.95499378108985e+16
5.92860190745486e+16
5.90182727004586e+16
5.87466899731718e+16
5.84712622002473e+16
5.81919807158434e+16
5.79088368842567e+16
5.76218221034065e+16
5.73309278082507e+16
5.703614547413e+16
5.67374666200374e+16
5.64348828118014e+16
5.61283856651759e+16
5.58179668488356e+16
5.550361808725e+16
5.51853311634474e+16
5.48630979216485e+16
5.45369102697562e+16
5.42067601817036e+16
5.38726396996349e+16
5.35345409359104e+16
5.31924560749332e+16
5.28463773747637e+16
5.24962971685224e+16
5.21422078655619e+16
5.17841019523838e+16
5.14219719932922e+16
5.10558106307575e+16
5.06856105854697e+16
5.03113646560589e+16
4.99330657184583e+16
4.95507067248848e+16
4.91642807024057e+16
4.87737807510701e+16
4.8379200041556e+16
4.79805318122694e+16
4.7577769365924e+16
4.7170906065705e+16
4.67599353306838e+16
4.63448506294871e+16
4.59256454735962e+16
4.55023134156284e+16
4.50748480456067e+16
4.46432429542322e+16
4.4207491695711e+16
4.37675879151238e+16
4.3323525446955e+16
4.28752973587734e+16
4.24228945309755e+16
4.1966305878165e+16
4.15055195853438e+16
4.10405236795655e+16
4.05713061005966e+16
4.00978546982258e+16
3.96201572087913e+16
3.91382012238892e+16
3.86519741551027e+16
3.81614631952885e+16
3.76666552762971e+16
3.71675370228452e+16
3.66640947021717e+16
3.6156314169079e+16
3.56441808059217e+16
3.5127679457051e+16
3.46067943571839e+16
3.40815090531224e+16
3.35518063181746e+16
3.30176680585918e+16
3.24790752112714e+16
3.19360076319087e+16
3.13884439727465e+16
3.08363615489767e+16
3.02797361929076e+16
2.97185420947476e+16
2.91527516293633e+16
2.85823351673712e+16
2.80072608711039e+16
2.74274944720306e+16
2.68429990345305e+16
2.62537346962647e+16
2.56596584036049e+16
2.50607236133783e+16
2.44568800145894e+16
2.3848073195173e+16
2.32342443820084e+16
2.26153300892344e+16
2.19912618952734e+16
2.13619660906227e+16
2.07273630606606e+16
2.00873660970668e+16
1.94418746741586e+16
1.87907590624814e+16
1.81337662957096e+16
1.74704066017098e+16
1.68000731356222e+16
1.6122253176185e+16
1.54365436443741e+16
1.47425532294106e+16
1.40398387599126e+16
1.33279297782862e+16
1.26064326079863e+16
1.1875264569494e+16
1.11349743181474e+16
1.03866757987154e+16
9.6318589781981e+15
8.87293284906531e+15
8.1134867383279e+15
7.3578528832206e+15
6.61138043835722e+15
5.88056492833582e+15
5.17248271723838e+15
4.4945711249111e+15
3.85439305051754e+15
3.25901659798058e+15
2.71457172277494e+15
2.22577323060746e+15
1.7953969930571e+15
1.42417344181897e+15
1.11082157093791e+15
852127470373396
643354157547845
478526354287852
351134980529798
254755669987335
183150955964114
130594338713853
90847197258043.3
61597382502521.1
41039675944555.8
26340927744629.3
16143328984531
9610274021540.05
5774464652839.98
3662505031812.09
2525542237326.29
1906232817405.54
1559475224190.84
1360031505396.09
1243428467383.79
1175293397899.65
1136460983408.15
1115680792485.36
1105943101328.7
1102701384404.67
1102860380270.36
1104803821943.33
1107219045642.78
1109171912268.96
1110063560146.4
1109625685641.66
1107576895598.91
1103788898449.01
1098216056107.79
1090873377565.96
1081817400708.87
1071134510748.38
1058932052087.45
1045331567244.17
1030463482138.04
1014462912654.66
997466327169.652
979608929832.522
961022315118.02
941832962445.037
922155560134.507
902090413623.462
881738634547.295
861203035019.805
840579124776.124
819955275350.364
799411434584.882
779018877227.107
758840465170.819
738931030925.383
719337833974.974
700101055494.922
681254319517.567
662825267696.319
644836249215.66
627304773793.758
610243683319.742
593663536423.053
577568368807.722
561955373045.605
546824068560.222
532173036925.651
517996561530.883
504287260236.893
491036206820.968
478233431399.516
465868453544.493
453930437999.164
442408412412.308
431291134739.772
420567015489.886
410224268440.441
400250505044.297
390633123008.748
381348965773.323
372373430644.399
363693846664.516
355301178138.465
347187641765.633
339346153280.313
331770246479.339
324454120101.868
317392691045.73
310581694423.989
304017081617.734
297694713507.63
291595197387.054
285686280407.191
279959017653.362
274427788709.681
269109588513.439
264022674337.198
259135954856.906
254429308583.306
249954627651.464
245742740219.559
241813792495.119
238258820608.503
235212191842.694
232949185989.457
231978628700.947
233137927948.419
)
;

boundaryField
{
    electrode
    {
        type            driftDiffusionElectronDensity;
        seec            0.05;
        Edepend         1;
        field_emission  0;
        field_enhancement_factor 55;
        work_function   5;
        value           uniform 6.90254593993219e+16;
    }
    ground
    {
        type            driftDiffusionElectronDensity;
        seec            0.05;
        Edepend         1;
        field_emission  0;
        field_enhancement_factor 55;
        work_function   5;
        value           uniform 235389488147.49;
    }
    otherfaces
    {
        type            empty;
    }
}


// ************************************************************************* //
