/*--------------------------------*- C++ -*----------------------------------*\
| =========                 |                                                 |
| \\      /  F ield         | foam-extend: Open Source CFD                    |
|  \\    /   O peration     | Version:     4.0                                |
|   \\  /    A nd           | Web:         http://www.foam-extend.org         |
|    \\/     M anipulation  |                                                 |
\*---------------------------------------------------------------------------*/
FoamFile
{
    version     2.0;
    format      ascii;
    class       volVectorField;
    location    "9.8e-06";
    object      J_Arp1;
}
// * * * * * * * * * * * * * * * * * * * * * * * * * * * * * * * * * * * * * //

dimensions      [1 -1 -1 0 0 0 0];

internalField   nonuniform List<vector> 
300
(
(2.20459196204855e+16 -0 -0)
(7.79899948154468e+16 -0 -0)
(1.38504729603531e+17 -0 -0)
(1.92726625727156e+17 -0 -0)
(2.476146989187e+17 -0 -0)
(3.02835392745239e+17 -0 -0)
(3.5791067541675e+17 -0 -0)
(4.13040922696126e+17 -0 -0)
(4.68196200723862e+17 -0 -0)
(5.23374617526522e+17 -0 -0)
(5.78583237841481e+17 -0 -0)
(6.33823593403191e+17 -0 -0)
(6.89098445463325e+17 -0 -0)
(7.44410542004757e+17 -0 -0)
(7.99762503107496e+17 -0 -0)
(8.55156961964036e+17 -0 -0)
(9.10596521687656e+17 -0 -0)
(9.66083757333478e+17 -0 -0)
(1.02162121646467e+18 -0 -0)
(1.07721141674405e+18 -0 -0)
(1.13285684470419e+18 -0 -0)
(1.18855995451045e+18 -0 -0)
(1.24432316620193e+18 -0 -0)
(1.30014886447178e+18 -0 -0)
(1.35603939732682e+18 -0 -0)
(1.41199707438584e+18 -0 -0)
(1.46802416564181e+18 -0 -0)
(1.52412290028382e+18 -0 -0)
(1.58029546492665e+18 -0 -0)
(1.63654400240579e+18 -0 -0)
(1.69287061021071e+18 -0 -0)
(1.74927733940055e+18 -0 -0)
(1.80576619294298e+18 -0 -0)
(1.86233912449807e+18 -0 -0)
(1.91899803705706e+18 -0 -0)
(1.97574478130951e+18 -0 -0)
(2.03258115482128e+18 -0 -0)
(2.08950890010932e+18 -0 -0)
(2.14652970354806e+18 -0 -0)
(2.20364519425177e+18 -0 -0)
(2.26085694239028e+18 -0 -0)
(2.31816645802469e+18 -0 -0)
(2.37557518996125e+18 -0 -0)
(2.43308452403109e+18 -0 -0)
(2.49069578218646e+18 -0 -0)
(2.54841022120312e+18 -0 -0)
(2.6062290311038e+18 -0 -0)
(2.66415333418003e+18 -0 -0)
(2.72218418361388e+18 -0 -0)
(2.7803225622908e+18 -0 -0)
(2.83856938162718e+18 -0 -0)
(2.89692548023623e+18 -0 -0)
(2.95539162262066e+18 -0 -0)
(3.0139684982686e+18 -0 -0)
(3.07265672029977e+18 -0 -0)
(3.1314568242605e+18 -0 -0)
(3.19036926686625e+18 -0 -0)
(3.2493944252197e+18 -0 -0)
(3.30853259530827e+18 -0 -0)
(3.36778399091064e+18 -0 -0)
(3.42714874269409e+18 -0 -0)
(3.48662689680521e+18 -0 -0)
(3.54621841401329e+18 -0 -0)
(3.60592316854004e+18 -0 -0)
(3.66574094680101e+18 -0 -0)
(3.72567144666298e+18 -0 -0)
(3.78571427611335e+18 -0 -0)
(3.84586895238617e+18 -0 -0)
(3.90613490069368e+18 -0 -0)
(3.96651145351189e+18 -0 -0)
(4.02699784912495e+18 -0 -0)
(4.08759323102537e+18 -0 -0)
(4.14829664661113e+18 -0 -0)
(4.20910704628448e+18 -0 -0)
(4.27002328239576e+18 -0 -0)
(4.33104410826658e+18 -0 -0)
(4.39216817725205e+18 -0 -0)
(4.45339404146876e+18 -0 -0)
(4.51472015104367e+18 -0 -0)
(4.5761448532338e+18 -0 -0)
(4.63766639100636e+18 -0 -0)
(4.69928290228884e+18 -0 -0)
(4.76099241887287e+18 -0 -0)
(4.82279286559146e+18 -0 -0)
(4.88468205882785e+18 -0 -0)
(4.94665770607808e+18 -0 -0)
(5.00871740427203e+18 -0 -0)
(5.07085863908014e+18 -0 -0)
(5.13307878384349e+18 -0 -0)
(5.19537509819497e+18 -0 -0)
(5.25774472716157e+18 -0 -0)
(5.32018469998102e+18 -0 -0)
(5.38269192869803e+18 -0 -0)
(5.44526320728109e+18 -0 -0)
(5.50789521013634e+18 -0 -0)
(5.57058449077672e+18 -0 -0)
(5.63332748082299e+18 -0 -0)
(5.69612048823718e+18 -0 -0)
(5.75895969616082e+18 -0 -0)
(5.82184116138489e+18 -0 -0)
(5.88476081266099e+18 -0 -0)
(5.9477144493978e+18 -0 -0)
(6.01069773964735e+18 -0 -0)
(6.07370621873996e+18 -0 -0)
(6.13673528721629e+18 -0 -0)
(6.19978020901178e+18 -0 -0)
(6.26283610951338e+18 -0 -0)
(6.32589797295904e+18 -0 -0)
(6.38896064106105e+18 -0 -0)
(6.45201881200588e+18 -0 -0)
(6.51506703560871e+18 -0 -0)
(6.57809970141781e+18 -0 -0)
(6.64111104838449e+18 -0 -0)
(6.70409521687471e+18 -0 -0)
(6.76704618598159e+18 -0 -0)
(6.82995746056819e+18 -0 -0)
(6.89282234482534e+18 -0 -0)
(6.95563569462801e+18 -0 -0)
(7.01839253074854e+18 -0 -0)
(7.08107825373577e+18 -0 -0)
(7.14367592446897e+18 -0 -0)
(7.20621841315638e+18 -0 -0)
(7.26874287012798e+18 -0 -0)
(7.33125350726092e+18 -0 -0)
(7.39374220271405e+18 -0 -0)
(7.45619975108686e+18 -0 -0)
(7.51861663755115e+18 -0 -0)
(7.58098307195058e+18 -0 -0)
(7.64328906070024e+18 -0 -0)
(7.70552441090714e+18 -0 -0)
(7.76767872434234e+18 -0 -0)
(7.82974139020854e+18 -0 -0)
(7.89170157633842e+18 -0 -0)
(7.95354822025956e+18 -0 -0)
(8.01527001963316e+18 -0 -0)
(8.07685542200756e+18 -0 -0)
(8.13829261405294e+18 -0 -0)
(8.19956951033113e+18 -0 -0)
(8.26067374095358e+18 -0 -0)
(8.32159263895296e+18 -0 -0)
(8.3823132267007e+18 -0 -0)
(8.44282220157701e+18 -0 -0)
(8.50310592058445e+18 -0 -0)
(8.56315038510567e+18 -0 -0)
(8.62294122168284e+18 -0 -0)
(8.68246366964385e+18 -0 -0)
(8.74170254848286e+18 -0 -0)
(8.80064226942009e+18 -0 -0)
(8.85926674355831e+18 -0 -0)
(8.91755951325711e+18 -0 -0)
(8.97550340302735e+18 -0 -0)
(9.0330811706734e+18 -0 -0)
(9.0902741119314e+18 -0 -0)
(9.14706474717216e+18 -0 -0)
(9.20343156354059e+18 -0 -0)
(9.25935878038197e+18 -0 -0)
(9.31481855709437e+18 -0 -0)
(9.36980217801589e+18 -0 -0)
(9.42426698949833e+18 -0 -0)
(9.47822319691021e+18 -0 -0)
(9.53159847396071e+18 -0 -0)
(9.58443477776808e+18 -0 -0)
(9.63663364279005e+18 -0 -0)
(9.68821622524593e+18 -0 -0)
(9.73924262853472e+18 -0 -0)
(9.78889773143e+18 -0 -0)
(9.83977543064517e+18 -0 -0)
(9.88810919144755e+18 -0 -0)
(9.93608375378641e+18 -0 -0)
(9.98386247408099e+18 -0 -0)
(1.00300227381845e+19 -0 -0)
(1.00769021141622e+19 -0 -0)
(1.01212996662088e+19 -0 -0)
(1.01667876056117e+19 -0 -0)
(1.02100863279247e+19 -0 -0)
(1.0252732818218e+19 -0 -0)
(1.02913519480876e+19 -0 -0)
(1.0338895583042e+19 -0 -0)
(1.03726779851548e+19 -0 -0)
(1.04089026591645e+19 -0 -0)
(1.04538431015693e+19 -0 -0)
(1.048310309223e+19 -0 -0)
(1.05145715149156e+19 -0 -0)
(1.05560724679906e+19 -0 -0)
(1.05768398734919e+19 -0 -0)
(1.06093468875348e+19 -0 -0)
(1.0637324220168e+19 -0 -0)
(1.06615479605549e+19 -0 -0)
(1.06816849968185e+19 -0 -0)
(1.07127847568828e+19 -0 -0)
(1.07276293750913e+19 -0 -0)
(1.07521617927831e+19 -0 -0)
(1.07756051932155e+19 -0 -0)
(1.08011470405062e+19 -0 -0)
(1.08255672402588e+19 -0 -0)
(1.08571085196282e+19 -0 -0)
(1.08949589813414e+19 -0 -0)
(1.09417079353332e+19 -0 -0)
(1.10067603424579e+19 -0 -0)
(1.10943719465103e+19 -0 -0)
(1.12427911087315e+19 -0 -0)
(1.14270449001273e+19 -0 -0)
(1.16795144228106e+19 -0 -0)
(1.19536596974719e+19 -0 -0)
(1.2193709102838e+19 -0 -0)
(1.24073201770047e+19 -0 -0)
(1.25915011742491e+19 -0 -0)
(1.27159578346775e+19 -0 -0)
(1.28112679622619e+19 -0 -0)
(1.28851921482752e+19 -0 -0)
(1.29489076696328e+19 -0 -0)
(1.30033687043207e+19 -0 -0)
(1.30554642415151e+19 -0 -0)
(1.31022129900622e+19 -0 -0)
(1.31500698083941e+19 -0 -0)
(1.31956244298659e+19 -0 -0)
(1.32423335329073e+19 -0 -0)
(1.32875546379747e+19 -0 -0)
(1.33345620306272e+19 -0 -0)
(1.33801340811944e+19 -0 -0)
(1.34277830000469e+19 -0 -0)
(1.34738148716555e+19 -0 -0)
(1.35219324231229e+19 -0 -0)
(1.3568107951957e+19 -0 -0)
(1.36165269100641e+19 -0 -0)
(1.36619432276238e+19 -0 -0)
(1.37107272024033e+19 -0 -0)
(1.37556889009076e+19 -0 -0)
(1.38040568280341e+19 -0 -0)
(1.38481877875537e+19 -0 -0)
(1.38958604372555e+19 -0 -0)
(1.39388723647995e+19 -0 -0)
(1.39855843253238e+19 -0 -0)
(1.40272205229629e+19 -0 -0)
(1.40727535692651e+19 -0 -0)
(1.41128114966975e+19 -0 -0)
(1.41569856263318e+19 -0 -0)
(1.41953154823508e+19 -0 -0)
(1.4238009471352e+19 -0 -0)
(1.42745021508956e+19 -0 -0)
(1.43156628251973e+19 -0 -0)
(1.43501691623638e+19 -0 -0)
(1.43895847193916e+19 -0 -0)
(1.44224394632663e+19 -0 -0)
(1.44601974335808e+19 -0 -0)
(1.44911143621935e+19 -0 -0)
(1.45272822188587e+19 -0 -0)
(1.45562822594904e+19 -0 -0)
(1.45909038893597e+19 -0 -0)
(1.46180248964616e+19 -0 -0)
(1.46511588993024e+19 -0 -0)
(1.46764607356487e+19 -0 -0)
(1.47081746122829e+19 -0 -0)
(1.47317146363059e+19 -0 -0)
(1.47620847287522e+19 -0 -0)
(1.47839441043514e+19 -0 -0)
(1.48130553241104e+19 -0 -0)
(1.48333136321316e+19 -0 -0)
(1.48612507209612e+19 -0 -0)
(1.48799895708736e+19 -0 -0)
(1.49068409402481e+19 -0 -0)
(1.49241414218135e+19 -0 -0)
(1.49499963590456e+19 -0 -0)
(1.49659419007024e+19 -0 -0)
(1.49909027411751e+19 -0 -0)
(1.50044708470678e+19 -0 -0)
(1.50306697783695e+19 -0 -0)
(1.50420224012544e+19 -0 -0)
(1.50674997309273e+19 -0 -0)
(1.50776368814756e+19 -0 -0)
(1.51024575146744e+19 -0 -0)
(1.51114385663399e+19 -0 -0)
(1.513566531882e+19 -0 -0)
(1.51435454111974e+19 -0 -0)
(1.51672365956307e+19 -0 -0)
(1.51740657449912e+19 -0 -0)
(1.51972767170123e+19 -0 -0)
(1.52031015001817e+19 -0 -0)
(1.52258821352918e+19 -0 -0)
(1.52307474753407e+19 -0 -0)
(1.52531409070661e+19 -0 -0)
(1.52570845395321e+19 -0 -0)
(1.52791307065115e+19 -0 -0)
(1.52821881004188e+19 -0 -0)
(1.53039013511324e+19 -0 -0)
(1.5306052667968e+19 -0 -0)
(1.53274381007626e+19 -0 -0)
(1.53287087409847e+19 -0 -0)
(1.53497971666773e+19 -0 -0)
(1.53502184829004e+19 -0 -0)
(1.53710454710016e+19 -0 -0)
(1.53705496850967e+19 -0 -0)
(1.53910514782478e+19 -0 -0)
(1.53896679060429e+19 -0 -0)
(1.54098306099395e+19 -0 -0)
(1.54074365770573e+19 -0 -0)
(1.54271950782741e+19 -0 -0)
(1.54218074902958e+19 -0 -0)
(1.54444654439018e+19 -0 -0)
(1.54172626840878e+19 -0 -0)
)
;

boundaryField
{
    electrode
    {
        type            calculated;
        value           uniform (-13365862163.3849 -0 -0);
    }
    ground
    {
        type            calculated;
        value           uniform (1.54463398243809e+19 -0 -0);
    }
    otherfaces
    {
        type            empty;
    }
}


// ************************************************************************* //
