/*--------------------------------*- C++ -*----------------------------------*\
| =========                 |                                                 |
| \\      /  F ield         | foam-extend: Open Source CFD                    |
|  \\    /   O peration     | Version:     4.0                                |
|   \\  /    A nd           | Web:         http://www.foam-extend.org         |
|    \\/     M anipulation  |                                                 |
\*---------------------------------------------------------------------------*/
FoamFile
{
    version     2.0;
    format      ascii;
    class       volScalarField;
    location    "9.8e-06";
    object      PhiMean;
}
// * * * * * * * * * * * * * * * * * * * * * * * * * * * * * * * * * * * * * //

dimensions      [0 0 0 1 0 0 0];

internalField   nonuniform List<scalar> 
300
(
699.992456040585
699.991614472572
699.990493458352
699.989119772269
699.987502388633
699.985635085183
699.98351785625
699.981149851943
699.978530178166
699.975658139499
699.97253306635
699.969154350231
699.965521423826
699.961633753708
699.957490834673
699.953092182987
699.948437331335
699.94352582506
699.938357217639
699.932931066462
699.92724692966
699.921304362811
699.915102915904
699.908642130201
699.901921534806
699.894940649407
699.887698977719
699.880196004354
699.872431193816
699.864403985124
699.85611378776
699.84755998785
699.838741943017
699.829658973075
699.820310357279
699.810695331345
699.800813084089
699.790662755254
699.780243432037
699.769554145053
699.758593865932
699.747361505178
699.735855907202
699.724075847444
699.712020029211
699.699687080694
699.687075551737
699.6741839114
699.661010545127
699.647553754202
699.633811754096
699.619782679029
699.605464575106
699.590855399645
699.575953009932
699.560755157926
699.545259481917
699.529463501857
699.513364615288
699.496960092507
699.480247072282
699.463222557476
699.445883409792
699.428226344575
699.410247937691
699.391944619816
699.373312659469
699.354348158259
699.335047045647
699.315405073363
699.295417809461
699.275080631819
699.254388728796
699.233337095206
699.211920517358
699.190133571445
699.167970624451
699.145425823088
699.122493085163
699.099166080293
699.075438239471
699.051302729235
699.026752441117
699.001779983994
698.976377671753
698.950537522648
698.924251245237
698.89751022
698.870305486617
698.842627737216
698.814467300386
698.785814126515
698.756657795207
698.726987477468
698.696791918208
698.666059420814
698.634777828854
698.60293450875
698.570516328505
698.537509639992
698.503900258798
698.469673438663
698.434813844874
698.399305545286
698.363131969385
698.326275881661
698.288719356852
698.250443740166
698.211429623784
698.171656804395
698.131104241439
698.08975001815
698.047571296868
698.004544278273
697.960644153596
697.915845046273
697.870119969355
697.823440770279
697.775778055014
697.727101116074
697.677377858073
697.62657473095
697.574656638554
697.521586869592
697.467326991041
697.411836729639
697.355073855613
697.296994068934
697.237550851834
697.176695323798
697.114376081998
697.050539029777
696.985127184585
696.91808046655
696.849335474697
696.778825263364
696.706479049547
696.632221904739
696.555974409819
696.477652298322
696.397166038394
696.314420375447
696.229313827434
696.141738117666
696.051577557553
695.958708360073
695.86299782772
695.76430345986
695.662471932374
695.55733794836
695.448722976622
695.336433753986
695.220260591336
695.099975462472
694.975329753059
694.846051661048
694.711843285408
694.57237703976
694.42729180085
694.276187674509
694.118621039084
693.954094916139
693.782039529128
693.601800723865
693.4126262057
693.2136483421
693.003841100377
692.781989668544
692.546699945628
692.296362143736
692.029091613773
691.742686741447
691.434595201944
691.101852972486
690.741054850601
690.348450909111
689.919878097236
689.450646034033
688.935705237426
688.36971338227
687.747024175226
687.061814149145
686.30832943118
685.480841138907
684.573922280278
683.582652358784
682.502515443701
681.329628020771
680.060970002737
678.694086597832
677.227071233798
675.658841286951
673.988928250638
672.217241763441
670.343888889204
668.369372497503
666.294185368057
664.118753180682
661.843408818796
659.468510106552
656.994392031
654.421331033887
651.749268089739
648.978160019136
646.108152302736
643.139704386909
640.073501882511
636.9103927676
633.651301897862
630.297132723328
626.848753501033
623.306955966743
619.672524035445
615.946278245017
612.129153555782
608.222053210612
604.225822785466
600.141222251151
595.968965106099
591.709688356744
587.363992738309
582.932410190738
578.41544549505
573.813541772794
569.127123449584
564.356618356486
559.502642683898
554.56576430161
549.546544961292
544.445489055874
539.263100768881
533.999829937023
528.656131828974
523.232411126786
517.7290825776
512.146511086915
506.485075222116
500.745104652803
494.926946069515
489.030897927623
483.057278846883
477.006359900281
470.878459358716
464.673977076655
458.393361563898
452.037010276624
445.605346408529
439.0987419208
432.517596997122
425.862260155661
419.133110531228
412.330474901528
405.454713027906
398.506131367625
391.485071743801
384.39182152028
377.226705780665
369.989993867751
362.681995145047
355.302961874092
347.853188566878
340.332911251883
332.74241037548
325.081906387643
317.351666390684
309.551898340475
301.682903431424
293.744947161808
285.738375554806
277.663480507663
269.520616744178
261.310061979252
253.032159031713
244.687171405646
236.275430731165
227.797186896679
219.252761004318
210.642389900669
201.966384764282
193.224969938551
184.418447235372
175.547028961537
166.611008095102
157.610585342662
148.54604542598
139.417577982031
130.225460068214
120.969870646029
111.651079558408
102.269255433459
92.8246612944364
83.3174559043413
73.7478962023454
64.1161315715816
54.4224131897588
44.6668816805719
34.8497833797555
24.9712507211818
15.0315268188083
5.03074580892209
)
;

boundaryField
{
    electrode
    {
        type            calculated;
        value           uniform 699.99999999933;
    }
    ground
    {
        type            calculated;
        value           uniform 0;
    }
    otherfaces
    {
        type            empty;
    }
}


// ************************************************************************* //
