/*--------------------------------*- C++ -*----------------------------------*\
| =========                 |                                                 |
| \\      /  F ield         | foam-extend: Open Source CFD                    |
|  \\    /   O peration     | Version:     4.0                                |
|   \\  /    A nd           | Web:         http://www.foam-extend.org         |
|    \\/     M anipulation  |                                                 |
\*---------------------------------------------------------------------------*/
FoamFile
{
    version     2.0;
    format      ascii;
    class       volScalarField;
    location    "9.8e-06";
    object      Sy_electron;
}
// * * * * * * * * * * * * * * * * * * * * * * * * * * * * * * * * * * * * * //

dimensions      [1 -3 -1 0 0 0 0];

internalField   nonuniform List<scalar> 
300
(
3.04554136694186e-09
3.04618005069369e-09
3.04639453281277e-09
3.04628063799438e-09
3.04617094979813e-09
3.04599922819086e-09
3.0457731136285e-09
3.04549740871085e-09
3.04516988856945e-09
3.04479067635876e-09
3.04435951421059e-09
3.04387604779739e-09
3.04333996555451e-09
3.0427509283059e-09
3.04210858372148e-09
3.04141256700396e-09
3.04066249936238e-09
3.03985798839981e-09
3.03899862797434e-09
3.03808399808775e-09
3.03711366481145e-09
3.03608718018776e-09
3.03500408213844e-09
3.03386389437483e-09
3.0326661262632e-09
3.03141027280889e-09
3.03009581448602e-09
3.02872221714241e-09
3.02728893192488e-09
3.02579539513183e-09
3.02424102809107e-09
3.02262523711231e-09
3.0209474133378e-09
3.01920693259919e-09
3.01740315530578e-09
3.01553542631962e-09
3.01360307481755e-09
3.01160541417493e-09
3.00954174182029e-09
3.00741133908417e-09
3.00521347105471e-09
3.00294738643665e-09
3.000612317385e-09
2.99820747934472e-09
2.99573207089381e-09
2.99318527356193e-09
2.99056625164858e-09
2.98787415205931e-09
2.98510810408808e-09
2.98226721924653e-09
2.97935059104111e-09
2.97635729481215e-09
2.97328638745669e-09
2.97013690726403e-09
2.96690787363292e-09
2.96359828685732e-09
2.96020712783832e-09
2.95673335784843e-09
2.95317591826019e-09
2.94953373026624e-09
2.94580569458992e-09
2.94199069118217e-09
2.93808757889694e-09
2.93409519515187e-09
2.93001235564783e-09
2.92583785401266e-09
2.92157046136401e-09
2.91720892595913e-09
2.91275197280413e-09
2.90819830323625e-09
2.90354659448485e-09
2.89879549922259e-09
2.89394364510954e-09
2.88898963430542e-09
2.8839320429262e-09
2.87876942055435e-09
2.87350028967253e-09
2.86812314506574e-09
2.86263645326597e-09
2.85703865180505e-09
2.85132814872928e-09
2.84550332176939e-09
2.83956251765499e-09
2.83350405138025e-09
2.82732620538211e-09
2.8210272287731e-09
2.81460533645289e-09
2.80805870818606e-09
2.80138548765232e-09
2.79458378150309e-09
2.78765165828056e-09
2.78058714728526e-09
2.7733882376454e-09
2.76605287690045e-09
2.75857896981424e-09
2.75096437706606e-09
2.74320691386754e-09
2.73530434851341e-09
2.72725440083708e-09
2.71905474064026e-09
2.71070298599954e-09
2.70219670147735e-09
2.69353339621767e-09
2.68471052210496e-09
2.67572547155961e-09
2.66657557540989e-09
2.6572581006161e-09
2.64777024777007e-09
2.63810914864738e-09
2.62827186340339e-09
2.6182553775907e-09
2.60805659937508e-09
2.59767235706759e-09
2.5870993946331e-09
2.57633436384452e-09
2.56537382598141e-09
2.55421427235683e-09
2.54285209387051e-09
2.53128344389876e-09
2.51950438947468e-09
2.50751173578498e-09
2.49586802969297e-09
2.48576842528529e-09
2.4754606675569e-09
2.46493931958093e-09
2.45419924425017e-09
2.44323520053378e-09
2.43204178649243e-09
2.42061341734264e-09
2.40894431116549e-09
2.39702847684437e-09
2.38485970186179e-09
2.37243153929945e-09
2.35973729391117e-09
2.34677000723164e-09
2.33352244161631e-09
2.31998706290576e-09
2.3061560218415e-09
2.292021134091e-09
2.27757385870499e-09
2.26280527476266e-09
2.24770605624922e-09
2.23226644486926e-09
2.21647622064653e-09
2.20032467016057e-09
2.18380055204851e-09
2.16689205977183e-09
2.14958678081336e-09
2.13187165356107e-09
2.11373291810922e-09
2.09515606787129e-09
2.07612578723945e-09
2.05662590230512e-09
2.03663929394575e-09
2.01614786252295e-09
1.99513238949362e-09
1.97357255014713e-09
1.95144667665165e-09
1.92873187507422e-09
1.90540367668461e-09
1.88143626572886e-09
1.85680266212369e-09
1.83147506138003e-09
1.80543205314978e-09
1.77866386258637e-09
1.7512775609387e-09
1.72341922996117e-09
1.69486599267721e-09
1.66520413699815e-09
1.63612021655101e-09
1.60609820588886e-09
1.57502959659927e-09
1.54282721967537e-09
1.50924865580995e-09
1.47378382584769e-09
1.43570042499441e-09
1.3950363921163e-09
1.35226954408898e-09
1.30632646044733e-09
1.25652225443835e-09
1.20407335204571e-09
1.14870993411195e-09
1.08706493493808e-09
1.02390774537803e-09
9.60996247841627e-10
8.99736997886105e-10
8.43094239261059e-10
7.91815390193628e-10
7.4515010279741e-10
7.15447281660999e-10
6.96328904655857e-10
6.99922256143029e-10
7.18402625303732e-10
7.66079633640661e-10
8.50700327820921e-10
9.84909928064949e-10
1.20061736976298e-09
1.55346388011376e-09
2.15681476877902e-09
3.23893670003462e-09
4.57074703407127e-09
5.77446865580314e-09
7.05687997228125e-09
7.36956277052569e-09
6.59724179632486e-09
5.3180455747059e-09
4.01412165516752e-09
3.02510143763047e-09
2.33605623346357e-09
1.90253268953706e-09
1.63736515355477e-09
1.47530599691521e-09
1.37772954190161e-09
1.32208736958595e-09
1.29521334317557e-09
1.27946933212429e-09
1.2751562323726e-09
1.27740868024962e-09
1.28288244695771e-09
1.28985223239051e-09
1.29688725038992e-09
1.30159622431913e-09
1.30426929035454e-09
1.30523484495277e-09
1.304178625135e-09
1.30096301273409e-09
1.29554433386162e-09
1.28794840302297e-09
1.27824847117191e-09
1.26655190185169e-09
1.2529899686682e-09
1.23771008553696e-09
1.22086968302806e-09
1.20263136914954e-09
1.18315906975207e-09
1.16261500490338e-09
1.14115695247815e-09
1.11893659497468e-09
1.09609144058753e-09
1.07274152350234e-09
1.04900807933351e-09
1.02501459398822e-09
1.00087571923809e-09
9.76697659113393e-10
9.52576601967714e-10
9.28598430771978e-10
9.04839035515255e-10
8.81364766171586e-10
8.58232970731447e-10
8.35492578897218e-10
8.13184715864116e-10
7.91251316735987e-10
7.69776830027633e-10
7.48848538348982e-10
7.28481771608534e-10
7.08689134252583e-10
6.89475443772253e-10
6.7083734881461e-10
6.52774275555591e-10
6.35284530780223e-10
6.18361290127851e-10
6.01995741172437e-10
5.86175805430763e-10
5.70741481628978e-10
5.55809679065902e-10
5.41368166095719e-10
5.27404511901113e-10
5.13905921330884e-10
5.00859137519719e-10
4.88250633677871e-10
4.76066108299406e-10
4.64291125386465e-10
4.52898457248208e-10
4.41859100542296e-10
4.31158479010535e-10
4.20786158746593e-10
4.1073310301142e-10
4.00991032869151e-10
3.91552329932576e-10
3.82410085983909e-10
3.73558154930051e-10
3.6499126843196e-10
3.56704300065336e-10
3.48340657779542e-10
3.39904985907538e-10
3.31673785980789e-10
3.23635799057956e-10
3.1580635440029e-10
3.08202526859208e-10
3.00820513939893e-10
2.9235575714594e-10
2.84060556551517e-10
2.75986634485405e-10
2.67458830785259e-10
2.57650984082685e-10
2.48165744833811e-10
2.35848519223394e-10
2.22339990835367e-10
2.05124502622543e-10
1.80253354485132e-10
)
;

boundaryField
{
    electrode
    {
        type            zeroGradient;
    }
    ground
    {
        type            zeroGradient;
    }
    otherfaces
    {
        type            empty;
    }
}


// ************************************************************************* //
