/*--------------------------------*- C++ -*----------------------------------*\
| =========                 |                                                 |
| \\      /  F ield         | foam-extend: Open Source CFD                    |
|  \\    /   O peration     | Version:     4.0                                |
|   \\  /    A nd           | Web:         http://www.foam-extend.org         |
|    \\/     M anipulation  |                                                 |
\*---------------------------------------------------------------------------*/
FoamFile
{
    version     2.0;
    format      ascii;
    class       volScalarField;
    location    "9.8e-06";
    object      TeMean;
}
// * * * * * * * * * * * * * * * * * * * * * * * * * * * * * * * * * * * * * //

dimensions      [0 0 0 1 0 0 0];

internalField   nonuniform List<scalar> 
300
(
36942.8074889928
36943.0981006246
36943.2412959849
36943.2746346121
36943.3407313915
36943.4173768453
36943.5075750457
36943.613796329
36943.7358062174
36943.8740854903
36944.0290069737
36944.2009132254
36944.3901512005
36944.5970469658
36944.8219188221
36945.0650764383
36945.3268198099
36945.6074424317
36945.9072310072
36946.2264653358
36946.5654201399
36946.9243637101
36947.3035594814
36947.7032655788
36948.123734568
36948.5652206658
36949.0279749923
36949.5122438722
36950.0182744665
36950.5463072228
36951.0965750565
36951.6693193953
36952.2647886192
36952.8832252922
36953.5248698568
36954.189958069
36954.8787262649
36955.5914172021
36956.3282744122
36957.0895393139
36957.8754525566
36958.6862614807
36959.522214856
36960.3835611168
36961.2705507246
36962.1834360671
36963.1224712348
36964.0879114906
36965.0800112576
36966.0990241408
36967.1452031534
36968.2188104074
36969.3201226255
36970.4494192832
36971.6069858562
36972.7931178264
36974.0081104793
36975.2522603228
36976.5258736748
36977.8292626894
36979.1627444744
36980.5266471632
36981.9212942546
36983.3470114561
36984.8041499003
36986.2930766236
36987.8141626476
36989.3677844657
36990.9543266755
36992.5741854025
36994.2277632522
36995.9154638418
36997.6377090004
36999.3949365722
37001.1875867239
37003.0161038586
37004.8809551211
37006.7826356312
37008.7216437728
37010.6984854626
37012.7136969216
37014.767831783
37016.8614472047
37018.995109172
37021.1693993275
37023.3849302237
37025.642342847
37027.9422890512
37030.2854336562
37032.6724677644
37035.1040949379
37037.5810393689
37040.1040780947
37042.6740017787
37045.2916180663
37047.9577747716
37050.6733417389
37053.4392186334
37056.2563323997
37059.1256439424
37062.0481590298
37065.024899874
37068.0569233202
37071.1453469795
37074.2913251895
37077.4960497984
37080.7607537147
37084.0867176841
37087.4752797007
37090.9278274735
37094.4458029197
37098.030703175
37101.6840794195
37105.4075592904
37109.2028298525
37113.071638753
37117.015804085
37121.0372355609
37125.1379393262
37129.3199830193
37133.5855204766
37137.9368054026
37142.3761868875
37146.9061374341
37151.5292644456
37156.2482878415
37161.066041916
37165.9855127084
37171.0098447805
37176.1423257624
37181.386409706
37186.7457444144
37192.2241805842
37197.8257497839
37203.5547010455
37209.415569589
37215.4131659336
37221.5525759562
37227.8391942484
37234.2787581073
37240.8773772644
37247.6415603346
37254.5782498825
37261.6948581413
37268.9993406994
37276.5002709745
37284.2068851184
37292.1291558694
37300.2778272937
37308.6645326955
37317.301963863
37326.2039345371
37335.3855303329
37344.8633439164
37354.6555799218
37364.7823512987
37375.2659396025
37386.1313349971
37397.4068325598
37409.1256430057
37421.3335741664
37434.0877359932
37447.4447866297
37461.4630757271
37476.2213663104
37491.8233316982
37508.3505271258
37525.8563973869
37544.4380588571
37564.2381119136
37585.388375702
37608.0095250593
37632.2319598417
37658.1109286145
37685.651215401
37715.0522436767
37746.6052076089
37780.5039955052
37817.1840701986
37857.5592335945
37902.9519388994
37955.4972908343
38018.7245879669
38097.8373768405
38200.7002775809
38339.1698103157
38530.337642411
38799.3442174377
39183.7537273049
39739.6757667129
40552.396059721
41755.5103262876
43563.0426877082
46378.8402950963
50618.8047094909
56586.7473283738
65239.0456616402
77097.3502522647
93108.8036561088
113662.12247584
138811.030701818
168466.384726766
202532.627639417
240408.301436441
282225.18804874
328153.286667089
377800.552441936
429747.308758203
481731.972510445
531467.149976244
577323.23388522
618521.836538418
654955.309570024
686941.275930023
714986.331003497
739609.661589675
761339.757794044
780671.649997999
798007.905024156
813672.705060265
827920.97655322
840967.050789672
853000.190028812
864174.196271364
874617.329577279
884434.496387724
893711.792283493
902520.109864551
910917.649712009
918952.12795231
926662.442996546
934080.027840166
941229.94122833
948131.710803218
954800.096083961
961245.738067079
967475.644482352
973493.641054041
979301.02935625
984895.702505201
990272.932408314
995426.852016114
1000349.8240179
1005032.75827679
1009465.12682252
1013635.07995347
1017529.44124182
1021133.98685704
1024433.65055847
1027412.38806012
1030053.72162195
1032340.66783159
1034255.47697923
1035779.89445665
1036894.87001197
1037581.24455238
1037812.94258726
1037583.37684466
1036868.71345654
1035647.1985232
1033898.08304774
1031600.66707954
1028734.08819034
1025277.22291313
1021208.62021312
1016506.75856446
1011149.58075126
1005114.53830722
998379.14300268
990920.424620937
982714.965083655
973739.009746772
963966.735222424
953372.11597858
941929.154920677
929609.282109816
916382.479140915
902217.003074599
887079.270539469
870933.584786837
853741.944991665
835463.905805118
816058.67973529
795482.926284053
773683.301607777
750602.682738476
726179.615159113
700339.271642866
673001.985142904
644082.712535375
613472.97797495
581046.680090621
546667.583263699
510151.221474612
471272.716135297
429750.849801041
385192.364044014
337049.712467565
284525.775440035
226571.115940832
)
;

boundaryField
{
    electrode
    {
        type            calculated;
        value           uniform 36942.8074889941;
    }
    ground
    {
        type            calculated;
        value           uniform 193706.407962867;
    }
    otherfaces
    {
        type            empty;
    }
}


// ************************************************************************* //
