/*--------------------------------*- C++ -*----------------------------------*\
| =========                 |                                                 |
| \\      /  F ield         | foam-extend: Open Source CFD                    |
|  \\    /   O peration     | Version:     4.0                                |
|   \\  /    A nd           | Web:         http://www.foam-extend.org         |
|    \\/     M anipulation  |                                                 |
\*---------------------------------------------------------------------------*/
FoamFile
{
    version     2.0;
    format      ascii;
    class       volVectorField;
    location    "6e-10";
    object      E;
}
// * * * * * * * * * * * * * * * * * * * * * * * * * * * * * * * * * * * * * //

dimensions      [0 0 0 1 0 0 0];

internalField   nonuniform List<vector> 
249
(
(-0 13594.9828502987 -0)
(-0 9062.99913164263 -0)
(-0 9062.999064915 -0)
(-0 9062.99907917342 -0)
(-0 9062.99908118202 -0)
(-0 9062.99908231898 -0)
(-0 9062.99908375673 -0)
(-0 9062.99908585094 -0)
(-0 9062.99909043662 -0)
(-0 9062.99908859728 -0)
(-0 9062.99908555656 -0)
(-0 9062.99908903217 -0)
(-0 9062.99909180757 -0)
(-0 9062.99909253549 -0)
(-0 9062.99909792954 -0)
(-0 9062.99910085 -0)
(-0 9062.99909945568 -0)
(-0 9062.99910234833 -0)
(-0 9062.99909878133 -0)
(-0 9062.99909169983 -0)
(-0 9062.99908919782 -0)
(-0 9062.99909039319 -0)
(-0 9062.99909882754 -0)
(-0 9062.99910506293 -0)
(-0 9062.99910957055 -0)
(-0 9062.99911248347 -0)
(-0 9062.99911710771 -0)
(-0 9062.99912253412 -0)
(-0 9062.99911717058 -0)
(-0 9062.99911585495 -0)
(-0 9062.99911691498 -0)
(-0 9062.99911500833 -0)
(-0 9062.99911447956 -0)
(-0 9062.99911701507 -0)
(-0 9062.99911632345 -0)
(-0 9062.99911621188 -0)
(-0 9062.99911890911 -0)
(-0 9062.99911852302 -0)
(-0 9062.99911943871 -0)
(-0 9062.99911957168 -0)
(-0 9062.9991244232 -0)
(-0 9062.99913410866 -0)
(-0 9062.99913873115 -0)
(-0 9062.99914319421 -0)
(-0 9062.99914946278 -0)
(-0 9062.99915685044 -0)
(-0 9062.99916309151 -0)
(-0 9062.99916918494 -0)
(-0 9062.99917264152 -0)
(-0 9062.99917195062 -0)
(-0 9062.99917744434 -0)
(-0 9062.99918304404 -0)
(-0 9062.99918600018 -0)
(-0 9062.99918678031 -0)
(-0 9062.99918915566 -0)
(-0 9062.99919457721 -0)
(-0 9062.99919811113 -0)
(-0 9062.99920005542 -0)
(-0 9062.99920172694 -0)
(-0 9062.99920602519 -0)
(-0 9062.99921016936 -0)
(-0 9062.99920964988 -0)
(-0 9062.99920867051 -0)
(-0 9062.99921437557 -0)
(-0 9062.99922068985 -0)
(-0 9062.99922462289 -0)
(-0 9062.99922954834 -0)
(-0 9062.99923436273 -0)
(-0 9062.99924056473 -0)
(-0 9062.99924292715 -0)
(-0 9062.99924492336 -0)
(-0 9062.99924759598 -0)
(-0 9062.99924937606 -0)
(-0 9062.99925582394 -0)
(-0 9062.99925972244 -0)
(-0 9062.99926169981 -0)
(-0 9062.99926451947 -0)
(-0 9062.99926572095 -0)
(-0 9062.99926736951 -0)
(-0 9062.99926905118 -0)
(-0 9062.99927266823 -0)
(-0 9062.99927453931 -0)
(-0 9062.99927671852 -0)
(-0 9062.99928028098 -0)
(-0 9062.99928309133 -0)
(-0 9062.99928526743 -0)
(-0 9062.99928618188 -0)
(-0 9062.99928905096 -0)
(-0 9062.9992893595 -0)
(-0 9062.99928903834 -0)
(-0 9062.99929277886 -0)
(-0 9062.99929996746 -0)
(-0 9062.9993039584 -0)
(-0 9062.99930297965 -0)
(-0 9062.99930496344 -0)
(-0 9062.99931096524 -0)
(-0 9062.99931410626 -0)
(-0 9062.99931460484 -0)
(-0 9062.99931464227 -0)
(-0 9062.99931622467 -0)
(-0 9062.99932049271 -0)
(-0 9062.99932442203 -0)
(-0 9062.99933084591 -0)
(-0 9062.99933709112 -0)
(-0 9062.99933950463 -0)
(-0 9062.99934122558 -0)
(-0 9062.99934411182 -0)
(-0 9062.99934642772 -0)
(-0 9062.99934848368 -0)
(-0 9062.99935261627 -0)
(-0 9062.99935846961 -0)
(-0 9062.99936002946 -0)
(-0 9062.99936171133 -0)
(-0 9062.99936629391 -0)
(-0 9062.99936762546 -0)
(-0 9062.99936668785 -0)
(-0 9062.99936741143 -0)
(-0 9062.99937342317 -0)
(-0 9062.99938212098 -0)
(-0 9062.99938518506 -0)
(-0 9062.99938377699 -0)
(-0 9062.99938602051 -0)
(-0 9062.9993870336 -0)
(-0 9062.99939016635 -0)
(-0 9062.99939452145 -0)
(-0 9062.99939498611 -0)
(-0 9062.99939851094 -0)
(-0 9062.99940065334 -0)
(-0 9062.99940394551 -0)
(-0 9062.99940656003 -0)
(-0 9062.99940798402 -0)
(-0 9062.99940978086 -0)
(-0 9062.99941321676 -0)
(-0 9062.99941738286 -0)
(-0 9062.9994187204 -0)
(-0 9062.99942156612 -0)
(-0 9062.999424825 -0)
(-0 9062.99942771455 -0)
(-0 9062.99942880891 -0)
(-0 9062.99942716282 -0)
(-0 9062.99942953518 -0)
(-0 9062.99943635942 -0)
(-0 9062.99944177145 -0)
(-0 9062.99944259615 -0)
(-0 9062.99944399264 -0)
(-0 9062.99945045519 -0)
(-0 9062.99945529276 -0)
(-0 9062.99945782476 -0)
(-0 9062.99946171725 -0)
(-0 9062.99946619748 -0)
(-0 9062.99946923819 -0)
(-0 9062.99947153941 -0)
(-0 9062.99947484565 -0)
(-0 9062.99947868769 -0)
(-0 9062.99948120481 -0)
(-0 9062.99948367435 -0)
(-0 9062.99948689871 -0)
(-0 9062.99949107286 -0)
(-0 9062.99949501376 -0)
(-0 9062.99949971958 -0)
(-0 9062.99950550262 -0)
(-0 9062.99950727671 -0)
(-0 9062.99950733751 -0)
(-0 9062.99950986351 -0)
(-0 9062.99951295345 -0)
(-0 9062.99951611617 -0)
(-0 9062.99951888723 -0)
(-0 9062.99952201438 -0)
(-0 9062.99952631138 -0)
(-0 9062.99952854353 -0)
(-0 9062.99953029569 -0)
(-0 9062.99953414292 -0)
(-0 9062.99953842689 -0)
(-0 9062.99954351218 -0)
(-0 9062.99954810097 -0)
(-0 9062.99955307935 -0)
(-0 9062.99955809476 -0)
(-0 9062.99956152756 -0)
(-0 9062.99956460922 -0)
(-0 9062.99956703658 -0)
(-0 9062.99956905718 -0)
(-0 9062.99957255883 -0)
(-0 9062.99957795723 -0)
(-0 9062.99958117621 -0)
(-0 9062.99958500129 -0)
(-0 9062.99959028429 -0)
(-0 9062.99959332191 -0)
(-0 9062.9995967123 -0)
(-0 9062.99959938348 -0)
(-0 9062.99960178209 -0)
(-0 9062.99960548725 -0)
(-0 9062.99960945606 -0)
(-0 9062.99961190699 -0)
(-0 9062.99961199881 -0)
(-0 9062.99961441397 -0)
(-0 9062.99961944985 -0)
(-0 9062.99962463896 -0)
(-0 9062.99962842186 -0)
(-0 9062.99963107173 -0)
(-0 9062.99963371396 -0)
(-0 9062.99963678197 -0)
(-0 9062.99964164786 -0)
(-0 9062.99964612022 -0)
(-0 9062.99964924551 -0)
(-0 9062.9996524223 -0)
(-0 9062.99965601496 -0)
(-0 9062.99965973417 -0)
(-0 9062.999664142 -0)
(-0 9062.99966847953 -0)
(-0 9062.99967302675 -0)
(-0 9062.99967830747 -0)
(-0 9062.99968268139 -0)
(-0 9062.99968650958 -0)
(-0 9062.99969006461 -0)
(-0 9062.9996940088 -0)
(-0 9062.99969802456 -0)
(-0 9062.99970191914 -0)
(-0 9062.99970597479 -0)
(-0 9062.99970893445 -0)
(-0 9062.99971215695 -0)
(-0 9062.99971621777 -0)
(-0 9062.99972028151 -0)
(-0 9062.99972422695 -0)
(-0 9062.99972726499 -0)
(-0 9062.99973064795 -0)
(-0 9062.99973520674 -0)
(-0 9062.99973970929 -0)
(-0 9062.99974342561 -0)
(-0 9062.99974698227 -0)
(-0 9062.99975127514 -0)
(-0 9062.99975583063 -0)
(-0 9062.99976006455 -0)
(-0 9062.99976423458 -0)
(-0 9062.99976833533 -0)
(-0 9062.99977218854 -0)
(-0 9062.99977619375 -0)
(-0 9062.99978072112 -0)
(-0 9062.99978539737 -0)
(-0 9062.99978961579 -0)
(-0 9062.99979370641 -0)
(-0 9062.99979772567 -0)
(-0 9062.99980192217 -0)
(-0 9062.99980620386 -0)
(-0 9062.99981054036 -0)
(-0 9062.99981439564 -0)
(-0 9062.99982057963 -0)
(-0 9062.99982157495 -0)
(-0 9062.99989349685 -0)
(-0 13594.4523596818 -0)
)
;

boundaryField
{
    dielectric_2
    {
        type            calculated;
        value           nonuniform 0();
    }
    dielectric_1
    {
        type            calculated;
        value           nonuniform 0();
    }
    otherfaces
    {
        type            empty;
    }
    procBoundary0to1
    {
        type            processor;
        value           uniform (-0 13594.8395908841 -0);
    }
    procBoundary0to2
    {
        type            processor;
        value           uniform (-0 13594.2574549626 -0);
    }
}


// ************************************************************************* //
