/*--------------------------------*- C++ -*----------------------------------*\
| =========                 |                                                 |
| \\      /  F ield         | foam-extend: Open Source CFD                    |
|  \\    /   O peration     | Version:     4.0                                |
|   \\  /    A nd           | Web:         http://www.foam-extend.org         |
|    \\/     M anipulation  |                                                 |
\*---------------------------------------------------------------------------*/
FoamFile
{
    version     2.0;
    format      ascii;
    class       volVectorField;
    location    "6e-10";
    object      E;
}
// * * * * * * * * * * * * * * * * * * * * * * * * * * * * * * * * * * * * * //

dimensions      [0 0 0 1 0 0 0];

internalField   nonuniform List<vector> 
249
(
(-0 13592.6798577011 -0)
(-0 9061.12601570511 -0)
(-0 9061.12595581929 -0)
(-0 9061.12596449435 -0)
(-0 9061.12597483286 -0)
(-0 9061.12598703047 -0)
(-0 9061.12599930253 -0)
(-0 9061.12601165564 -0)
(-0 9061.12602405632 -0)
(-0 9061.12603651035 -0)
(-0 9061.12604901482 -0)
(-0 9061.12606157765 -0)
(-0 9061.12607419256 -0)
(-0 9061.12608684222 -0)
(-0 9061.12609953365 -0)
(-0 9061.12611229043 -0)
(-0 9061.12612510512 -0)
(-0 9061.12613796033 -0)
(-0 9061.12615085855 -0)
(-0 9061.12616381717 -0)
(-0 9061.12617682789 -0)
(-0 9061.12618989238 -0)
(-0 9061.12620302842 -0)
(-0 9061.12621621162 -0)
(-0 9061.12622943245 -0)
(-0 9061.12624271697 -0)
(-0 9061.12625607013 -0)
(-0 9061.12626947171 -0)
(-0 9061.12628292249 -0)
(-0 9061.12629643077 -0)
(-0 9061.12630997544 -0)
(-0 9061.12632358627 -0)
(-0 9061.12633725874 -0)
(-0 9061.12635097589 -0)
(-0 9061.12636475588 -0)
(-0 9061.12637859296 -0)
(-0 9061.12639247057 -0)
(-0 9061.12640639946 -0)
(-0 9061.1264203784 -0)
(-0 9061.12643441566 -0)
(-0 9061.12644851785 -0)
(-0 9061.12646267628 -0)
(-0 9061.12647688311 -0)
(-0 9061.12649114039 -0)
(-0 9061.12650546468 -0)
(-0 9061.1265198477 -0)
(-0 9061.12653423899 -0)
(-0 9061.1265486249 -0)
(-0 9061.12656305589 -0)
(-0 9061.12657755057 -0)
(-0 9061.12659210234 -0)
(-0 9061.12660672523 -0)
(-0 9061.12662139901 -0)
(-0 9061.1266361282 -0)
(-0 9061.12665092479 -0)
(-0 9061.12666576939 -0)
(-0 9061.12668067229 -0)
(-0 9061.12669564178 -0)
(-0 9061.12671066048 -0)
(-0 9061.12672575116 -0)
(-0 9061.12674090302 -0)
(-0 9061.12675610993 -0)
(-0 9061.12677136933 -0)
(-0 9061.12678669162 -0)
(-0 9061.12680208006 -0)
(-0 9061.12681754234 -0)
(-0 9061.12683306378 -0)
(-0 9061.12684864309 -0)
(-0 9061.12686427598 -0)
(-0 9061.12687998105 -0)
(-0 9061.12689575703 -0)
(-0 9061.12691161428 -0)
(-0 9061.12692755427 -0)
(-0 9061.12694355256 -0)
(-0 9061.126959622 -0)
(-0 9061.12697575326 -0)
(-0 9061.12699194158 -0)
(-0 9061.12700818556 -0)
(-0 9061.12702450501 -0)
(-0 9061.12704090531 -0)
(-0 9061.12705736103 -0)
(-0 9061.12707387611 -0)
(-0 9061.12709044205 -0)
(-0 9061.12710706176 -0)
(-0 9061.12712376876 -0)
(-0 9061.12714053569 -0)
(-0 9061.12715736118 -0)
(-0 9061.12717425426 -0)
(-0 9061.12719121602 -0)
(-0 9061.1272082396 -0)
(-0 9061.12722534301 -0)
(-0 9061.12724249956 -0)
(-0 9061.12725971423 -0)
(-0 9061.12727699753 -0)
(-0 9061.12729434518 -0)
(-0 9061.12731175795 -0)
(-0 9061.12732924351 -0)
(-0 9061.12734680952 -0)
(-0 9061.1273644326 -0)
(-0 9061.12738210076 -0)
(-0 9061.12739985144 -0)
(-0 9061.12741768318 -0)
(-0 9061.12743558585 -0)
(-0 9061.12745355015 -0)
(-0 9061.12747157833 -0)
(-0 9061.12748967024 -0)
(-0 9061.12750782787 -0)
(-0 9061.12752605977 -0)
(-0 9061.127544351 -0)
(-0 9061.12756271463 -0)
(-0 9061.12758113654 -0)
(-0 9061.12759962839 -0)
(-0 9061.12761819362 -0)
(-0 9061.12763682607 -0)
(-0 9061.1276555305 -0)
(-0 9061.12767430935 -0)
(-0 9061.12769314838 -0)
(-0 9061.12771206291 -0)
(-0 9061.12773105249 -0)
(-0 9061.12775010474 -0)
(-0 9061.12776922564 -0)
(-0 9061.12778842159 -0)
(-0 9061.12780768189 -0)
(-0 9061.12782700896 -0)
(-0 9061.12784641193 -0)
(-0 9061.12786588045 -0)
(-0 9061.1278854166 -0)
(-0 9061.12790502903 -0)
(-0 9061.12792472712 -0)
(-0 9061.12794449136 -0)
(-0 9061.12796432239 -0)
(-0 9061.12798422869 -0)
(-0 9061.12800420221 -0)
(-0 9061.12802424273 -0)
(-0 9061.12804435873 -0)
(-0 9061.12806454421 -0)
(-0 9061.12808481118 -0)
(-0 9061.12810515423 -0)
(-0 9061.12812556903 -0)
(-0 9061.12814605087 -0)
(-0 9061.12816660154 -0)
(-0 9061.12818723144 -0)
(-0 9061.1282079248 -0)
(-0 9061.12822866676 -0)
(-0 9061.12824945755 -0)
(-0 9061.12827031759 -0)
(-0 9061.12829126574 -0)
(-0 9061.12831228377 -0)
(-0 9061.1283333744 -0)
(-0 9061.12835453305 -0)
(-0 9061.12837576698 -0)
(-0 9061.12839708448 -0)
(-0 9061.12841847101 -0)
(-0 9061.12843994028 -0)
(-0 9061.12846148523 -0)
(-0 9061.12848310711 -0)
(-0 9061.12850479972 -0)
(-0 9061.12852657194 -0)
(-0 9061.12854842005 -0)
(-0 9061.12857034696 -0)
(-0 9061.12859235099 -0)
(-0 9061.12861443134 -0)
(-0 9061.12863659752 -0)
(-0 9061.12865883895 -0)
(-0 9061.12868115338 -0)
(-0 9061.12870355303 -0)
(-0 9061.12872601913 -0)
(-0 9061.12874855992 -0)
(-0 9061.12877118331 -0)
(-0 9061.12879388704 -0)
(-0 9061.12881667815 -0)
(-0 9061.12883953923 -0)
(-0 9061.12886247604 -0)
(-0 9061.12888549014 -0)
(-0 9061.12890858908 -0)
(-0 9061.12893175851 -0)
(-0 9061.12895501066 -0)
(-0 9061.12897834469 -0)
(-0 9061.12900175587 -0)
(-0 9061.12902524657 -0)
(-0 9061.12904881428 -0)
(-0 9061.12907246483 -0)
(-0 9061.12909618907 -0)
(-0 9061.12911999607 -0)
(-0 9061.12914388194 -0)
(-0 9061.1291678466 -0)
(-0 9061.12919189244 -0)
(-0 9061.12921601632 -0)
(-0 9061.12924021807 -0)
(-0 9061.12926449719 -0)
(-0 9061.12928885692 -0)
(-0 9061.12931329866 -0)
(-0 9061.12933782158 -0)
(-0 9061.12936242089 -0)
(-0 9061.12938710188 -0)
(-0 9061.12941186592 -0)
(-0 9061.12943671205 -0)
(-0 9061.12946163872 -0)
(-0 9061.12948664397 -0)
(-0 9061.12951172936 -0)
(-0 9061.12953689448 -0)
(-0 9061.12956214086 -0)
(-0 9061.12958746333 -0)
(-0 9061.1296128735 -0)
(-0 9061.12963836565 -0)
(-0 9061.12966393979 -0)
(-0 9061.1296895975 -0)
(-0 9061.12971533067 -0)
(-0 9061.12974114254 -0)
(-0 9061.12976703794 -0)
(-0 9061.12979301573 -0)
(-0 9061.12981907867 -0)
(-0 9061.12984521861 -0)
(-0 9061.129871439 -0)
(-0 9061.12989773806 -0)
(-0 9061.12992412389 -0)
(-0 9061.12995058703 -0)
(-0 9061.12997713302 -0)
(-0 9061.13000376463 -0)
(-0 9061.13003047091 -0)
(-0 9061.13005726755 -0)
(-0 9061.13008414129 -0)
(-0 9061.13011109891 -0)
(-0 9061.13013813447 -0)
(-0 9061.1301652539 -0)
(-0 9061.13019245786 -0)
(-0 9061.13021974325 -0)
(-0 9061.13024710775 -0)
(-0 9061.13027455787 -0)
(-0 9061.13030209145 -0)
(-0 9061.13032970687 -0)
(-0 9061.13035740481 -0)
(-0 9061.13038518624 -0)
(-0 9061.1304130466 -0)
(-0 9061.13044099027 -0)
(-0 9061.13046901862 -0)
(-0 9061.13049712755 -0)
(-0 9061.13052532175 -0)
(-0 9061.1305535956 -0)
(-0 9061.13058195411 -0)
(-0 9061.13061039127 -0)
(-0 9061.13063891816 -0)
(-0 9061.13066752154 -0)
(-0 9061.1306962114 -0)
(-0 9061.13072498396 -0)
(-0 9061.13075383825 -0)
(-0 9061.13078277696 -0)
(-0 9061.13081179567 -0)
(-0 9060.53550736245 -0)
)
;

boundaryField
{
    dielectric_2
    {
        type            calculated;
        value           uniform (-0 9059.94018840041 -0);
    }
    dielectric_1
    {
        type            calculated;
        value           nonuniform 0();
    }
    otherfaces
    {
        type            empty;
    }
    procBoundary3to2
    {
        type            processor;
        value           uniform (-0 13593.4228269466 -0);
    }
}


// ************************************************************************* //
