/*--------------------------------*- C++ -*----------------------------------*\
| =========                 |                                                 |
| \\      /  F ield         | foam-extend: Open Source CFD                    |
|  \\    /   O peration     | Version:     4.0                                |
|   \\  /    A nd           | Web:         http://www.foam-extend.org         |
|    \\/     M anipulation  |                                                 |
\*---------------------------------------------------------------------------*/
FoamFile
{
    version     2.0;
    format      ascii;
    class       volVectorField;
    location    "1e-09";
    object      E;
}
// * * * * * * * * * * * * * * * * * * * * * * * * * * * * * * * * * * * * * //

dimensions      [0 0 0 1 0 0 0];

internalField   nonuniform List<vector> 
250
(
(-0 22654.9115665629 -0)
(-0 15102.7595424389 -0)
(-0 15102.7593738502 -0)
(-0 15102.7593809173 -0)
(-0 15102.759394184 -0)
(-0 15102.7594297524 -0)
(-0 15102.7594272172 -0)
(-0 15102.7594258223 -0)
(-0 15102.7594234006 -0)
(-0 15102.7594590213 -0)
(-0 15102.7594802974 -0)
(-0 15102.7594743338 -0)
(-0 15102.7595080576 -0)
(-0 15102.7595582592 -0)
(-0 15102.7596210951 -0)
(-0 15102.7596947774 -0)
(-0 15102.759704556 -0)
(-0 15102.7596630438 -0)
(-0 15102.7596729038 -0)
(-0 15102.7596826774 -0)
(-0 15102.7596664994 -0)
(-0 15102.7596368149 -0)
(-0 15102.759619593 -0)
(-0 15102.7596294834 -0)
(-0 15102.7596255232 -0)
(-0 15102.759645898 -0)
(-0 15102.7596815632 -0)
(-0 15102.7596924128 -0)
(-0 15102.7597028175 -0)
(-0 15102.7597258493 -0)
(-0 15102.7597484553 -0)
(-0 15102.7597332294 -0)
(-0 15102.7597049572 -0)
(-0 15102.759688921 -0)
(-0 15102.7596747762 -0)
(-0 15102.7596466878 -0)
(-0 15102.7596429959 -0)
(-0 15102.7596781077 -0)
(-0 15102.7597136608 -0)
(-0 15102.7597250166 -0)
(-0 15102.7597498258 -0)
(-0 15102.7597741093 -0)
(-0 15102.75972019 -0)
(-0 15102.7596785394 -0)
(-0 15102.7596498398 -0)
(-0 15102.7596467417 -0)
(-0 15102.7596825229 -0)
(-0 15102.7597058265 -0)
(-0 15102.759716076 -0)
(-0 15102.7597137445 -0)
(-0 15102.7597370998 -0)
(-0 15102.7597483774 -0)
(-0 15102.7597473102 -0)
(-0 15102.7597575194 -0)
(-0 15102.7597549321 -0)
(-0 15102.7597663481 -0)
(-0 15102.7597768871 -0)
(-0 15102.7598132501 -0)
(-0 15102.7598515471 -0)
(-0 15102.7598640748 -0)
(-0 15102.7598752874 -0)
(-0 15102.7598869654 -0)
(-0 15102.7598986489 -0)
(-0 15102.7598838557 -0)
(-0 15102.7598830285 -0)
(-0 15102.7599353066 -0)
(-0 15102.7599611786 -0)
(-0 15102.7599588068 -0)
(-0 15102.759956731 -0)
(-0 15102.7599692381 -0)
(-0 15102.7600203479 -0)
(-0 15102.7600186358 -0)
(-0 15102.7600042108 -0)
(-0 15102.7600169523 -0)
(-0 15102.7600163121 -0)
(-0 15102.7600021963 -0)
(-0 15102.7599881071 -0)
(-0 15102.7600259939 -0)
(-0 15102.7600770771 -0)
(-0 15102.7600896962 -0)
(-0 15102.7601410675 -0)
(-0 15102.7601542828 -0)
(-0 15102.7601536165 -0)
(-0 15102.7601907332 -0)
(-0 15102.7601769046 -0)
(-0 15102.760149689 -0)
(-0 15102.7601482588 -0)
(-0 15102.7601733676 -0)
(-0 15102.7601722274 -0)
(-0 15102.7601458577 -0)
(-0 15102.7601596963 -0)
(-0 15102.7601727032 -0)
(-0 15102.7601726107 -0)
(-0 15102.7601856491 -0)
(-0 15102.7601983334 -0)
(-0 15102.7602367804 -0)
(-0 15102.7602621777 -0)
(-0 15102.7602482555 -0)
(-0 15102.7602349119 -0)
(-0 15102.760247481 -0)
(-0 15102.760286235 -0)
(-0 15102.7603117615 -0)
(-0 15102.7603235159 -0)
(-0 15102.7603238119 -0)
(-0 15102.7602982359 -0)
(-0 15102.7602846992 -0)
(-0 15102.7603238325 -0)
(-0 15102.7603637528 -0)
(-0 15102.760376836 -0)
(-0 15102.7604033554 -0)
(-0 15102.76043666 -0)
(-0 15102.7604563585 -0)
(-0 15102.7604756194 -0)
(-0 15102.7604828506 -0)
(-0 15102.7604976991 -0)
(-0 15102.7605238379 -0)
(-0 15102.7605374569 -0)
(-0 15102.7605582532 -0)
(-0 15102.7605845622 -0)
(-0 15102.7606109387 -0)
(-0 15102.7606377546 -0)
(-0 15102.7606522934 -0)
(-0 15102.7606476929 -0)
(-0 15102.7606618979 -0)
(-0 15102.7607013239 -0)
(-0 15102.7607355054 -0)
(-0 15102.7607441861 -0)
(-0 15102.7607461183 -0)
(-0 15102.7607473745 -0)
(-0 15102.7607488042 -0)
(-0 15102.7607828341 -0)
(-0 15102.7608164266 -0)
(-0 15102.7608374637 -0)
(-0 15102.7608714501 -0)
(-0 15102.7608865857 -0)
(-0 15102.7609014074 -0)
(-0 15102.7609356079 -0)
(-0 15102.7609633205 -0)
(-0 15102.7609911049 -0)
(-0 15102.7610259841 -0)
(-0 15102.7610605229 -0)
(-0 15102.7610758175 -0)
(-0 15102.7610846505 -0)
(-0 15102.7611006989 -0)
(-0 15102.7611101481 -0)
(-0 15102.7611125385 -0)
(-0 15102.7611151028 -0)
(-0 15102.7611240105 -0)
(-0 15102.7611459934 -0)
(-0 15102.7611613622 -0)
(-0 15102.7611832946 -0)
(-0 15102.7612179585 -0)
(-0 15102.7612332663 -0)
(-0 15102.7612362468 -0)
(-0 15102.7612522621 -0)
(-0 15102.7612678466 -0)
(-0 15102.7612707358 -0)
(-0 15102.7612735874 -0)
(-0 15102.761282252 -0)
(-0 15102.7612975221 -0)
(-0 15102.7613130512 -0)
(-0 15102.7613351262 -0)
(-0 15102.7613379826 -0)
(-0 15102.7613275747 -0)
(-0 15102.7613370087 -0)
(-0 15102.7613536837 -0)
(-0 15102.7613699364 -0)
(-0 15102.7613798684 -0)
(-0 15102.7613902106 -0)
(-0 15102.7614004948 -0)
(-0 15102.7614168762 -0)
(-0 15102.7614272491 -0)
(-0 15102.7614375833 -0)
(-0 15102.7614608758 -0)
(-0 15102.7614718633 -0)
(-0 15102.7614756858 -0)
(-0 15102.7614858951 -0)
(-0 15102.7615093354 -0)
(-0 15102.7615263935 -0)
(-0 15102.7615371469 -0)
(-0 15102.7615540395 -0)
(-0 15102.7615648673 -0)
(-0 15102.7615660853 -0)
(-0 15102.7615893461 -0)
(-0 15102.7616198717 -0)
(-0 15102.7616407842 -0)
(-0 15102.7616679762 -0)
(-0 15102.7616891971 -0)
(-0 15102.7617040478 -0)
(-0 15102.7617242511 -0)
(-0 15102.7617508638 -0)
(-0 15102.7617719545 -0)
(-0 15102.7617961346 -0)
(-0 15102.7618234773 -0)
(-0 15102.7618440252 -0)
(-0 15102.761855393 -0)
(-0 15102.7618641562 -0)
(-0 15102.7618851523 -0)
(-0 15102.7619029779 -0)
(-0 15102.761917822 -0)
(-0 15102.7619419963 -0)
(-0 15102.7619668273 -0)
(-0 15102.7619885874 -0)
(-0 15102.7620007063 -0)
(-0 15102.7620161733 -0)
(-0 15102.762034858 -0)
(-0 15102.7620504018 -0)
(-0 15102.7620721259 -0)
(-0 15102.7620939643 -0)
(-0 15102.7621158246 -0)
(-0 15102.7621411945 -0)
(-0 15102.7621667506 -0)
(-0 15102.7621891397 -0)
(-0 15102.7622051357 -0)
(-0 15102.7622241913 -0)
(-0 15102.7622435752 -0)
(-0 15102.7622663191 -0)
(-0 15102.7622921169 -0)
(-0 15102.7623083406 -0)
(-0 15102.7623261721 -0)
(-0 15102.7623505675 -0)
(-0 15102.7623719221 -0)
(-0 15102.7623902572 -0)
(-0 15102.7624120085 -0)
(-0 15102.7624305566 -0)
(-0 15102.7624459851 -0)
(-0 15102.7624660388 -0)
(-0 15102.7624843299 -0)
(-0 15102.7625046537 -0)
(-0 15102.762526186 -0)
(-0 15102.7625448787 -0)
(-0 15102.7625653984 -0)
(-0 15102.7625869728 -0)
(-0 15102.7626074185 -0)
(-0 15102.7626279647 -0)
(-0 15102.762651571 -0)
(-0 15102.7626721072 -0)
(-0 15102.762690333 -0)
(-0 15102.7627102651 -0)
(-0 15102.7627335726 -0)
(-0 15102.7627553814 -0)
(-0 15102.762770722 -0)
(-0 15102.7627857943 -0)
(-0 15102.7628043697 -0)
(-0 15102.7628243805 -0)
(-0 15102.7628455927 -0)
(-0 15102.7628756492 -0)
(-0 15102.7629115611 -0)
(-0 15102.7631482868 -0)
(-0 22656.404422036 -0)
)
;

boundaryField
{
    dielectric_2
    {
        type            calculated;
        value           nonuniform 0();
    }
    dielectric_1
    {
        type            calculated;
        value           nonuniform 0();
    }
    otherfaces
    {
        type            empty;
    }
    procBoundary2to0
    {
        type            processor;
        value           uniform (-0 22654.9084624325 -0);
    }
    procBoundary2to3
    {
        type            processor;
        value           uniform (-0 22659.1506390744 -0);
    }
}


// ************************************************************************* //
