/*--------------------------------*- C++ -*----------------------------------*\
| =========                 |                                                 |
| \\      /  F ield         | foam-extend: Open Source CFD                    |
|  \\    /   O peration     | Version:     4.0                                |
|   \\  /    A nd           | Web:         http://www.foam-extend.org         |
|    \\/     M anipulation  |                                                 |
\*---------------------------------------------------------------------------*/
FoamFile
{
    version     2.0;
    format      ascii;
    class       volScalarField;
    location    "1e-09";
    object      epsilon;
}
// * * * * * * * * * * * * * * * * * * * * * * * * * * * * * * * * * * * * * //

dimensions      [0 0 0 1 0 0 0];

internalField   uniform 8.85e-12;

boundaryField
{
    dielectric_2
    {
        type            plasmaDielectricEpsilon;
        remoteField     epsilon;
        value           nonuniform 0();
    }
    dielectric_1
    {
        type            plasmaDielectricEpsilon;
        remoteField     epsilon;
        value           nonuniform 0();
    }
    otherfaces
    {
        type            empty;
    }
    procBoundary2to0
    {
        type            processor;
        value           uniform 8.85e-12;
    }
    procBoundary2to3
    {
        type            processor;
        value           uniform 8.85e-12;
    }
}


// ************************************************************************* //
