/*--------------------------------*- C++ -*----------------------------------*\
| =========                 |                                                 |
| \\      /  F ield         | foam-extend: Open Source CFD                    |
|  \\    /   O peration     | Version:     4.0                                |
|   \\  /    A nd           | Web:         http://www.foam-extend.org         |
|    \\/     M anipulation  |                                                 |
\*---------------------------------------------------------------------------*/
FoamFile
{
    version     2.0;
    format      ascii;
    class       volScalarField;
    location    "1e-09";
    object      N_Arp1;
}
// * * * * * * * * * * * * * * * * * * * * * * * * * * * * * * * * * * * * * //

dimensions      [0 0 0 1 0 0 0];

internalField   nonuniform List<scalar> 
250
(
10089962468.5673
10106648235.2419
10041108397.2565
10026005856.0016
10023109634.2469
10022607275.3569
10022526810.2594
10022514732.406
10022513015.524
10022512781.4825
10022512749.885
10022512745.6775
10022512745.1288
10022512745.4068
10022512745.7921
10022512745.9329
10022512746.3821
10022512746.9572
10022512746.8964
10022512746.501
10022512746.4496
10022512747.0549
10022512747.5916
10022512747.2053
10022512746.5578
10022512746.1723
10022512746.1283
10022512746.3133
10022512746.1447
10022512745.9204
10022512746.1707
10022512746.4648
10022512746.5294
10022512746.5176
10022512746.6015
10022512746.5691
10022512746.3562
10022512746.6617
10022512747.0035
10022512746.4227
10022512745.6318
10022512745.6265
10022512746.0593
10022512746.4114
10022512746.6517
10022512746.7296
10022512746.8124
10022512746.923
10022512746.79
10022512746.5751
10022512746.1834
10022512745.5718
10022512745.7531
10022512746.343
10022512746.3579
10022512746.3958
10022512746.4842
10022512746.397
10022512746.4887
10022512746.3072
10022512745.8752
10022512746.0864
10022512746.5241
10022512746.6791
10022512746.8247
10022512746.7267
10022512746.4005
10022512746.3553
10022512746.4281
10022512746.4585
10022512746.6875
10022512746.5576
10022512746.2578
10022512746.4314
10022512746.5392
10022512746.494
10022512746.3263
10022512745.8721
10022512745.5432
10022512745.258
10022512745.1247
10022512745.4452
10022512745.7035
10022512745.9214
10022512745.8679
10022512745.5201
10022512745.9852
10022512746.8557
10022512746.7898
10022512746.2585
10022512746.2816
10022512746.4086
10022512746.2585
10022512746.3747
10022512746.4407
10022512746.1194
10022512746.0981
10022512746.3618
10022512746.2866
10022512745.9203
10022512745.5873
10022512745.8475
10022512746.525
10022512746.5641
10022512746.5127
10022512746.77
10022512746.5139
10022512746.2511
10022512746.2405
10022512746.0039
10022512745.9742
10022512746.24
10022512746.62
10022512747.0805
10022512747.0847
10022512746.4652
10022512745.9519
10022512746.1454
10022512746.5817
10022512746.5971
10022512746.4284
10022512746.5332
10022512746.5833
10022512746.1794
10022512745.8932
10022512746.0986
10022512746.2588
10022512746.3463
10022512746.5765
10022512746.8501
10022512746.8767
10022512746.3932
10022512745.9796
10022512746.1662
10022512746.3839
10022512746.2868
10022512746.3237
10022512746.4633
10022512746.3975
10022512746.16
10022512746.0226
10022512746.131
10022512746.2703
10022512746.3344
10022512746.4966
10022512746.7012
10022512746.6099
10022512746.5702
10022512746.7401
10022512746.6227
10022512746.4488
10022512746.6521
10022512746.6591
10022512746.1902
10022512745.9315
10022512746.1519
10022512746.5283
10022512746.6004
10022512746.3652
10022512746.2318
10022512746.1249
10022512746.1957
10022512746.5763
10022512746.6948
10022512746.4644
10022512746.2575
10022512746.2536
10022512746.3114
10022512746.2481
10022512746.1743
10022512746.2271
10022512746.3387
10022512746.3374
10022512746.2777
10022512746.2756
10022512746.3068
10022512746.3526
10022512746.3718
10022512746.3268
10022512746.3221
10022512746.3477
10022512746.3788
10022512746.3001
10022512745.9443
10022512745.8263
10022512746.0369
10022512746.008
10022512745.9439
10022512746.0877
10022512746.1764
10022512746.1955
10022512746.1157
10022512745.9844
10022512745.9594
10022512746.0629
10022512746.2338
10022512746.1425
10022512745.9688
10022512746.0355
10022512746.0287
10022512745.9489
10022512746.0548
10022512746.1713
10022512746.2311
10022512746.2569
10022512746.2283
10022512746.2729
10022512746.3125
10022512746.2747
10022512746.2275
10022512746.2159
10022512746.1975
10022512746.2115
10022512746.2587
10022512746.2449
10022512746.2057
10022512746.149
10022512746.0941
10022512746.0441
10022512746.0576
10022512746.103
10022512746.0821
10022512746.0634
10022512746.0877
10022512746.0852
10022512746.0325
10022512746.0191
10022512746.0324
10022512746.0468
10022512746.1039
10022512746.1546
10022512746.143
10022512746.1479
10022512746.1909
10022512746.1747
10022512746.1191
10022512746.0915
10022512746.0673
10022512745.8007
10022512743.4229
10022512723.8867
10022512567.9485
10022511368.3241
10022502543.1142
10022440946.4342
10022037184.0849
10019584990.7927
10006038266.3891
9939698044.51857
9950886812.90866
)
;

boundaryField
{
    dielectric_2
    {
        type            driftDiffusionPositiveIonDensity;
        seec            0;
        value           nonuniform 0();
    }
    dielectric_1
    {
        type            driftDiffusionPositiveIonDensity;
        seec            0;
        value           nonuniform 0();
    }
    otherfaces
    {
        type            empty;
    }
    procBoundary2to0
    {
        type            processor;
        value           uniform 9950885184.58204;
    }
    procBoundary2to3
    {
        type            processor;
        value           uniform 10089963346.6725;
    }
}


// ************************************************************************* //
