/*--------------------------------*- C++ -*----------------------------------*\
| =========                 |                                                 |
| \\      /  F ield         | foam-extend: Open Source CFD                    |
|  \\    /   O peration     | Version:     4.0                                |
|   \\  /    A nd           | Web:         http://www.foam-extend.org         |
|    \\/     M anipulation  |                                                 |
\*---------------------------------------------------------------------------*/
FoamFile
{
    version     2.0;
    format      ascii;
    class       volScalarField;
    location    "1e-09";
    object      N_electron;
}
// * * * * * * * * * * * * * * * * * * * * * * * * * * * * * * * * * * * * * //

dimensions      [0 0 0 1 0 0 0];

internalField   nonuniform List<scalar> 
250
(
7483146376.97098
7459372571.25491
7447965754.3936
7438438552.11915
7429403936.82808
7420406218.11375
7411390944.62081
7402339244.82543
7393249317.37091
7384120597.13603
7374953209.26391
7365747313.86917
7356503096.07521
7347220740.39037
7337900431.04063
7328542351.01951
7319146682.21613
7309713605.3835
7300243299.98075
7290735944.25269
7281191715.37603
7271610789.41228
7261993341.2715
7252339544.72301
7242649494.90177
7232923171.61594
7223160177.0956
7213359995.60379
7203522463.43675
7193647626.61177
7183735630.66413
7173786639.7119
7163800819.66561
7153778346.44572
7143719404.05115
7133624180.02318
7123492862.41138
7113325638.59412
7103122694.95893
7092884216.86977
7082610388.56181
7072301393.15485
7061957412.78198
7051578628.50257
7041165220.24302
7030717366.80138
7020235245.96835
7009719033.2628
6999168899.06324
6988584999.37143
6977967460.13646
6967316366.72879
6956631801.12438
6945913883.46019
6935162766.1482
6924378617.34112
6913560615.57446
6902705729.32432
6891811972.94812
6880879607.55607
6869908892.3575
6858900084.65196
6847853439.88165
6836769211.68212
6825647651.87008
6814489009.49556
6803293529.26259
6792061444.39528
6780792938.7886
6769488083.95276
6758146836.35953
6746769204.16953
6735355341.15487
6723905474.13948
6712419850.80492
6700898719.35922
6689342328.62756
6677750925.78449
6666124756.42938
6654464064.70808
6642769093.2281
6631040083.09868
6619277274.0089
6607480904.11965
6595651210.19812
6583788427.6488
6571892790.40985
6559964442.72041
6548003385.97366
6536009140.76709
6523981178.11879
6511919444.57697
6499824084.009
6487695345.70311
6475533489.03059
6463338771.63767
6451111449.44577
6438851776.6598
6426560005.65454
6414236386.95937
6401881169.47448
6389494600.74658
6377076927.10135
6364628393.59575
6352149243.97134
6339639720.57194
6327100064.24816
6314530514.38531
6301931308.83756
6289302683.59434
6276643603.11383
6263951413.22933
6251224778.26656
6238464021.40351
6225669463.5062
6212841421.9876
6199980209.20914
6187086132.12304
6174159494.65707
6161200599.79977
6148209747.06797
6135187226.57634
6122133315.87541
6109048288.53834
6095932424.54931
6082786007.55299
6069609309.04966
6056402568.04514
6043165987.66821
6029899778.64614
6016604193.1899
6003279510.03972
5989926016.52943
5976543982.39119
5963133610.14011
5949694965.91194
5936228064.0605
5922733030.35138
5909210104.93356
5895659575.66911
5882081740.34436
5868476897.70477
5854845345.5805
5841187350.29579
5827503065.08368
5813792356.00423
5800054749.48613
5786289969.13755
5772498149.3941
5758679561.50338
5744834531.28741
5730963382.30139
5717066435.91017
5703144011.31914
5689196425.55287
5675223993.50885
5661227028.01982
5647205839.85956
5633160737.75714
5619092028.43872
5604997795.98186
5590875882.13915
5576726378.54941
5562549679.34998
5548346175.42486
5534116254.46781
5519860301.07207
5505578696.76313
5491271820.03167
5476940046.37363
5462583748.33843
5448203295.57841
5433799054.8966
5419371390.26482
5404920662.8884
5390447231.25715
5375951451.14683
5361433675.6633
5346894255.30093
5332333537.99328
5317751869.12169
5303149591.56116
5288527045.7283
5273884569.5794
5259222498.65641
5244541166.16552
5229840902.97882
5215122037.66761
5200384896.54777
5185629803.68854
5170857080.92547
5156067045.86453
5141260010.28726
5126436259.71763
5111596000.16114
5096739280.0896
5081866042.6704
5066976185.55291
5052069212.81608
5037144702.09118
5022202755.95329
5007243649.15208
4992267723.8838
4977275327.95225
4962266817.01037
4947242550.98732
4932202132.00999
4917143790.2464
4902066564.22324
4886970895.36706
4871857219.92661
4856725972.28921
4841577586.3835
4826412494.88346
4811231127.95395
4796033912.46864
4780821271.70079
4765593625.23258
4750351388.92063
4735094974.78443
4719824790.78311
4704541240.5989
4689244723.71741
4673935636.10774
4658614371.07522
4643281319.5708
4627936869.99639
4612581407.93521
4597215315.97729
4581838973.6505
4566452757.42544
4551057040.73921
4535652194.0324
4520238584.79274
4504816577.59434
4489386534.13189
4473948813.26455
4458503771.0412
4443051760.67692
4427593132.01332
4412128229.93449
4396657375.26271
4381180816.99774
4365698192.44645
4350207203.76923
4334689884.65905
4319078102.06043
4302926576.54942
4284557273.95883
4253582174.73675
)
;

boundaryField
{
    dielectric_2
    {
        type            driftDiffusionElectronDensity;
        seec            0.05;
        Edepend         1;
        field_emission  0;
        field_enhancement_factor 1;
        work_function   1;
        value           nonuniform 0();
    }
    dielectric_1
    {
        type            driftDiffusionElectronDensity;
        seec            0.05;
        Edepend         1;
        field_emission  0;
        field_enhancement_factor 1;
        work_function   1;
        value           nonuniform 0();
    }
    otherfaces
    {
        type            empty;
    }
    procBoundary2to0
    {
        type            processor;
        value           uniform 7517974765.87093;
    }
    procBoundary2to3
    {
        type            processor;
        value           uniform 4211914407.28546;
    }
}


// ************************************************************************* //
