/*--------------------------------*- C++ -*----------------------------------*\
| =========                 |                                                 |
| \\      /  F ield         | foam-extend: Open Source CFD                    |
|  \\    /   O peration     | Version:     4.0                                |
|   \\  /    A nd           | Web:         http://www.foam-extend.org         |
|    \\/     M anipulation  |                                                 |
\*---------------------------------------------------------------------------*/
FoamFile
{
    version     2.0;
    format      ascii;
    class       volScalarField;
    location    "1e-09";
    object      Phi;
}
// * * * * * * * * * * * * * * * * * * * * * * * * * * * * * * * * * * * * * //

dimensions      [0 0 0 1 0 0 0];

internalField   nonuniform List<scalar> 
250
(
1.56640407077485
1.56338351882764
1.56036296695787
1.5573424150781
1.5543218632055
1.55130131132043
1.5482807594336
1.54526020754954
1.54223965566327
1.53921910378018
1.53619855187966
1.53317799998806
1.53015744808993
1.52713689618484
1.52411634426663
1.5210957923364
1.51807524038872
1.51505468845458
1.5120341365235
1.50901358458542
1.50599303265043
1.50297248071882
1.4999519287957
1.49693137687098
1.49391082494391
1.49089027302077
1.48786972108555
1.48484916914815
1.48182861720858
1.47880806526702
1.47578751331824
1.47276696136764
1.46974640942495
1.46672585748565
1.46370530554938
1.46068475361574
1.45766420169071
1.45464364975854
1.45162309781947
1.44860254587308
1.44558199392946
1.44256144197315
1.43954089001982
1.43652033808507
1.4334997861484
1.43047923422514
1.4274586822897
1.42443813035213
1.42141757840737
1.4183970264657
1.41537647452188
1.41235592257086
1.40933537062252
1.40631481867193
1.40329426671952
1.40027371476996
1.39725316281298
1.39423261085921
1.39121205888768
1.38819150691859
1.38517095494205
1.38215040296847
1.37912985098726
1.37610929900901
1.37308874703372
1.3700681950558
1.36704764305959
1.36402709107133
1.36100653907607
1.35798598708864
1.35496543508838
1.3519448830805
1.34892433108092
1.34590377907882
1.34288322707414
1.33986267507229
1.33684212307326
1.33382157107705
1.33080101906286
1.32778046704622
1.32475991502699
1.32173936298979
1.31871881096527
1.31569825892834
1.31267770688898
1.30965715485758
1.3066366028291
1.30361605079828
1.30059549875976
1.29757494672939
1.29455439470141
1.29153384266551
1.28851329063233
1.28549273859646
1.28247218655807
1.27945163451713
1.27643108246336
1.27341053041226
1.27038997836406
1.26736942631829
1.26434887426507
1.2613283222038
1.25830777014036
1.25528721807439
1.25226666601084
1.2492461139551
1.24622556189696
1.24320500982557
1.24018445775146
1.23716390567483
1.23414335359011
1.23112280150017
1.22810224940757
1.22508169730992
1.22206114521443
1.21904059311084
1.2160200410049
1.21299948889586
1.2099789367816
1.20695838466203
1.20393783253722
1.20091728040693
1.1978967282763
1.19487617614785
1.19185562401154
1.18883507186732
1.18581451971734
1.18279396756965
1.17977341541889
1.1767528632707
1.17373231111937
1.17071175895757
1.1676912067928
1.16467065462258
1.16165010244422
1.15862955026795
1.15560899808366
1.1525884458937
1.14956789369833
1.14654734149726
1.14352678928794
1.14050623707305
1.13748568485761
1.13446513263919
1.13144458041733
1.12842402819513
1.12540347597232
1.12238292374909
1.11936237152271
1.11634181929069
1.11332126705817
1.11030071481738
1.10728016257098
1.10425961032407
1.10123905807648
1.09821850582316
1.09519795356935
1.09217740131487
1.08915684905991
1.08613629680197
1.0831157445409
1.08009519227675
1.07707464000685
1.07405408774155
1.07103353547582
1.06801298320675
1.06499243093435
1.06197187865878
1.0589513263824
1.05593077410269
1.0529102218222
1.04988966953594
1.0468691172513
1.04384856496091
1.04082801266695
1.03780746037216
1.03478690807668
1.0317663557778
1.02874580347295
1.02572525116725
1.02270469885809
1.01968414654563
1.01666359423214
1.0136430419192
1.0106224895964
1.00760193727125
1.00458138494009
1.00156083260406
0.998540280264409
0.995519727922439
0.99249917557471
0.989478623222094
0.986458070865928
0.983437518503638
0.980416966136538
0.977396413766029
0.974375861394379
0.971355309020367
0.968334756640317
0.965314204259176
0.96229365187319
0.959273099482377
0.956252547086457
0.953231994686943
0.950211442286174
0.947190889880474
0.944170337472232
0.941149785060313
0.938129232643381
0.935108680222728
0.932088127797051
0.929067575366249
0.926047022930353
0.923026470490593
0.920005918048297
0.916985365600916
0.913964813150867
0.910944260694389
0.907923708234022
0.904903155771052
0.901882603303551
0.898862050830826
0.895841498354782
0.892820945874723
0.88980039338998
0.8867798409025
0.883759288411583
0.880738735916086
0.877718183417851
0.874697630914225
0.871677078407378
0.868656525896272
0.865635973381217
0.862615420861485
0.85959486833825
0.856574315810298
0.853553763277623
0.850533210741453
0.847512658201492
0.844492105657349
0.841471553108062
0.838451000555197
0.835430447999772
0.832409895440878
0.829389342878024
0.826368790311127
0.823348237739786
0.820327685160867
0.817307132575162
0.814286579901552
)
;

boundaryField
{
    dielectric_2
    {
        type            coupledPotential;
        surfaceCharge   true;
        remoteField     Phi;
        value           nonuniform 0();
    }
    dielectric_1
    {
        type            coupledPotential;
        surfaceCharge   true;
        remoteField     Phi;
        value           nonuniform 0();
    }
    otherfaces
    {
        type            empty;
    }
    procBoundary2to0
    {
        type            processor;
        value           uniform 1.56942477711456;
    }
    procBoundary2to3
    {
        type            processor;
        value           uniform 0.81126557535395;
    }
}


// ************************************************************************* //
