/*--------------------------------*- C++ -*----------------------------------*\
| =========                 |                                                 |
| \\      /  F ield         | foam-extend: Open Source CFD                    |
|  \\    /   O peration     | Version:     4.0                                |
|   \\  /    A nd           | Web:         http://www.foam-extend.org         |
|    \\/     M anipulation  |                                                 |
\*---------------------------------------------------------------------------*/
FoamFile
{
    version     2.0;
    format      ascii;
    class       volScalarField;
    location    "1e-09";
    object      Te;
}
// * * * * * * * * * * * * * * * * * * * * * * * * * * * * * * * * * * * * * //

dimensions      [0 0 0 1 0 0 0];

internalField   nonuniform List<scalar> 
250
(
6685.29264256287
6684.22998756672
6678.58803575062
6671.01005710569
6663.24850718049
6655.39960448303
6647.5413892007
6639.67691758053
6631.80954530226
6623.93934525953
6616.06645714777
6608.19088330181
6600.3126317428
6592.43170531108
6584.54810754436
6576.66184208406
6568.77291294408
6560.88132448844
6552.98708132583
6545.0901883488
6537.19065080055
6529.28847421792
6521.38366440796
6513.47624169287
6505.56620391836
6497.65363990776
6489.738808244
6481.82201373366
6473.90342596545
6465.98306674166
6458.06095237197
6450.13709694106
6442.21150885327
6434.28419369202
6426.35515440543
6418.42439250942
6410.49190894172
6402.5577045605
6394.6217803355
6386.68413743904
6378.74477718624
6370.80370103004
6362.8609106409
6354.91640783923
6346.97019456858
6339.02227288096
6331.07264531297
6323.12131482344
6315.16828626494
6307.21356891879
6299.25718222934
6291.29915718731
6283.33952574192
6275.37830897695
6267.41551693401
6259.45133882331
6251.48622378424
6243.52028098278
6235.55376728231
6227.58709066296
6219.62024203052
6211.65321278025
6203.68599480388
6195.71858050014
6187.75096291984
6179.78313550699
6171.8150935322
6163.84684177462
6155.8784010039
6147.90982112275
6139.94117437704
6131.97252347869
6124.00390015643
6116.03531294859
6108.06676054221
6100.09823649633
6092.12973566357
6084.16125283483
6076.19278317196
6068.22432227003
6060.2558660608
6052.28741083164
6044.31895326824
6036.35049034626
6028.38201941058
6020.41353818082
6012.44506128515
6004.47657887422
5996.50818986602
5988.54016610494
5980.57279767079
5972.60621342695
5964.64040758169
5956.67538618919
5948.71114229938
5940.74766703127
5932.78495182076
5924.82298847472
5916.8617691377
5908.90128625794
5900.94153255888
5892.98250100656
5885.02418476763
5877.06657718234
5869.10967180589
5861.15346241466
5853.1979429827
5845.24310775564
5837.28895134241
5829.33571136353
5821.38381016158
5813.4334999496
5805.48515880104
5797.53908608221
5789.59526375299
5781.65367474394
5773.71430341523
5765.77713561588
5757.84215806326
5749.90935801462
5741.97872412222
5734.05024815443
5726.12392555944
5718.19975314006
5710.27772589855
5702.35783797428
5694.44008707737
5686.52448072185
5678.61103602317
5670.69976806743
5662.79068069308
5654.8837677818
5646.97902365488
5639.07645171631
5631.17608037076
5623.27797396406
5615.38220954699
5607.48883819989
5599.59787639047
5591.70932164197
5583.82316285587
5575.93938765081
5568.05798994349
5560.17896757774
5552.30234205165
5544.42826224082
5536.55698307914
5528.68869984267
5520.82346049609
5512.96124847195
5505.10205545091
5497.24586227329
5489.39265021913
5481.5424010031
5473.69509673121
5465.85071990821
5458.00925345377
5450.17068067901
5442.33498527267
5434.50259641606
5426.67390309918
5418.84927320808
5411.02917199385
5403.21362816391
5395.40260982359
5387.59608589539
5379.79402612581
5371.99640106451
5364.20318204672
5356.41434117971
5348.62985132973
5340.84968611667
5333.07381990417
5325.30222776881
5317.53488551053
5309.77176964771
5302.01285738328
5294.25812659431
5286.5075558409
5278.76112435948
5271.01881203066
5263.2805993805
5255.54646758675
5247.81639844068
5240.09037434288
5232.36837832501
5224.6503940167
5216.93640563741
5209.22639800376
5201.52035651059
5193.81826753436
5186.12011746103
5178.4258985765
5170.73561674556
5163.04931293819
5155.3670902114
5147.68905172494
5140.01535212009
5132.3462495194
5124.68197752191
5117.02261463816
5109.3681503479
5101.71858454412
5094.07390070529
5086.43407863445
5078.79925781898
5071.16989598965
5063.54648768792
5055.92949928704
5048.31919150772
5040.71552417646
5033.11845757734
5025.52795199424
5017.94396787364
5010.36646617203
5002.79540861862
4995.23075786021
4987.67247751649
4980.12053222811
4972.5748877059
4965.03551081787
4957.50236969703
4949.97543370526
4942.45467316738
4934.94005906476
4927.431562908
4919.92915678148
4912.43281346451
4904.9425065167
4897.45821031114
4889.97990004881
4882.50755175193
4875.04114225419
4867.58064919743
4860.1260510215
4852.67732695189
4845.23445699875
4837.7974219558
4830.36620350346
4822.94078427944
4815.52115205728
4808.10730101672
4800.69935283825
4793.2975955636
4785.90558234022
4778.53155285127
4771.26188932936
4764.30846148156
4759.67678012764
4762.63492358786
)
;

boundaryField
{
    dielectric_2
    {
        type            electronTemperature;
        seec            0.05;
        Tse             1000;
        Edepend         1;
        TFN             1000;
        field_emission  0;
        field_enhancement_factor 1;
        work_function   1;
        value           nonuniform 0();
    }
    dielectric_1
    {
        type            electronTemperature;
        seec            0.05;
        Tse             1000;
        Edepend         1;
        TFN             1000;
        field_emission  0;
        field_enhancement_factor 1;
        work_function   1;
        value           nonuniform 0();
    }
    otherfaces
    {
        type            empty;
    }
    procBoundary2to0
    {
        type            processor;
        value           uniform 6683.71256978208;
    }
    procBoundary2to3
    {
        type            processor;
        value           uniform 4771.50855740538;
    }
}


// ************************************************************************* //
