/*--------------------------------*- C++ -*----------------------------------*\
| =========                 |                                                 |
| \\      /  F ield         | foam-extend: Open Source CFD                    |
|  \\    /   O peration     | Version:     4.0                                |
|   \\  /    A nd           | Web:         http://www.foam-extend.org         |
|    \\/     M anipulation  |                                                 |
\*---------------------------------------------------------------------------*/
FoamFile
{
    version     2.0;
    format      ascii;
    class       volScalarField;
    location    "1.1e-06";
    object      Arm;
}
// * * * * * * * * * * * * * * * * * * * * * * * * * * * * * * * * * * * * * //

dimensions      [0 0 0 1 0 0 0];

internalField   nonuniform List<scalar> 
300
(
3.57416378671579e+15
3.576044030159e+15
3.57799401238064e+15
3.57929974047287e+15
3.58011587841149e+15
3.58049432703692e+15
3.58047930249468e+15
3.58010223083348e+15
3.57938876685168e+15
3.57836089953852e+15
3.57703439476289e+15
3.57542333935301e+15
3.57353978562137e+15
3.57139433571737e+15
3.56899644627712e+15
3.56635466763464e+15
3.56347380875974e+15
3.56036246410381e+15
3.55702897836022e+15
3.55347982804955e+15
3.54972121464468e+15
3.54575905987144e+15
3.54159905374674e+15
3.53724667415849e+15
3.53269116021949e+15
3.5279503310631e+15
3.52302786635052e+15
3.51792575606788e+15
3.51265763188451e+15
3.50722839410208e+15
3.50162419971045e+15
3.4958564585323e+15
3.4899433147955e+15
3.48389012778996e+15
3.47770198379239e+15
3.47138369279037e+15
3.46493540755748e+15
3.45836365553204e+15
3.45167551366738e+15
3.44487451066002e+15
3.43796414676636e+15
3.43094970436848e+15
3.42383506206439e+15
3.41662391151423e+15
3.40931975301783e+15
3.40192585433762e+15
3.3944431546934e+15
3.3868731210768e+15
3.37920796000972e+15
3.3714462953094e+15
3.36357545351098e+15
3.3556080230162e+15
3.34753853118245e+15
3.33938476048031e+15
3.33115480985248e+15
3.3228650916315e+15
3.31451888221246e+15
3.30611909775943e+15
3.2976683138505e+15
3.28916693673913e+15
3.28061929373264e+15
3.27202750224876e+15
3.26338823509494e+15
3.25468345808908e+15
3.24591715017974e+15
3.23711498523279e+15
3.22827901138171e+15
3.21941106841476e+15
3.21051274213268e+15
3.20158539595612e+15
3.19262819236694e+15
3.18363395675091e+15
3.17460114561479e+15
3.16553726373116e+15
3.15642869852596e+15
3.14727652707277e+15
3.13808712400598e+15
3.12885629093299e+15
3.11960415515995e+15
3.11029992766082e+15
3.10097838837163e+15
3.09164160964738e+15
3.08228648652022e+15
3.07291532391158e+15
3.06351322377632e+15
3.0540879648229e+15
3.04465128305819e+15
3.03520350049616e+15
3.02573264334315e+15
3.01624653211449e+15
3.00673920214352e+15
2.99716532184731e+15
2.98758046983359e+15
2.97798618116521e+15
2.96838248171549e+15
2.95876939807051e+15
2.94914671186245e+15
2.9395140108983e+15
2.92986031653545e+15
2.92018557673243e+15
2.91049607709115e+15
2.90079315327664e+15
2.89104485275062e+15
2.88128060072358e+15
2.87149110141463e+15
2.86166696086739e+15
2.85182332000033e+15
2.84194043654448e+15
2.83202880475852e+15
2.82209388098062e+15
2.81213378132677e+15
2.80214622934617e+15
2.79212346254222e+15
2.7820632796633e+15
2.77196349078817e+15
2.76180641535732e+15
2.75157307700851e+15
2.74128841065526e+15
2.7309532596352e+15
2.72055956295171e+15
2.71008081679738e+15
2.69953014587671e+15
2.68887839909277e+15
2.67813604729375e+15
2.6673145507202e+15
2.65641173313143e+15
2.6453993403427e+15
2.63429495480371e+15
2.6230876747553e+15
2.61177550381096e+15
2.60034274801838e+15
2.58878556307828e+15
2.57709899079905e+15
2.56525692276665e+15
2.55322276384676e+15
2.54101550933616e+15
2.528639110459e+15
2.51606845396267e+15
2.50328463801876e+15
2.49029688955148e+15
2.47708917280877e+15
2.46364486213348e+15
2.44993178129205e+15
2.43591781671377e+15
2.42157828185603e+15
2.40693313442932e+15
2.39196744090369e+15
2.37666486257445e+15
2.3609948704462e+15
2.34490841553535e+15
2.32841812362517e+15
2.31149924708142e+15
2.29408932158432e+15
2.27618731497676e+15
2.25777499933049e+15
2.23880256976788e+15
2.21922670351111e+15
2.19904697095359e+15
2.17824424081898e+15
2.15677348280958e+15
2.13459906831149e+15
2.11170599310692e+15
2.08805585724159e+15
2.06366135622155e+15
2.03850952734028e+15
2.0125455684169e+15
1.98579040364809e+15
1.95828868042191e+15
1.93006930981262e+15
1.90117423408183e+15
1.87167217883551e+15
1.8415962834474e+15
1.81103889140345e+15
1.78017162738398e+15
1.74918853238585e+15
1.71825938849536e+15
1.68756336252077e+15
1.6572994140044e+15
1.62770658983741e+15
1.59894029394733e+15
1.57115480859406e+15
1.54449728087272e+15
1.5190488626242e+15
1.49492460002942e+15
1.47212421409989e+15
1.45055686951454e+15
1.43026238153617e+15
1.4111890186909e+15
1.39324771793259e+15
1.37634915513681e+15
1.36037134323226e+15
1.34526722172542e+15
1.33102130040082e+15
1.31756414369432e+15
1.30494478436714e+15
1.29468443435892e+15
1.28956037634715e+15
1.28686711026715e+15
1.28372359086417e+15
1.2780553410093e+15
1.26854618633305e+15
1.25697284102206e+15
1.24563358694544e+15
1.23541262382738e+15
1.22628916304601e+15
1.21808296708141e+15
1.2105295000185e+15
1.20352730814546e+15
1.19698895784376e+15
1.19075543354674e+15
1.18469477893261e+15
1.1788879747864e+15
1.17329263980773e+15
1.16785742440341e+15
1.1625966878639e+15
1.15747942466008e+15
1.15247355221465e+15
1.14760201282921e+15
1.14284054290972e+15
1.13818050512607e+15
1.13362790537554e+15
1.12916676043174e+15
1.12479638348103e+15
1.12052360771012e+15
1.11634576938866e+15
1.11226530731795e+15
1.10829250911135e+15
1.1044153002103e+15
1.10063659636177e+15
1.09696509465405e+15
1.09338694270805e+15
1.08990461165586e+15
1.08652595027121e+15
1.08324252205558e+15
1.08004996418399e+15
1.07696125373534e+15
1.07395671469163e+15
1.07105193324118e+15
1.06823209556304e+15
1.06550440264828e+15
1.0628660235541e+15
1.06030600447597e+15
1.05783622976771e+15
1.05543956802326e+15
1.05311932465821e+15
1.05088825096727e+15
1.04873001963725e+15
1.04665018082501e+15
1.04464915772955e+15
1.04271703326032e+15
1.04085893631666e+15
1.03906893316342e+15
1.03734276504825e+15
1.0356845956243e+15
1.03408706763497e+15
1.03254901509022e+15
1.03107050653339e+15
1.02963790976708e+15
1.02826194452218e+15
1.02693674795741e+15
1.02566996921195e+15
1.02445105247406e+15
1.02328504776055e+15
1.02216588667834e+15
1.02109357446756e+15
1.02006661466746e+15
1.0190799774154e+15
1.01813339977227e+15
1.01721889108845e+15
1.01634512353162e+15
1.01550687759815e+15
1.01471169480338e+15
1.01394826527232e+15
1.01322409447247e+15
1.01252859664046e+15
1.0118617755139e+15
1.01122320670241e+15
1.01061407406988e+15
1.01003742419659e+15
1.00948777870514e+15
1.00896482315831e+15
1.00846201085782e+15
1.00797405769812e+15
1.00750716352023e+15
1.00706663631702e+15
1.00664257382175e+15
1.00624103942326e+15
1.00586157754081e+15
1.00549615375515e+15
1.00513368170346e+15
1.00478477220413e+15
1.00445159939875e+15
1.00413136324834e+15
1.00380234613761e+15
1.00348175612295e+15
1.00315758097547e+15
1.00281707013498e+15
1.00245255555658e+15
1.0020477270564e+15
1.00157057246e+15
)
;

boundaryField
{
    electrode
    {
        type            zeroGradient;
    }
    ground
    {
        type            zeroGradient;
    }
    otherfaces
    {
        type            empty;
    }
}


// ************************************************************************* //
