/*--------------------------------*- C++ -*----------------------------------*\
| =========                 |                                                 |
| \\      /  F ield         | foam-extend: Open Source CFD                    |
|  \\    /   O peration     | Version:     4.0                                |
|   \\  /    A nd           | Web:         http://www.foam-extend.org         |
|    \\/     M anipulation  |                                                 |
\*---------------------------------------------------------------------------*/
FoamFile
{
    version     2.0;
    format      ascii;
    class       volVectorField;
    location    "1.1e-06";
    object      J_electron;
}
// * * * * * * * * * * * * * * * * * * * * * * * * * * * * * * * * * * * * * //

dimensions      [1 -1 -1 0 0 0 0];

internalField   nonuniform List<vector> 
300
(
(-1.30010915023093e+19 0 0)
(-1.28908390554311e+19 0 0)
(-1.48003045095647e+19 0 0)
(-1.48431978069677e+19 0 0)
(-1.47441748354489e+19 0 0)
(-1.47085538258519e+19 0 0)
(-1.46765794115093e+19 0 0)
(-1.46423237332538e+19 0 0)
(-1.46082832306411e+19 0 0)
(-1.45746710620402e+19 0 0)
(-1.45412727704582e+19 0 0)
(-1.4508035314647e+19 0 0)
(-1.44750449773817e+19 0 0)
(-1.44423056952358e+19 0 0)
(-1.44098178102842e+19 0 0)
(-1.43775955223823e+19 0 0)
(-1.43456480666929e+19 0 0)
(-1.43139812847464e+19 0 0)
(-1.42826007694945e+19 0 0)
(-1.4251510445688e+19 0 0)
(-1.42207127852933e+19 0 0)
(-1.41902094578053e+19 0 0)
(-1.4160000068873e+19 0 0)
(-1.41300839688716e+19 0 0)
(-1.41004593327131e+19 0 0)
(-1.40711229612929e+19 0 0)
(-1.40420715207422e+19 0 0)
(-1.40133009892917e+19 0 0)
(-1.3984806202806e+19 0 0)
(-1.39565823158489e+19 0 0)
(-1.39286240899556e+19 0 0)
(-1.39009255879732e+19 0 0)
(-1.38734812312287e+19 0 0)
(-1.3846285654553e+19 0 0)
(-1.38193327937752e+19 0 0)
(-1.37926174992271e+19 0 0)
(-1.37661345610465e+19 0 0)
(-1.37398788785866e+19 0 0)
(-1.37138457779002e+19 0 0)
(-1.36880310751841e+19 0 0)
(-1.36624305487314e+19 0 0)
(-1.36370404409003e+19 0 0)
(-1.36118575019485e+19 0 0)
(-1.35868785002131e+19 0 0)
(-1.35621004287971e+19 0 0)
(-1.35375208813971e+19 0 0)
(-1.35131369054724e+19 0 0)
(-1.34889465024482e+19 0 0)
(-1.34649466808786e+19 0 0)
(-1.3441135406182e+19 0 0)
(-1.34175097366255e+19 0 0)
(-1.33940667361172e+19 0 0)
(-1.33708035529963e+19 0 0)
(-1.33477160803951e+19 0 0)
(-1.33248006746774e+19 0 0)
(-1.33020523987093e+19 0 0)
(-1.32794659666833e+19 0 0)
(-1.32570353700275e+19 0 0)
(-1.32347536739997e+19 0 0)
(-1.32126127840934e+19 0 0)
(-1.31906041727421e+19 0 0)
(-1.31687179535691e+19 0 0)
(-1.3146942387164e+19 0 0)
(-1.31252662846019e+19 0 0)
(-1.31036752954387e+19 0 0)
(-1.30821545502803e+19 0 0)
(-1.30606886021156e+19 0 0)
(-1.30392588850011e+19 0 0)
(-1.30178467266033e+19 0 0)
(-1.2996431789038e+19 0 0)
(-1.29749912510304e+19 0 0)
(-1.29535020720078e+19 0 0)
(-1.29319389648079e+19 0 0)
(-1.29102744565543e+19 0 0)
(-1.28884814784113e+19 0 0)
(-1.28665283597487e+19 0 0)
(-1.2844385250924e+19 0 0)
(-1.28220179377658e+19 0 0)
(-1.27993914660592e+19 0 0)
(-1.27764714384104e+19 0 0)
(-1.27532174808297e+19 0 0)
(-1.27295923723766e+19 0 0)
(-1.27055547905218e+19 0 0)
(-1.26810620510764e+19 0 0)
(-1.26560714699199e+19 0 0)
(-1.26305378370836e+19 0 0)
(-1.26044152657562e+19 0 0)
(-1.25776556733891e+19 0 0)
(-1.25502124078913e+19 0 0)
(-1.25220341310842e+19 0 0)
(-1.24930710451357e+19 0 0)
(-1.24632731029707e+19 0 0)
(-1.24325858628028e+19 0 0)
(-1.24009586288314e+19 0 0)
(-1.23683371604388e+19 0 0)
(-1.23346675015195e+19 0 0)
(-1.22998961261621e+19 0 0)
(-1.22639684632057e+19 0 0)
(-1.22268294498484e+19 0 0)
(-1.2188426046975e+19 0 0)
(-1.21487029238822e+19 0 0)
(-1.21076060089614e+19 0 0)
(-1.20650836397465e+19 0 0)
(-1.20210802702172e+19 0 0)
(-1.19755458179278e+19 0 0)
(-1.19284282524057e+19 0 0)
(-1.18796761798358e+19 0 0)
(-1.18292416059199e+19 0 0)
(-1.1777074870885e+19 0 0)
(-1.17231289184168e+19 0 0)
(-1.16673582927257e+19 0 0)
(-1.16097167143936e+19 0 0)
(-1.15501610769491e+19 0 0)
(-1.14886486784386e+19 0 0)
(-1.1425136446759e+19 0 0)
(-1.13595845024893e+19 0 0)
(-1.12919510131498e+19 0 0)
(-1.12221965386478e+19 0 0)
(-1.11502795871738e+19 0 0)
(-1.10761594466033e+19 0 0)
(-1.09997946752404e+19 0 0)
(-1.09211399234587e+19 0 0)
(-1.08401500804046e+19 0 0)
(-1.07567757964026e+19 0 0)
(-1.0670962710935e+19 0 0)
(-1.05826521518461e+19 0 0)
(-1.04917795715579e+19 0 0)
(-1.03982705618825e+19 0 0)
(-1.03020429861008e+19 0 0)
(-1.0203003641295e+19 0 0)
(-1.01010440476285e+19 0 0)
(-9.9960430773713e+18 0 0)
(-9.8878607601508e+18 0 0)
(-9.77633548572295e+18 0 0)
(-9.66128425729891e+18 0 0)
(-9.54249653719138e+18 0 0)
(-9.41973111756974e+18 0 0)
(-9.29271207990867e+18 0 0)
(-9.16112596039893e+18 0 0)
(-9.02461467574193e+18 0 0)
(-8.88276856736842e+18 0 0)
(-8.73512588026891e+18 0 0)
(-8.58116057839803e+18 0 0)
(-8.42027222831936e+18 0 0)
(-8.2517885817119e+18 0 0)
(-8.07494239471954e+18 0 0)
(-7.88886294558356e+18 0 0)
(-7.69257702482248e+18 0 0)
(-7.48497105831382e+18 0 0)
(-7.26479010523303e+18 0 0)
(-7.03062246452992e+18 0 0)
(-6.78085833176646e+18 0 0)
(-6.51368722295108e+18 0 0)
(-6.22705657949926e+18 0 0)
(-5.9186409882161e+18 0 0)
(-5.58583631580024e+18 0 0)
(-5.22563530128359e+18 0 0)
(-4.83473877599519e+18 0 0)
(-4.40946111202145e+18 0 0)
(-3.9454661754686e+18 0 0)
(-3.43826638086498e+18 0 0)
(-2.88298595121208e+18 0 0)
(-2.27322599513889e+18 0 0)
(-1.60371161172437e+18 0 0)
(-8.78930597337104e+17 0 0)
(-4.99047815184384e+16 0 0)
(8.33883580416393e+17 0 0)
(1.84148302196061e+18 0 0)
(3.02522326947201e+18 0 0)
(4.96801115287427e+18 0 0)
(7.96829749819212e+18 0 0)
(9.97056093432578e+18 0 0)
(1.09324225098841e+19 0 0)
(1.21366965595658e+19 0 0)
(1.27524176060031e+19 0 0)
(1.08947057210588e+19 0 0)
(8.62408078246963e+18 0 0)
(5.55492083900403e+18 0 0)
(1.5482925879625e+18 0 0)
(-7.69333628743188e+17 0 0)
(-1.14021389227472e+18 0 0)
(2.6389248063486e+18 0 0)
(9.82786575514049e+18 0 0)
(2.07522193384365e+19 0 0)
(3.37486442112588e+19 0 0)
(4.60650227130413e+19 0 0)
(5.59410942074579e+19 0 0)
(6.02141735023154e+19 0 0)
(6.00219097528407e+19 0 0)
(5.30260487953564e+19 0 0)
(4.34988067510902e+19 0 0)
(3.12333643972852e+19 0 0)
(2.03442927137016e+19 0 0)
(9.98334386787146e+18 0 0)
(7.82313184157037e+18 0 0)
(-4.49925700506255e+16 0 0)
(-2.13535225085004e+18 0 0)
(-2.42102797295082e+18 0 0)
(-2.42881624447191e+18 0 0)
(-2.75537823767366e+18 0 0)
(-3.03565627779794e+18 0 0)
(-3.18475701172479e+18 0 0)
(-3.24447861534776e+18 0 0)
(-3.24871220740467e+18 0 0)
(-3.22867259763851e+18 0 0)
(-3.19312232436352e+18 0 0)
(-3.15452275904201e+18 0 0)
(-3.10671266391299e+18 0 0)
(-3.05389351570624e+18 0 0)
(-2.99888250051861e+18 0 0)
(-2.94572948020069e+18 0 0)
(-2.89001160018002e+18 0 0)
(-2.83431949791378e+18 0 0)
(-2.7787994326529e+18 0 0)
(-2.72231212627468e+18 0 0)
(-2.66570744821029e+18 0 0)
(-2.60906908164112e+18 0 0)
(-2.55256884153346e+18 0 0)
(-2.49636785879055e+18 0 0)
(-2.44034163064633e+18 0 0)
(-2.38511944014134e+18 0 0)
(-2.33061156078522e+18 0 0)
(-2.2766529546039e+18 0 0)
(-2.22353599751404e+18 0 0)
(-2.17132840525628e+18 0 0)
(-2.12009230631194e+18 0 0)
(-2.06987937948584e+18 0 0)
(-2.0207442997853e+18 0 0)
(-1.97271863150752e+18 0 0)
(-1.92582761180848e+18 0 0)
(-1.88009014160462e+18 0 0)
(-1.83551485369481e+18 0 0)
(-1.7921089287092e+18 0 0)
(-1.74986887113205e+18 0 0)
(-1.70878994282994e+18 0 0)
(-1.66886106284149e+18 0 0)
(-1.63006686120467e+18 0 0)
(-1.59239147235034e+18 0 0)
(-1.55581498060831e+18 0 0)
(-1.52031469737247e+18 0 0)
(-1.48586777909302e+18 0 0)
(-1.45244969912221e+18 0 0)
(-1.42002520710966e+18 0 0)
(-1.38857812994816e+18 0 0)
(-1.35796680731013e+18 0 0)
(-1.32845159330637e+18 0 0)
(-1.29975788101487e+18 0 0)
(-1.2718999854753e+18 0 0)
(-1.24486673674089e+18 0 0)
(-1.21863262809434e+18 0 0)
(-1.19317137245547e+18 0 0)
(-1.16845674427756e+18 0 0)
(-1.14446213217222e+18 0 0)
(-1.12116320237432e+18 0 0)
(-1.09853038092027e+18 0 0)
(-1.07656429912286e+18 0 0)
(-1.05516462485849e+18 0 0)
(-1.03438938370406e+18 0 0)
(-1.01423978156909e+18 0 0)
(-9.9459638616034e+17 0 0)
(-9.75490160910227e+17 0 0)
(-9.56904475922677e+17 0 0)
(-9.3881614200648e+17 0 0)
(-9.21206862931138e+17 0 0)
(-9.0406050286492e+17 0 0)
(-8.87359507118826e+17 0 0)
(-8.71088873081971e+17 0 0)
(-8.55225991710619e+17 0 0)
(-8.39768651748032e+17 0 0)
(-8.24617035931742e+17 0 0)
(-8.09967069894653e+17 0 0)
(-7.95655973954792e+17 0 0)
(-7.81668214562733e+17 0 0)
(-7.6801548642604e+17 0 0)
(-7.54688589640811e+17 0 0)
(-7.41678076616456e+17 0 0)
(-7.28974776426914e+17 0 0)
(-7.1656849482317e+17 0 0)
(-7.04450513603511e+17 0 0)
(-6.92610853289513e+17 0 0)
(-6.81040609098667e+17 0 0)
(-6.69723202943058e+17 0 0)
(-6.58638235078274e+17 0 0)
(-6.47658729348456e+17 0 0)
(-6.37373645861998e+17 0 0)
(-6.27089350651188e+17 0 0)
(-6.17053955298153e+17 0 0)
(-6.07237388295011e+17 0 0)
(-5.97543281968548e+17 0 0)
(-5.88100117336592e+17 0 0)
(-5.79309165556073e+17 0 0)
(-5.70490002068136e+17 0 0)
(-5.61536864065252e+17 0 0)
(-5.53616494747453e+17 0 0)
(-5.45489430516619e+17 0 0)
(-5.3793603867973e+17 0 0)
(-5.30864933923973e+17 0 0)
(-5.2481873575086e+17 0 0)
(-5.1926525781562e+17 0 0)
(-5.10215019930688e+17 0 0)
)
;

boundaryField
{
    electrode
    {
        type            calculated;
        value           uniform (-1.48996081145304e+19 0 0);
    }
    ground
    {
        type            calculated;
        value           uniform (-5.07981753358297e+17 0 0);
    }
    otherfaces
    {
        type            empty;
    }
}


// ************************************************************************* //
