/*--------------------------------*- C++ -*----------------------------------*\
| =========                 |                                                 |
| \\      /  F ield         | foam-extend: Open Source CFD                    |
|  \\    /   O peration     | Version:     4.0                                |
|   \\  /    A nd           | Web:         http://www.foam-extend.org         |
|    \\/     M anipulation  |                                                 |
\*---------------------------------------------------------------------------*/
FoamFile
{
    version     2.0;
    format      ascii;
    class       volScalarField;
    location    "1.1e-06";
    object      Phi;
}
// * * * * * * * * * * * * * * * * * * * * * * * * * * * * * * * * * * * * * //

dimensions      [0 0 0 1 0 0 0];

internalField   nonuniform List<scalar> 
300
(
699.999966099032
699.999780503226
699.999395647263
699.998808434238
699.998025728526
699.997047783547
699.995874395584
699.994505598245
699.992941438409
699.991181959766
699.989227217313
699.987077283006
699.984732245331
699.982192212005
699.979457313299
699.976527704694
699.973403569689
699.970085122706
699.966572611925
699.962866322047
699.958966576968
699.95487374232
699.950588227844
699.946110489603
699.941441031929
699.936580409187
699.931529227243
699.926288144661
699.920857873608
699.915239180463
699.90943288607
699.903439865714
699.897261048739
699.890897417829
699.884350007982
699.87761990514
699.870708244497
699.863616208505
699.856345024562
699.848895962418
699.841270331292
699.833469476732
699.825494777214
699.817347640511
699.809029499837
699.800541809792
699.791886042109
699.783063681241
699.774076219767
699.764925153693
699.755611977558
699.746138179502
699.736505236141
699.726714607418
699.7167677313
699.706666018437
699.696410846709
699.686003555712
699.675445441158
699.664737749202
699.653881670692
699.642878335313
699.631728805679
699.620434071286
699.608995042369
699.597412543669
699.585687308008
699.573819969769
699.561811058195
699.549660990488
699.537370064748
699.524938452663
699.512366191957
699.499653178612
699.486799158766
699.473803720315
699.460666284229
699.447386095391
699.433962213251
699.42039350183
699.406678619519
699.392816008272
699.378803882341
699.364640216568
699.350322734029
699.335848893199
699.321215874481
699.306420566131
699.291459549537
699.27632908379
699.261025089678
699.245543132747
699.229878405865
699.214025710815
699.197979439183
699.181733552436
699.165281561104
699.148616503137
699.131730921349
699.114616839962
699.097265740153
699.079668534757
699.061815541779
699.043696457068
699.025300325832
699.006615513009
698.987629672657
698.968329715977
698.948701778225
698.928731184295
698.908402412901
698.887699059381
698.86660379694
698.845098336223
698.823163383215
698.800778595171
698.7779225345
698.754572620459
698.730705078276
698.706294885712
698.68131571641
698.655739880144
698.629538259143
698.602680240372
698.575133643082
698.546864641181
698.517837679562
698.488015383893
698.457358462758
698.425825601259
698.393373344932
698.359955972683
698.325525357078
698.290030810609
698.253418915556
698.215633335503
698.17661460573
698.136299899613
698.094622767446
698.051512843839
698.006895519066
697.960691569029
697.912816737517
697.863181263981
697.811689347873
697.758238539992
697.702719049576
697.645012952773
697.584993286929
697.522523011913
697.457453814374
697.389624729282
697.318860545053
697.244969952722
697.167743392195
697.086950536208
697.002337342218
696.91362258557
696.82049375991
696.722602227943
696.61955744361
696.510920031921
696.3961935165
696.274814328874
696.14613954056
696.009432488019
695.863845587758
695.708393510628
695.541933989351
695.363125695157
695.170388112064
694.961722265003
694.734557388518
694.485875782565
694.212056373472
693.908677959859
693.570479645125
693.191623308697
692.765269772126
692.284092991673
691.740305169665
691.125859617294
690.432919086336
689.653668707072
688.781409028968
687.809954809166
686.734640211745
685.55207576463
684.259829246577
682.857195572744
681.344358663028
679.721821925772
677.990958891465
676.153845736437
674.212682139873
672.169032277857
670.023951219334
667.77834468207
665.432999407538
662.988780054236
660.44665423019
657.807595610892
655.072451019673
652.242111454379
649.317787316039
646.300550036444
643.191404716788
639.991220206091
636.700793538229
633.320811637393
629.851929036971
626.29469065611
622.64973692075
618.917901025572
615.099893581619
611.196292091577
607.207621813195
603.134295038783
598.976740518938
594.735338951061
590.410451728601
586.002449471173
581.51167109512
576.938426460642
572.28295548311
567.545570674914
562.726674304931
557.826615522938
552.845673877195
547.784133940728
542.642230721146
537.420208793208
532.118290124692
526.736686487419
521.275619595745
515.735281002538
510.115876981103
504.417572705374
498.640501504197
492.784748095454
486.850369788098
480.837376871434
474.745822077128
468.575825407537
462.327618319501
456.001365238223
449.597329656836
443.115688232042
436.556701396367
429.920538894699
423.207434557097
416.417515169355
409.550959959499
402.607851939299
395.588340829886
388.492501218442
381.320486621845
374.072387506116
366.748400710411
359.348651810863
351.873404908328
344.322836029164
336.697230180859
328.996756483108
321.22169641163
313.372197584764
305.448583671946
297.451083909851
289.38015665435
281.236033209368
273.019181969529
264.729846722327
256.368525395316
247.935480733685
239.431250377265
230.85611838445
222.210665702638
213.495198683835
204.710343497009
195.856426634456
186.934110490733
177.943732931027
168.88597382944
159.761174568559
150.570018598023
141.312847240881
131.990343595888
122.602851019444
113.151058946451
103.635318411791
94.0563377875953
84.4144825706735
74.7104932453026
64.9447547706635
55.1180487462687
45.2307817935175
35.2837783093187
25.2774619576147
15.2126846716063
5.0898765921821
)
;

boundaryField
{
    electrode
    {
        type            fixedValue;
        value           uniform 700;
    }
    ground
    {
        type            fixedValue;
        value           uniform 0;
    }
    otherfaces
    {
        type            empty;
    }
}


// ************************************************************************* //
