/*--------------------------------*- C++ -*----------------------------------*\
| =========                 |                                                 |
| \\      /  F ield         | foam-extend: Open Source CFD                    |
|  \\    /   O peration     | Version:     4.0                                |
|   \\  /    A nd           | Web:         http://www.foam-extend.org         |
|    \\/     M anipulation  |                                                 |
\*---------------------------------------------------------------------------*/
FoamFile
{
    version     2.0;
    format      ascii;
    class       volScalarField;
    location    "1.1e-06";
    object      PhiMean;
}
// * * * * * * * * * * * * * * * * * * * * * * * * * * * * * * * * * * * * * //

dimensions      [0 0 0 1 0 0 0];

internalField   nonuniform List<scalar> 
300
(
699.933320058932
699.92751068938
699.921416760144
699.915073942874
699.908492583821
699.901651689027
699.89454583296
699.887169087583
699.879516146871
699.871582896019
699.863365902809
699.854862493517
699.846070582052
699.836988626664
699.827615575628
699.81795081376
699.807994120207
699.797745640831
699.787205853185
699.776375533679
699.765255736134
699.753847768957
699.742153175047
699.730173710982
699.717911324346
699.705368188245
699.692546649195
699.679449211548
699.666078537019
699.652437408131
699.638528703588
699.624355465351
699.609920865525
699.59522813595
699.580280559283
699.565081456548
699.549634171879
699.533942070927
699.51800852598
699.501836898115
699.485430535083
699.468792770622
699.451926900736
699.434836177077
699.417523800863
699.399992917081
699.382246609125
699.364287899187
699.346119749129
699.327745079123
699.309166780919
699.290387784749
699.271411026722
699.25223947071
699.232876039013
699.213323594835
699.193584899311
699.173662603564
699.153559244796
699.133277237138
699.112818870913
699.092186308955
699.071381579645
699.050406568989
699.029263123613
699.007953041253
698.986477963357
698.964839375579
698.94303860839
698.921076833049
698.89895505807
698.876674119811
698.85423474105
698.831637549069
698.808882997217
698.785971408409
698.762903042769
698.739678061006
698.716296511103
698.692758223766
698.669062965944
698.645210283265
698.621199479559
698.597029626915
698.572699535908
698.548207833106
698.523552924445
698.4987329192
698.473745614206
698.448588528242
698.423258864415
698.397753486422
698.372069095072
698.346202011052
698.320148139069
698.2939029609
698.267461505869
698.240818339093
698.213967519131
698.18690259553
698.159616593992
698.132101961302
698.10435051085
698.076353534308
698.048101641784
698.019584737933
697.990792029686
697.961711912838
697.932332017856
697.90263910328
697.872618971953
697.842256430963
697.811535219582
697.78043799441
697.748946274212
697.717040318666
697.684699172491
697.65190063013
697.618621046174
697.584835217033
697.550516285442
697.515635759628
697.480163335358
697.444066937136
697.407312516098
697.36986381375
697.331682215635
697.292726700648
697.252953575656
697.212316320662
697.170765410216
697.128248138571
697.084708389704
697.04008637241
696.99431840535
696.947336871651
696.899069773225
696.849440307015
696.798366584736
696.745761351906
696.691531435172
696.635577238226
696.577792238975
696.518062422847
696.456265742188
696.39227154797
696.325939612045
696.257119216164
696.185648006768
696.111350779503
696.034038469467
695.953506465744
695.869532785301
695.781876369919
695.690274415093
695.594439738871
695.494057676932
695.388782404142
695.278232408902
695.161984922359
695.039569763524
694.910461254344
694.774067714804
694.629719403075
694.476651611676
694.313979217101
694.140659233235
693.955454332896
693.756895024732
693.543222966843
693.312337890933
693.061685957096
692.788164522619
692.488118924854
692.157249320161
691.790534403582
691.382104420726
690.925396768526
690.413153093142
689.837414443149
689.189848204733
688.461721980573
687.644442949672
686.729619633395
685.709577487164
684.577614855932
683.328068894792
681.956941679237
680.461330613782
678.8396639651
677.091814011905
675.21826739308
673.22020545495
671.099630574848
668.85871165934
666.499597318769
664.024370401133
661.435165699252
658.733996950548
655.92263683874
653.002675706176
649.975618297468
646.842966103457
643.606261155635
640.267185001477
636.827318989268
633.288150831111
629.651082181825
625.91745005599
622.088528551159
618.165553252189
614.149716145677
610.042222269585
605.844326558975
601.557233230163
597.182091118333
592.720012767927
588.172065972959
583.53929440904
578.822704176126
574.023286751121
569.14200408917
564.179811354471
559.137645408352
554.016450100385
548.81718786385
543.540831195764
538.188324189958
532.760591458251
527.25853385788
521.683035548046
516.034960458153
510.315163543193
504.524496060884
498.663805505943
492.733930275234
486.735706309925
480.669961331326
474.537523961275
468.339217772368
462.075871967969
455.748317025492
449.357405921322
442.903981419015
436.388904282457
429.812993020588
423.177086554945
416.481979000836
409.728488983292
402.917387566251
396.049475064616
389.125500981138
382.146249973737
375.112451726221
368.024877686532
360.884238961967
353.691295147842
346.446739522602
339.151320154708
331.805713114394
324.410654514911
316.966803319771
309.474883218992
301.935536335185
294.349474657166
286.71734340042
279.03989209593
271.317773515838
263.551738712757
255.742420131875
247.890557544876
239.996762020406
232.061762060785
224.086146685848
216.070633170972
208.015788126468
199.922317530995
191.790765480676
183.621826490551
175.416022179209
167.174035494713
158.896365484878
150.58368387227
142.236467171953
133.855376624845
125.440866298845
116.993587752903
108.513972700221
100.002663753687
91.4600703095996
82.8868264759831
74.2833194185572
65.6501749477327
56.9877579134509
48.2966858026761
39.5773010619567
30.8302128719712
22.0557411742148
13.2544870883596
4.42674833853571
)
;

boundaryField
{
    electrode
    {
        type            calculated;
        value           uniform 699.999999999958;
    }
    ground
    {
        type            calculated;
        value           uniform 0;
    }
    otherfaces
    {
        type            empty;
    }
}


// ************************************************************************* //
