/*--------------------------------*- C++ -*----------------------------------*\
| =========                 |                                                 |
| \\      /  F ield         | foam-extend: Open Source CFD                    |
|  \\    /   O peration     | Version:     4.0                                |
|   \\  /    A nd           | Web:         http://www.foam-extend.org         |
|    \\/     M anipulation  |                                                 |
\*---------------------------------------------------------------------------*/
FoamFile
{
    version     2.0;
    format      ascii;
    class       volScalarField;
    location    "1.1e-06";
    object      Te;
}
// * * * * * * * * * * * * * * * * * * * * * * * * * * * * * * * * * * * * * //

dimensions      [0 0 0 1 0 0 0];

internalField   nonuniform List<scalar> 
300
(
24194.0261957963
24194.1268811569
24194.1775592702
24194.1741470913
24194.1696513292
24194.16611872
24194.1617509539
24194.156484988
24194.1503489037
24194.1432995499
24194.1352941596
24194.1262973945
24194.1162733791
24194.1051841748
24194.0929920436
24194.0796591655
24194.0651473907
24194.0494184492
24194.0324340371
24194.0141558589
24193.9945457002
24193.9735654802
24193.9511773192
24193.9273435951
24193.9020269754
24193.8751904796
24193.8467975166
24193.8168119026
24193.785197907
24193.7519202739
24193.716944222
24193.6802354735
24193.6417602633
24193.6014853235
24193.5593778977
24193.5154057349
24193.4695370692
24193.4217406185
24193.3719855717
24193.3202415646
24193.2664786693
24193.2106673825
24193.1527786009
24193.0927836066
24193.0306540601
24192.9663619783
24192.8998797321
24192.8311800335
24192.7602359365
24192.6870208361
24192.611508464
24192.5336729123
24192.4534886277
24192.3709304417
24192.2859735893
24192.1985937288
24192.1087669847
24192.0164699747
24191.9216798515
24191.8243743597
24191.7245318774
24191.6221314631
24191.5171529455
24191.4095769569
24191.2993850067
24191.1865595853
24191.0710841933
24190.9529434484
24190.8321231778
24190.7086104692
24190.5823937932
24190.4534630835
24190.3218098095
24190.1874271111
24190.0503098525
24189.9104547505
24189.7678604613
24189.6225276594
24189.4744591976
24189.3236601152
24189.1701378091
24189.0139021239
24188.8549653857
24188.6933425785
24188.5290513894
24188.362112293
24188.1925486573
24188.0203868389
24187.8456562123
24187.6683892767
24187.4886217619
24187.3063925895
24187.1217440254
24186.9347217044
24186.7453746238
24186.5537552508
24186.3599195008
24186.1639267544
24185.9658399075
24185.765725317
24185.5636528048
24185.3596956883
24185.1539306482
24184.9464377718
24184.7373004908
24184.5266054489
24184.3144425382
24184.1009047454
24183.8860880809
24183.670091533
24183.4530169059
24183.2349687814
24183.0160544236
24182.7963836405
24182.5760687759
24182.3552246037
24182.1339682824
24181.9124193462
24181.6906997056
24181.468933721
24181.2472482348
24181.025772798
24180.8046398814
24180.5839851201
24180.3639477926
24180.1446713392
24179.926303958
24179.7089994765
24179.4929183629
24179.2782288651
24179.065108555
24178.8537460567
24178.6443430611
24178.4371168905
24178.2323033794
24178.0301602527
24177.8309712082
24177.6350506755
24177.4427493165
24177.2544604945
24177.0706280184
24176.8917550078
24176.7184142733
24176.5512608882
24176.3910465064
24176.2386363442
24176.0950297843
24175.961383876
24175.8390417671
24175.7295669769
24175.6347832295
24175.5568231267
24175.4981865125
24175.4618105059
24175.4511543443
24175.4703015452
24175.5240878076
24175.6182521765
24175.7596164365
24175.9563244407
24176.218114831
24176.5566343034
24176.9859256683
24177.5229172365
24178.1871404872
24179.0048906083
24180.0069352299
24181.2311869204
24182.734405462
24184.6477725407
24187.2244263372
24190.582342918
24194.6135328773
24199.3400505685
24204.8614986259
24210.8998459277
24217.0824064086
24223.2002493777
24228.818489446
24233.8274644192
24238.8812718694
24245.8796688524
24258.8569261625
24284.9819201972
24336.9214467169
24434.9984888718
24611.8104801554
24918.6995522032
25438.792432152
26307.0444067599
27742.9103695603
30124.9539525709
34097.1146284008
40814.0887175217
52782.8933797039
73017.176731465
100683.823685093
138114.955260391
186326.136533902
244054.861031357
306223.711954417
367547.081522819
424422.789473486
475196.419741299
519588.064843291
558039.981862818
591255.008488991
620028.388637518
645191.801733003
667413.311032814
687182.859089388
704914.60351437
720981.625810061
735663.473119139
749198.600445285
761788.530787696
773592.898303
784743.417846156
795348.256487722
805499.193984112
815268.039327529
824709.452074078
833874.937523908
842808.94646265
851545.279402445
860111.136340415
868528.013195704
876812.323599386
884976.02838751
893027.310492178
900970.969578548
908808.818797531
916539.985043052
924161.185284659
931666.992082137
939050.022532772
946301.171158559
953409.752225187
960363.630009714
967149.390340945
973752.450374472
980157.147573998
986347.038751367
992304.837213662
998014.658568972
1003455.87815348
1008606.22524787
1013448.48564571
1017963.99995032
1022133.3439751
1025936.74646417
1029354.17615683
1032365.41730056
1034950.08613282
1037087.77326882
1038757.4072563
1039939.30881333
1040602.15801988
1040742.51186376
1040336.01093987
1039358.79481902
1037789.68450207
1035607.42636135
1032790.78035526
1029318.27972549
1025168.19774065
1020318.50746352
1014747.08055615
1008431.20215504
1001350.6773912
993481.141541184
984795.488705347
975271.383866878
964884.100875285
953606.64387499
941410.613503702
928266.075888652
914141.437909862
899003.242022458
882815.923556698
865541.548855209
847139.817011429
827568.256515516
806789.547965436
784748.655339101
761386.099522035
736646.36613909
710452.30467846
682724.052936179
653378.576382363
622308.16194287
589385.350697755
554477.945214927
517401.326805813
477930.384718869
435785.673162526
390571.120702054
341740.747176159
288498.513881456
229785.722868903
)
;

boundaryField
{
    electrode
    {
        type            electronTemperature;
        seec            0.05;
        Tse             1000;
        Edepend         1;
        TFN             1000;
        field_emission  0;
        field_enhancement_factor 55;
        work_function   5;
        value           uniform 24194.0261957963;
    }
    ground
    {
        type            electronTemperature;
        seec            0.05;
        Tse             1000;
        Edepend         1;
        TFN             1000;
        field_emission  0;
        field_enhancement_factor 55;
        work_function   5;
        value           uniform 196513.787851347;
    }
    otherfaces
    {
        type            empty;
    }
}


// ************************************************************************* //
