/*--------------------------------*- C++ -*----------------------------------*\
| =========                 |                                                 |
| \\      /  F ield         | foam-extend: Open Source CFD                    |
|  \\    /   O peration     | Version:     4.0                                |
|   \\  /    A nd           | Web:         http://www.foam-extend.org         |
|    \\/     M anipulation  |                                                 |
\*---------------------------------------------------------------------------*/
FoamFile
{
    version     2.0;
    format      ascii;
    class       volVectorField;
    location    "4e-10";
    object      E;
}
// * * * * * * * * * * * * * * * * * * * * * * * * * * * * * * * * * * * * * //

dimensions      [0 0 0 1 0 0 0];

internalField   nonuniform List<vector> 
250
(
(-0 9062.27346161059 -0)
(-0 6041.51649788533 -0)
(-0 6041.51646825516 -0)
(-0 6041.51647193763 -0)
(-0 6041.51647337913 -0)
(-0 6041.51647533362 -0)
(-0 6041.51647708201 -0)
(-0 6041.5164806051 -0)
(-0 6041.51648266962 -0)
(-0 6041.51648304005 -0)
(-0 6041.51648479077 -0)
(-0 6041.51648814652 -0)
(-0 6041.51649157835 -0)
(-0 6041.51649581958 -0)
(-0 6041.5165000524 -0)
(-0 6041.51650272433 -0)
(-0 6041.51650554226 -0)
(-0 6041.51650836584 -0)
(-0 6041.51651118529 -0)
(-0 6041.51651460099 -0)
(-0 6041.51651803379 -0)
(-0 6041.51652238076 -0)
(-0 6041.51652581949 -0)
(-0 6041.51653012317 -0)
(-0 6041.51653283315 -0)
(-0 6041.51653397246 -0)
(-0 6041.51653676902 -0)
(-0 6041.51654194358 -0)
(-0 6041.51654729062 -0)
(-0 6041.51654948224 -0)
(-0 6041.51655242313 -0)
(-0 6041.51655677631 -0)
(-0 6041.51656188773 -0)
(-0 6041.51656634031 -0)
(-0 6041.51656772046 -0)
(-0 6041.51657062138 -0)
(-0 6041.51657502033 -0)
(-0 6041.51657786032 -0)
(-0 6041.51658078426 -0)
(-0 6041.51658547424 -0)
(-0 6041.51658920207 -0)
(-0 6041.51659297277 -0)
(-0 6041.51659679255 -0)
(-0 6041.51659969113 -0)
(-0 6041.51660341813 -0)
(-0 6041.51660738432 -0)
(-0 6041.51661142786 -0)
(-0 6041.51661379801 -0)
(-0 6041.5166185769 -0)
(-0 6041.51662403064 -0)
(-0 6041.51662639638 -0)
(-0 6041.51662798526 -0)
(-0 6041.51662868987 -0)
(-0 6041.51663024966 -0)
(-0 6041.51663498376 -0)
(-0 6041.51664053937 -0)
(-0 6041.5166462057 -0)
(-0 6041.51665102182 -0)
(-0 6041.51665263386 -0)
(-0 6041.51665511044 -0)
(-0 6041.51665912019 -0)
(-0 6041.5166616158 -0)
(-0 6041.51666571765 -0)
(-0 6041.51667076662 -0)
(-0 6041.51667421239 -0)
(-0 6041.51667893366 -0)
(-0 6041.51668228911 -0)
(-0 6041.51668422885 -0)
(-0 6041.51668596648 -0)
(-0 6041.51668922723 -0)
(-0 6041.51669330206 -0)
(-0 6041.51669580262 -0)
(-0 6041.51669838315 -0)
(-0 6041.51670025575 -0)
(-0 6041.51670362347 -0)
(-0 6041.51670784803 -0)
(-0 6041.51671217914 -0)
(-0 6041.51671553887 -0)
(-0 6041.51671887076 -0)
(-0 6041.51672310951 -0)
(-0 6041.51672587587 -0)
(-0 6041.51672705819 -0)
(-0 6041.51672981822 -0)
(-0 6041.51673351461 -0)
(-0 6041.51673715435 -0)
(-0 6041.5167399272 -0)
(-0 6041.5167404326 -0)
(-0 6041.51674087087 -0)
(-0 6041.51674375828 -0)
(-0 6041.51674762094 -0)
(-0 6041.51674983599 -0)
(-0 6041.51675355224 -0)
(-0 6041.51675808409 -0)
(-0 6041.51676265605 -0)
(-0 6041.51676732603 -0)
(-0 6041.51677040756 -0)
(-0 6041.51677413539 -0)
(-0 6041.51677877601 -0)
(-0 6041.51678276826 -0)
(-0 6041.51678742142 -0)
(-0 6041.51679116524 -0)
(-0 6041.51679431212 -0)
(-0 6041.51679835206 -0)
(-0 6041.51680142463 -0)
(-0 6041.5168046567 -0)
(-0 6041.51680938513 -0)
(-0 6041.5168132194 -0)
(-0 6041.5168165164 -0)
(-0 6041.51682128151 -0)
(-0 6041.51682596955 -0)
(-0 6041.51682989619 -0)
(-0 6041.51683309448 -0)
(-0 6041.51683728167 -0)
(-0 6041.51684144487 -0)
(-0 6041.51684484113 -0)
(-0 6041.51684939297 -0)
(-0 6041.51685351095 -0)
(-0 6041.51685814496 -0)
(-0 6041.51686245553 -0)
(-0 6041.51686637692 -0)
(-0 6041.51687136688 -0)
(-0 6041.51687558991 -0)
(-0 6041.51687903168 -0)
(-0 6041.51688279811 -0)
(-0 6041.51688631611 -0)
(-0 6041.51689028409 -0)
(-0 6041.5168950758 -0)
(-0 6041.51689950605 -0)
(-0 6041.51690428067 -0)
(-0 6041.51690952363 -0)
(-0 6041.51691395952 -0)
(-0 6041.51691843773 -0)
(-0 6041.51692412405 -0)
(-0 6041.51692933198 -0)
(-0 6041.51693385859 -0)
(-0 6041.51693885131 -0)
(-0 6041.51694344947 -0)
(-0 6041.5169473186 -0)
(-0 6041.51695195482 -0)
(-0 6041.51695811221 -0)
(-0 6041.51696352225 -0)
(-0 6041.51696820161 -0)
(-0 6041.51697204179 -0)
(-0 6041.51697556958 -0)
(-0 6041.51698038116 -0)
(-0 6041.51698514599 -0)
(-0 6041.5169906484 -0)
(-0 6041.51699658659 -0)
(-0 6041.51700221403 -0)
(-0 6041.51700749821 -0)
(-0 6041.51701158048 -0)
(-0 6041.51701526074 -0)
(-0 6041.51701973868 -0)
(-0 6041.51702536241 -0)
(-0 6041.51703102183 -0)
(-0 6041.51703555314 -0)
(-0 6041.51704018107 -0)
(-0 6041.51704490993 -0)
(-0 6041.5170507013 -0)
(-0 6041.51705729929 -0)
(-0 6041.5170619646 -0)
(-0 6041.51706697111 -0)
(-0 6041.51707371112 -0)
(-0 6041.51707842825 -0)
(-0 6041.51708275151 -0)
(-0 6041.51708836627 -0)
(-0 6041.51709357531 -0)
(-0 6041.51709969189 -0)
(-0 6041.51710578243 -0)
(-0 6041.51711148487 -0)
(-0 6041.51711724149 -0)
(-0 6041.51712384667 -0)
(-0 6041.51712970614 -0)
(-0 6041.51713514568 -0)
(-0 6041.51714137228 -0)
(-0 6041.51714673959 -0)
(-0 6041.51715222695 -0)
(-0 6041.51715659282 -0)
(-0 6041.51716170687 -0)
(-0 6041.51716844922 -0)
(-0 6041.51717442063 -0)
(-0 6041.51718041314 -0)
(-0 6041.51718646975 -0)
(-0 6041.51719173807 -0)
(-0 6041.51719622195 -0)
(-0 6041.51720132371 -0)
(-0 6041.51720745119 -0)
(-0 6041.51721339448 -0)
(-0 6041.51721919702 -0)
(-0 6041.51722489037 -0)
(-0 6041.51723057379 -0)
(-0 6041.51723665439 -0)
(-0 6041.51724297612 -0)
(-0 6041.51724934692 -0)
(-0 6041.51725494639 -0)
(-0 6041.51726034402 -0)
(-0 6041.51726615413 -0)
(-0 6041.51727200588 -0)
(-0 6041.51727806567 -0)
(-0 6041.51728435666 -0)
(-0 6041.5172906606 -0)
(-0 6041.51729643997 -0)
(-0 6041.51730229338 -0)
(-0 6041.51730854383 -0)
(-0 6041.51731441805 -0)
(-0 6041.5173200932 -0)
(-0 6041.51732621793 -0)
(-0 6041.51733253207 -0)
(-0 6041.51733866437 -0)
(-0 6041.51734489221 -0)
(-0 6041.51735112592 -0)
(-0 6041.51735740615 -0)
(-0 6041.51736393309 -0)
(-0 6041.51737067316 -0)
(-0 6041.51737728426 -0)
(-0 6041.51738411153 -0)
(-0 6041.51739116463 -0)
(-0 6041.51739760933 -0)
(-0 6041.51740447011 -0)
(-0 6041.51741141884 -0)
(-0 6041.51741789084 -0)
(-0 6041.51742448607 -0)
(-0 6041.51743131081 -0)
(-0 6041.51743827973 -0)
(-0 6041.51744518077 -0)
(-0 6041.51745197468 -0)
(-0 6041.51745871268 -0)
(-0 6041.51746583657 -0)
(-0 6041.51747290007 -0)
(-0 6041.51747999832 -0)
(-0 6041.51748729818 -0)
(-0 6041.51749403915 -0)
(-0 6041.5175007369 -0)
(-0 6041.51750783025 -0)
(-0 6041.51751504561 -0)
(-0 6041.51752217308 -0)
(-0 6041.51752934777 -0)
(-0 6041.51753671953 -0)
(-0 6041.51754412073 -0)
(-0 6041.51755150953 -0)
(-0 6041.51755899462 -0)
(-0 6041.5175664857 -0)
(-0 6041.51757396597 -0)
(-0 6041.51758146131 -0)
(-0 6041.51758896468 -0)
(-0 6041.51759644942 -0)
(-0 6041.51760387419 -0)
(-0 6041.51761210285 -0)
(-0 6041.5176374742 -0)
(-0 9062.27953569254 -0)
)
;

boundaryField
{
    dielectric_2
    {
        type            calculated;
        value           nonuniform 0();
    }
    dielectric_1
    {
        type            calculated;
        value           nonuniform 0();
    }
    otherfaces
    {
        type            empty;
    }
    procBoundary2to0
    {
        type            processor;
        value           uniform (-0 9062.27163054104 -0);
    }
    procBoundary2to3
    {
        type            processor;
        value           uniform (-0 9062.28261028544 -0);
    }
}


// ************************************************************************* //
