/*--------------------------------*- C++ -*----------------------------------*\
| =========                 |                                                 |
| \\      /  F ield         | foam-extend: Open Source CFD                    |
|  \\    /   O peration     | Version:     4.0                                |
|   \\  /    A nd           | Web:         http://www.foam-extend.org         |
|    \\/     M anipulation  |                                                 |
\*---------------------------------------------------------------------------*/
FoamFile
{
    version     2.0;
    format      ascii;
    class       volVectorField;
    location    "4e-10";
    object      E;
}
// * * * * * * * * * * * * * * * * * * * * * * * * * * * * * * * * * * * * * //

dimensions      [0 0 0 1 0 0 0];

internalField   nonuniform List<vector> 
252
(
(-0 6041.51746476572 -0)
(-0 6041.51878179525 -0)
(-0 6041.51848769367 -0)
(-0 6041.51891051696 -0)
(-0 6041.51862402709 -0)
(-0 6041.51807388581 -0)
(-0 6041.51744609791 -0)
(-0 6041.51700621898 -0)
(-0 6041.5177569681 -0)
(-0 6041.51739452569 -0)
(-0 6041.51665989416 -0)
(-0 6041.51671222245 -0)
(-0 6041.51705378186 -0)
(-0 6041.51722404459 -0)
(-0 6041.51672358294 -0)
(-0 6041.51598184182 -0)
(-0 6041.51587534313 -0)
(-0 6041.51555298011 -0)
(-0 6041.51506370938 -0)
(-0 6041.51492753893 -0)
(-0 6041.51474330759 -0)
(-0 6041.51445022425 -0)
(-0 6041.5145984931 -0)
(-0 6041.51617377915 -0)
(-0 6041.51681787655 -0)
(-0 6041.51772633596 -0)
(-0 6041.51967022445 -0)
(-0 6041.52007705256 -0)
(-0 6041.51991060229 -0)
(-0 6041.52073690282 -0)
(-0 6041.52130849702 -0)
(-0 6041.52148295934 -0)
(-0 6041.52137471611 -0)
(-0 6041.52150334933 -0)
(-0 6041.52128577934 -0)
(-0 6041.5203800422 -0)
(-0 6041.52035931221 -0)
(-0 6041.5197502699 -0)
(-0 6041.51987521387 -0)
(-0 6041.52094842118 -0)
(-0 6041.52149187633 -0)
(-0 6041.52111328653 -0)
(-0 6041.52014507819 -0)
(-0 6041.5196534054 -0)
(-0 6041.51939735083 -0)
(-0 6041.51951839215 -0)
(-0 6041.51923941224 -0)
(-0 6041.51878953023 -0)
(-0 6041.51855816865 -0)
(-0 6041.51885070843 -0)
(-0 6041.52034284805 -0)
(-0 6041.52123267516 -0)
(-0 6041.52095512297 -0)
(-0 6041.52139488528 -0)
(-0 6041.52132764542 -0)
(-0 6041.52037449348 -0)
(-0 6041.52043137207 -0)
(-0 6041.5201182519 -0)
(-0 6041.51973727572 -0)
(-0 6041.51943265738 -0)
(-0 6041.51854247123 -0)
(-0 6041.5171657995 -0)
(-0 6041.5165408058 -0)
(-0 6041.51665861289 -0)
(-0 6041.51619793612 -0)
(-0 6041.51649068856 -0)
(-0 6041.51673776165 -0)
(-0 6041.5161885741 -0)
(-0 6041.51622898021 -0)
(-0 6041.51673441905 -0)
(-0 6041.51768310417 -0)
(-0 6041.51772434411 -0)
(-0 6041.51737111811 -0)
(-0 6041.51765998365 -0)
(-0 6041.51728946048 -0)
(-0 6041.5174615836 -0)
(-0 6041.51756544185 -0)
(-0 6041.51716358184 -0)
(-0 6041.51710418693 -0)
(-0 6041.51680139175 -0)
(-0 6041.51652186826 -0)
(-0 6041.51590758339 -0)
(-0 6041.51588317646 -0)
(-0 6041.51599319 -0)
(-0 6041.51484335918 -0)
(-0 6041.51363085881 -0)
(-0 6041.51345012823 -0)
(-0 6041.5131926359 -0)
(-0 6041.51223819534 -0)
(-0 6041.51201339894 -0)
(-0 6041.51295165923 -0)
(-0 6041.51376633532 -0)
(-0 6041.51395726177 -0)
(-0 6041.51450150456 -0)
(-0 6041.51446551962 -0)
(-0 6041.51437374735 -0)
(-0 6041.51376383472 -0)
(-0 6041.51354685876 -0)
(-0 6041.5140743467 -0)
(-0 6041.51342744104 -0)
(-0 6041.51334518138 -0)
(-0 6041.51365065076 -0)
(-0 6041.51318139954 -0)
(-0 6041.51277916308 -0)
(-0 6041.51291072203 -0)
(-0 6041.51253307023 -0)
(-0 6041.51241448738 -0)
(-0 6041.51313441806 -0)
(-0 6041.51334368652 -0)
(-0 6041.51360373732 -0)
(-0 6041.51352658608 -0)
(-0 6041.51349301092 -0)
(-0 6041.51362510498 -0)
(-0 6041.51394452246 -0)
(-0 6041.51453638918 -0)
(-0 6041.51448871208 -0)
(-0 6041.51494814901 -0)
(-0 6041.51560194667 -0)
(-0 6041.51551257983 -0)
(-0 6041.51533398154 -0)
(-0 6041.51553793868 -0)
(-0 6041.51617432591 -0)
(-0 6041.51657629922 -0)
(-0 6041.51650875017 -0)
(-0 6041.51634477223 -0)
(-0 6041.51620962753 -0)
(-0 6041.51607656553 -0)
(-0 6041.51620641483 -0)
(-0 6041.51695461193 -0)
(-0 6041.51747878401 -0)
(-0 6041.51740324081 -0)
(-0 6041.51736999894 -0)
(-0 6041.517127401 -0)
(-0 6041.51672156623 -0)
(-0 6041.51639341965 -0)
(-0 6041.51600355937 -0)
(-0 6041.51593192322 -0)
(-0 6041.5158774176 -0)
(-0 6041.51568952362 -0)
(-0 6041.51545496509 -0)
(-0 6041.51558184532 -0)
(-0 6041.51533225694 -0)
(-0 6041.51512558911 -0)
(-0 6041.5155922861 -0)
(-0 6041.51549133115 -0)
(-0 6041.51503114162 -0)
(-0 6041.51482214369 -0)
(-0 6041.5146119207 -0)
(-0 6041.51463538206 -0)
(-0 6041.51448921335 -0)
(-0 6041.51445806193 -0)
(-0 6041.51469855956 -0)
(-0 6041.51437978573 -0)
(-0 6041.51439346471 -0)
(-0 6041.51474532591 -0)
(-0 6041.51492862258 -0)
(-0 6041.51513171451 -0)
(-0 6041.51521341818 -0)
(-0 6041.51536439456 -0)
(-0 6041.5154884154 -0)
(-0 6041.51527906668 -0)
(-0 6041.5147126695 -0)
(-0 6041.51425605615 -0)
(-0 6041.51450227873 -0)
(-0 6041.51477492064 -0)
(-0 6041.51424596359 -0)
(-0 6041.51363406266 -0)
(-0 6041.51335330343 -0)
(-0 6041.51327208904 -0)
(-0 6041.51336661187 -0)
(-0 6041.51326122003 -0)
(-0 6041.51292439932 -0)
(-0 6041.51256004466 -0)
(-0 6041.51212726625 -0)
(-0 6041.51183049287 -0)
(-0 6041.51187049512 -0)
(-0 6041.5121638268 -0)
(-0 6041.51218855461 -0)
(-0 6041.51190613667 -0)
(-0 6041.51161402467 -0)
(-0 6041.51164200977 -0)
(-0 6041.51167451721 -0)
(-0 6041.51179417033 -0)
(-0 6041.51224936727 -0)
(-0 6041.51264773822 -0)
(-0 6041.51276673945 -0)
(-0 6041.51257029012 -0)
(-0 6041.51256540893 -0)
(-0 6041.51264413833 -0)
(-0 6041.51281146766 -0)
(-0 6041.51293197567 -0)
(-0 6041.51280446578 -0)
(-0 6041.51278715268 -0)
(-0 6041.51304404293 -0)
(-0 6041.51309114259 -0)
(-0 6041.51279260821 -0)
(-0 6041.51274014484 -0)
(-0 6041.51281035193 -0)
(-0 6041.51275284475 -0)
(-0 6041.51290060547 -0)
(-0 6041.51310033671 -0)
(-0 6041.51341148572 -0)
(-0 6041.51358164167 -0)
(-0 6041.51331041225 -0)
(-0 6041.51317610397 -0)
(-0 6041.51332167363 -0)
(-0 6041.51346275348 -0)
(-0 6041.51349770503 -0)
(-0 6041.51329096703 -0)
(-0 6041.5132311536 -0)
(-0 6041.51343686914 -0)
(-0 6041.51358180469 -0)
(-0 6041.51350303139 -0)
(-0 6041.51339275835 -0)
(-0 6041.51360254018 -0)
(-0 6041.51393680483 -0)
(-0 6041.51402258767 -0)
(-0 6041.51395724516 -0)
(-0 6041.51404643859 -0)
(-0 6041.51399525927 -0)
(-0 6041.51384332605 -0)
(-0 6041.5137519745 -0)
(-0 6041.51365091398 -0)
(-0 6041.51369681327 -0)
(-0 6041.5136093372 -0)
(-0 6041.51354855693 -0)
(-0 6041.51365055071 -0)
(-0 6041.51370133719 -0)
(-0 6041.5138284623 -0)
(-0 6041.51381152261 -0)
(-0 6041.51388318113 -0)
(-0 6041.51409800655 -0)
(-0 6041.51413503625 -0)
(-0 6041.51419163195 -0)
(-0 6041.51408862074 -0)
(-0 6041.51395153175 -0)
(-0 6041.51397888937 -0)
(-0 6041.51385269387 -0)
(-0 6041.5137718451 -0)
(-0 6041.51385597033 -0)
(-0 6041.51391592604 -0)
(-0 6041.51392050441 -0)
(-0 6041.51387257412 -0)
(-0 6041.51377484052 -0)
(-0 6041.51383078351 -0)
(-0 6041.51392678003 -0)
(-0 6041.51391716446 -0)
(-0 6041.51397524061 -0)
(-0 6041.51392941563 -0)
(-0 6041.513790613 -0)
(-0 6041.51382172836 -0)
(-0 9062.27057297553 -0)
)
;

boundaryField
{
    dielectric_2
    {
        type            calculated;
        value           nonuniform 0();
    }
    dielectric_1
    {
        type            calculated;
        value           uniform (-0 6041.51593321279 -0);
    }
    otherfaces
    {
        type            empty;
    }
    procBoundary1to0
    {
        type            processor;
        value           uniform (-0 9062.2693332511 -0);
    }
}


// ************************************************************************* //
