/*--------------------------------*- C++ -*----------------------------------*\
| =========                 |                                                 |
| \\      /  F ield         | foam-extend: Open Source CFD                    |
|  \\    /   O peration     | Version:     4.0                                |
|   \\  /    A nd           | Web:         http://www.foam-extend.org         |
|    \\/     M anipulation  |                                                 |
\*---------------------------------------------------------------------------*/
FoamFile
{
    version     2.0;
    format      ascii;
    class       volVectorField;
    location    "3e-10";
    object      E;
}
// * * * * * * * * * * * * * * * * * * * * * * * * * * * * * * * * * * * * * //

dimensions      [0 0 0 1 0 0 0];

internalField   nonuniform List<vector> 
252
(
(-0 4533.56828332288 -0)
(-0 4533.4898523336 -0)
(-0 4533.48726496724 -0)
(-0 4533.48645942401 -0)
(-0 4533.48926510567 -0)
(-0 4533.49061006992 -0)
(-0 4533.48875597352 -0)
(-0 4533.48936566767 -0)
(-0 4533.49044329128 -0)
(-0 4533.48918251169 -0)
(-0 4533.48763789085 -0)
(-0 4533.48780106631 -0)
(-0 4533.48814968984 -0)
(-0 4533.48798015835 -0)
(-0 4533.48740428099 -0)
(-0 4533.48801284439 -0)
(-0 4533.48716752122 -0)
(-0 4533.48714280342 -0)
(-0 4533.48706723384 -0)
(-0 4533.48762857847 -0)
(-0 4533.49121863496 -0)
(-0 4533.49130478912 -0)
(-0 4533.48883501644 -0)
(-0 4533.48818185724 -0)
(-0 4533.48882217774 -0)
(-0 4533.48678218163 -0)
(-0 4533.48311244777 -0)
(-0 4533.48367872239 -0)
(-0 4533.48389905516 -0)
(-0 4533.4825283466 -0)
(-0 4533.4847678314 -0)
(-0 4533.48535117488 -0)
(-0 4533.48432770346 -0)
(-0 4533.4859383358 -0)
(-0 4533.48717857816 -0)
(-0 4533.48723732617 -0)
(-0 4533.48858426075 -0)
(-0 4533.48968698599 -0)
(-0 4533.49005581424 -0)
(-0 4533.49174206081 -0)
(-0 4533.49350000901 -0)
(-0 4533.49522083504 -0)
(-0 4533.49495441005 -0)
(-0 4533.4938768477 -0)
(-0 4533.49618016521 -0)
(-0 4533.49981612775 -0)
(-0 4533.50145355078 -0)
(-0 4533.5014326405 -0)
(-0 4533.50186071806 -0)
(-0 4533.50134003674 -0)
(-0 4533.50040264596 -0)
(-0 4533.49963186417 -0)
(-0 4533.49833529659 -0)
(-0 4533.4977803403 -0)
(-0 4533.49596573682 -0)
(-0 4533.49435580099 -0)
(-0 4533.49501131433 -0)
(-0 4533.49539570016 -0)
(-0 4533.49614806811 -0)
(-0 4533.496129957 -0)
(-0 4533.49486043328 -0)
(-0 4533.49393515318 -0)
(-0 4533.49387011857 -0)
(-0 4533.4942500046 -0)
(-0 4533.49195327309 -0)
(-0 4533.48992346449 -0)
(-0 4533.49283060319 -0)
(-0 4533.49368410964 -0)
(-0 4533.49149658584 -0)
(-0 4533.49078308222 -0)
(-0 4533.49069611324 -0)
(-0 4533.48986483892 -0)
(-0 4533.48918858236 -0)
(-0 4533.48975593975 -0)
(-0 4533.48884917443 -0)
(-0 4533.48903733491 -0)
(-0 4533.48868753093 -0)
(-0 4533.48726350728 -0)
(-0 4533.48817179789 -0)
(-0 4533.48858001158 -0)
(-0 4533.48912762737 -0)
(-0 4533.48947798644 -0)
(-0 4533.48772255357 -0)
(-0 4533.48633972361 -0)
(-0 4533.48692846434 -0)
(-0 4533.48799874506 -0)
(-0 4533.48861753083 -0)
(-0 4533.48871648885 -0)
(-0 4533.48798996961 -0)
(-0 4533.48880120538 -0)
(-0 4533.49013860925 -0)
(-0 4533.48867797039 -0)
(-0 4533.48757467187 -0)
(-0 4533.48840942129 -0)
(-0 4533.48813359536 -0)
(-0 4533.48795705524 -0)
(-0 4533.48918561441 -0)
(-0 4533.49007388076 -0)
(-0 4533.49152130857 -0)
(-0 4533.4928491717 -0)
(-0 4533.4923795549 -0)
(-0 4533.49163645461 -0)
(-0 4533.49121053275 -0)
(-0 4533.49013110587 -0)
(-0 4533.48802500559 -0)
(-0 4533.48829991493 -0)
(-0 4533.49032347838 -0)
(-0 4533.49065178623 -0)
(-0 4533.48936350456 -0)
(-0 4533.49044041191 -0)
(-0 4533.49365819736 -0)
(-0 4533.49453533231 -0)
(-0 4533.49517773561 -0)
(-0 4533.49613081397 -0)
(-0 4533.49678357607 -0)
(-0 4533.49659161635 -0)
(-0 4533.49571614091 -0)
(-0 4533.49616008287 -0)
(-0 4533.49587681908 -0)
(-0 4533.49394011046 -0)
(-0 4533.49261188838 -0)
(-0 4533.49299639499 -0)
(-0 4533.49340639693 -0)
(-0 4533.49356378472 -0)
(-0 4533.49311469337 -0)
(-0 4533.4932511774 -0)
(-0 4533.49308419687 -0)
(-0 4533.491330383 -0)
(-0 4533.49121606237 -0)
(-0 4533.49216818707 -0)
(-0 4533.49150484273 -0)
(-0 4533.48962408634 -0)
(-0 4533.48829502635 -0)
(-0 4533.48792829657 -0)
(-0 4533.48879668326 -0)
(-0 4533.48926450426 -0)
(-0 4533.48916374055 -0)
(-0 4533.48883791064 -0)
(-0 4533.48807366118 -0)
(-0 4533.48763557152 -0)
(-0 4533.4873211923 -0)
(-0 4533.48761344606 -0)
(-0 4533.48867997299 -0)
(-0 4533.49006309014 -0)
(-0 4533.49107844935 -0)
(-0 4533.49074071978 -0)
(-0 4533.48905091883 -0)
(-0 4533.48905112231 -0)
(-0 4533.49030235296 -0)
(-0 4533.48998436894 -0)
(-0 4533.48924993941 -0)
(-0 4533.48939718571 -0)
(-0 4533.48993063371 -0)
(-0 4533.48994805736 -0)
(-0 4533.49065268212 -0)
(-0 4533.49148897335 -0)
(-0 4533.49302387651 -0)
(-0 4533.4945252207 -0)
(-0 4533.49478919487 -0)
(-0 4533.49507544568 -0)
(-0 4533.49529472294 -0)
(-0 4533.49539541388 -0)
(-0 4533.49567832308 -0)
(-0 4533.49602749494 -0)
(-0 4533.49619515608 -0)
(-0 4533.49646018816 -0)
(-0 4533.4956883328 -0)
(-0 4533.4953831519 -0)
(-0 4533.49631888002 -0)
(-0 4533.49723858828 -0)
(-0 4533.49733711133 -0)
(-0 4533.49765380058 -0)
(-0 4533.49883702801 -0)
(-0 4533.49776923793 -0)
(-0 4533.49566865329 -0)
(-0 4533.4956372484 -0)
(-0 4533.49623729199 -0)
(-0 4533.49683624359 -0)
(-0 4533.49668500334 -0)
(-0 4533.4960872803 -0)
(-0 4533.49637548817 -0)
(-0 4533.4966091196 -0)
(-0 4533.49669572029 -0)
(-0 4533.49703603501 -0)
(-0 4533.49630324227 -0)
(-0 4533.49571622259 -0)
(-0 4533.49648042105 -0)
(-0 4533.49572325052 -0)
(-0 4533.49452055804 -0)
(-0 4533.4946395354 -0)
(-0 4533.49453984789 -0)
(-0 4533.49449180772 -0)
(-0 4533.49407469926 -0)
(-0 4533.49362095114 -0)
(-0 4533.49283269848 -0)
(-0 4533.49174518846 -0)
(-0 4533.49189600479 -0)
(-0 4533.49201318826 -0)
(-0 4533.49133138262 -0)
(-0 4533.49119917998 -0)
(-0 4533.49211384916 -0)
(-0 4533.49213037256 -0)
(-0 4533.49146431137 -0)
(-0 4533.49044677691 -0)
(-0 4533.49027911334 -0)
(-0 4533.49094338358 -0)
(-0 4533.49077273296 -0)
(-0 4533.49042125513 -0)
(-0 4533.4901543819 -0)
(-0 4533.49022214826 -0)
(-0 4533.49013829106 -0)
(-0 4533.49035495634 -0)
(-0 4533.49080566302 -0)
(-0 4533.49070254922 -0)
(-0 4533.49098608254 -0)
(-0 4533.4907056589 -0)
(-0 4533.49012165124 -0)
(-0 4533.48987051244 -0)
(-0 4533.49015817995 -0)
(-0 4533.49039275762 -0)
(-0 4533.49043746673 -0)
(-0 4533.4906838994 -0)
(-0 4533.49066808846 -0)
(-0 4533.49103516506 -0)
(-0 4533.49180207683 -0)
(-0 4533.49279814838 -0)
(-0 4533.4930887406 -0)
(-0 4533.49235730165 -0)
(-0 4533.49095011347 -0)
(-0 4533.48982138592 -0)
(-0 4533.49028827757 -0)
(-0 4533.49146807329 -0)
(-0 4533.49178151529 -0)
(-0 4533.49101690055 -0)
(-0 4533.49047154621 -0)
(-0 4533.49072148271 -0)
(-0 4533.4909995769 -0)
(-0 4533.49120984994 -0)
(-0 4533.49168821459 -0)
(-0 4533.49218618652 -0)
(-0 4533.49236767656 -0)
(-0 4533.49205417589 -0)
(-0 4533.49181983841 -0)
(-0 4533.49189930917 -0)
(-0 4533.49163679383 -0)
(-0 4533.49167171761 -0)
(-0 4533.49175484295 -0)
(-0 4533.49147186803 -0)
(-0 4533.49123895382 -0)
(-0 4533.49120114004 -0)
(-0 4533.49152405532 -0)
(-0 6797.98562379554 -0)
)
;

boundaryField
{
    dielectric_2
    {
        type            calculated;
        value           nonuniform 0();
    }
    dielectric_1
    {
        type            calculated;
        value           uniform (-0 4533.64443058991 -0);
    }
    otherfaces
    {
        type            empty;
    }
    procBoundary1to0
    {
        type            processor;
        value           uniform (-0 6795.82326811168 -0);
    }
}


// ************************************************************************* //
