/*--------------------------------*- C++ -*----------------------------------*\
| =========                 |                                                 |
| \\      /  F ield         | foam-extend: Open Source CFD                    |
|  \\    /   O peration     | Version:     4.0                                |
|   \\  /    A nd           | Web:         http://www.foam-extend.org         |
|    \\/     M anipulation  |                                                 |
\*---------------------------------------------------------------------------*/
FoamFile
{
    version     2.0;
    format      ascii;
    class       volScalarField;
    location    "1.8e-06";
    object      Ar;
}
// * * * * * * * * * * * * * * * * * * * * * * * * * * * * * * * * * * * * * //

dimensions      [0 0 0 1 0 0 0];

internalField   nonuniform List<scalar> 
300
(
3.21880330291579e+22
3.21880330033334e+22
3.21880330231851e+22
3.21880330405724e+22
3.21880330631371e+22
3.21880330932167e+22
3.2188033130325e+22
3.21880331743238e+22
3.21880332252217e+22
3.21880332829818e+22
3.21880333475693e+22
3.21880334189525e+22
3.21880334970998e+22
3.2188033581979e+22
3.2188033673557e+22
3.21880337717998e+22
3.21880338766754e+22
3.21880339881461e+22
3.21880341061727e+22
3.21880342307158e+22
3.21880343617347e+22
3.21880344991872e+22
3.21880346430295e+22
3.21880347932163e+22
3.21880349497168e+22
3.21880351124701e+22
3.21880352814276e+22
3.21880354565408e+22
3.21880356377484e+22
3.21880358249958e+22
3.21880360182461e+22
3.21880362174354e+22
3.21880364224921e+22
3.21880366333559e+22
3.21880368499656e+22
3.21880370722592e+22
3.21880373001782e+22
3.2188037533657e+22
3.21880377726284e+22
3.21880380170279e+22
3.21880382667905e+22
3.21880385218488e+22
3.21880387821362e+22
3.21880390475861e+22
3.21880393181316e+22
3.21880395937062e+22
3.21880398742454e+22
3.21880401596845e+22
3.21880404499682e+22
3.21880407450351e+22
3.21880410448357e+22
3.21880413492959e+22
3.21880416583603e+22
3.21880419719514e+22
3.21880422900022e+22
3.21880426124389e+22
3.21880429392021e+22
3.21880432702342e+22
3.21880436054797e+22
3.21880439448873e+22
3.21880442884037e+22
3.21880446359799e+22
3.2188044987575e+22
3.21880453431649e+22
3.21880457027066e+22
3.21880460661381e+22
3.2188046433424e+22
3.21880468045326e+22
3.21880471794356e+22
3.21880475581086e+22
3.21880479405332e+22
3.21880483267011e+22
3.21880487166026e+22
3.21880491102234e+22
3.21880495075743e+22
3.21880499086567e+22
3.21880503134709e+22
3.21880507220332e+22
3.21880511343406e+22
3.21880515504463e+22
3.21880519703436e+22
3.2188052394064e+22
3.21880528216503e+22
3.21880532531457e+22
3.21880536886169e+22
3.21880541281142e+22
3.21880545716907e+22
3.21880550194173e+22
3.21880554713842e+22
3.21880559276688e+22
3.21880563883692e+22
3.21880568536304e+22
3.21880573235036e+22
3.21880577981019e+22
3.21880582775473e+22
3.21880587619697e+22
3.21880592515068e+22
3.21880597463049e+22
3.21880602465286e+22
3.21880607523398e+22
3.21880612639022e+22
3.21880617813929e+22
3.21880623050302e+22
3.21880628349798e+22
3.21880633714542e+22
3.21880639146745e+22
3.21880644648457e+22
3.2188065022216e+22
3.21880655870117e+22
3.21880661594724e+22
3.21880667398536e+22
3.2188067328419e+22
3.21880679254461e+22
3.2188068531215e+22
3.21880691460135e+22
3.21880697701529e+22
3.21880704039531e+22
3.2188071047698e+22
3.21880717017027e+22
3.21880723662983e+22
3.21880730418414e+22
3.21880737286557e+22
3.21880744271133e+22
3.21880751375534e+22
3.21880758603198e+22
3.21880765957756e+22
3.21880773443153e+22
3.21880781062926e+22
3.21880788820941e+22
3.2188079672102e+22
3.21880804767158e+22
3.21880812963265e+22
3.21880821313293e+22
3.21880829821427e+22
3.21880838491978e+22
3.21880847328713e+22
3.21880856335557e+22
3.21880865516726e+22
3.21880874876367e+22
3.21880884418334e+22
3.21880894146709e+22
3.21880904065549e+22
3.21880914179028e+22
3.21880924491265e+22
3.21880935006246e+22
3.21880945727429e+22
3.21880956658535e+22
3.2188096780319e+22
3.21880979165037e+22
3.21880990747757e+22
3.21881002554242e+22
3.2188101458756e+22
3.2188102685092e+22
3.21881039346647e+22
3.21881052076912e+22
3.21881065043823e+22
3.21881078248971e+22
3.21881091692979e+22
3.21881105375996e+22
3.2188111929768e+22
3.21881133456533e+22
3.21881147849826e+22
3.21881162473506e+22
3.21881177321555e+22
3.21881192385169e+22
3.21881207652284e+22
3.21881223149053e+22
3.21881238708039e+22
3.21881254313368e+22
3.21881270072432e+22
3.21881285932313e+22
3.21881301797131e+22
3.2188131752271e+22
3.21881333186208e+22
3.21881349001176e+22
3.21881364256177e+22
3.21881379312733e+22
3.21881393992496e+22
3.21881408070715e+22
3.21881421780663e+22
3.21881434229579e+22
3.21881445960505e+22
3.21881456498187e+22
3.21881465641766e+22
3.218814741974e+22
3.21881481165347e+22
3.21881486841886e+22
3.21881492110734e+22
3.21881496200283e+22
3.21881499465769e+22
3.21881502116452e+22
3.21881504584773e+22
3.21881506466993e+22
3.21881508027766e+22
3.21881508866635e+22
3.21881509052851e+22
3.21881509091205e+22
3.21881509215518e+22
3.21881509473778e+22
3.21881509843769e+22
3.21881510242381e+22
3.21881510661225e+22
3.21881511186359e+22
3.21881511784691e+22
3.21881512302216e+22
3.21881512774092e+22
3.21881513179379e+22
3.21881513549143e+22
3.21881513856613e+22
3.21881514130379e+22
3.21881514354631e+22
3.21881514605345e+22
3.21881514958649e+22
3.21881515286169e+22
3.21881515578238e+22
3.21881515849955e+22
3.21881516093805e+22
3.2188151632173e+22
3.21881516524348e+22
3.21881516716557e+22
3.21881516887042e+22
3.21881517050992e+22
3.21881517191508e+22
3.21881517324648e+22
3.21881517489127e+22
3.21881517731611e+22
3.21881517949663e+22
3.21881518163449e+22
3.21881518361462e+22
3.21881518556065e+22
3.21881518741955e+22
3.21881518923779e+22
3.21881519096221e+22
3.21881519266888e+22
3.21881519421078e+22
3.21881519579484e+22
3.21881519712445e+22
3.21881519854248e+22
3.21881519968733e+22
3.21881520095646e+22
3.21881520204536e+22
3.21881520326332e+22
3.21881520509857e+22
3.21881520726201e+22
3.21881520923338e+22
3.21881521131962e+22
3.21881521316543e+22
3.21881521515838e+22
3.21881521690027e+22
3.21881521878875e+22
3.21881522044425e+22
3.21881522221356e+22
3.2188152237476e+22
3.21881522536993e+22
3.21881522675504e+22
3.2188152282399e+22
3.21881522950204e+22
3.21881523086412e+22
3.21881523204051e+22
3.21881523334388e+22
3.2188152344958e+22
3.21881523579564e+22
3.21881523695952e+22
3.21881523824533e+22
3.21881523937493e+22
3.21881524060093e+22
3.21881524177234e+22
3.21881524354543e+22
3.21881524510451e+22
3.21881524671856e+22
3.21881524810813e+22
3.2188152495572e+22
3.21881525081281e+22
3.21881525216657e+22
3.21881525335796e+22
3.21881525468056e+22
3.21881525584426e+22
3.21881525716426e+22
3.21881525830651e+22
3.21881525962131e+22
3.21881526073271e+22
3.21881526200963e+22
3.21881526306981e+22
3.21881526426655e+22
3.2188152652383e+22
3.21881526632683e+22
3.21881526718394e+22
3.21881526815972e+22
3.21881526889645e+22
3.2188152697694e+22
3.21881527039077e+22
3.21881527120158e+22
3.21881527171413e+22
3.21881527252291e+22
3.21881527298207e+22
3.21881527380942e+22
3.21881527426976e+22
3.21881527512003e+22
3.2188152756044e+22
3.21881527667015e+22
)
;

boundaryField
{
    electrode
    {
        type            zeroGradient;
    }
    ground
    {
        type            zeroGradient;
    }
    otherfaces
    {
        type            empty;
    }
}


// ************************************************************************* //
