/*--------------------------------*- C++ -*----------------------------------*\
| =========                 |                                                 |
| \\      /  F ield         | foam-extend: Open Source CFD                    |
|  \\    /   O peration     | Version:     4.0                                |
|   \\  /    A nd           | Web:         http://www.foam-extend.org         |
|    \\/     M anipulation  |                                                 |
\*---------------------------------------------------------------------------*/
FoamFile
{
    version     2.0;
    format      ascii;
    class       volVectorField;
    location    "1.8e-06";
    object      E;
}
// * * * * * * * * * * * * * * * * * * * * * * * * * * * * * * * * * * * * * //

dimensions      [0 0 0 1 0 0 0];

internalField   nonuniform List<vector> 
300
(
(4.03683969169011 -0 -0)
(8.84805854417523 -0 -0)
(15.1674343043529 -0 -0)
(21.3720756758742 -0 -0)
(27.4523703103208 -0 -0)
(33.5402438073066 -0 -0)
(39.628670890635 -0 -0)
(45.7116394694803 -0 -0)
(51.789712685047 -0 -0)
(57.8622991770367 -0 -0)
(63.9284982659182 -0 -0)
(69.9875370865917 -0 -0)
(76.0386414958022 -0 -0)
(82.0810224622088 -0 -0)
(88.1138877070761 -0 -0)
(94.1364419207457 -0 -0)
(100.147886746003 -0 -0)
(106.147421918835 -0 -0)
(112.134246425811 -0 -0)
(118.107559836376 -0 -0)
(124.066563855775 -0 -0)
(130.010464061138 -0 -0)
(135.938471895744 -0 -0)
(141.849806792328 -0 -0)
(147.743698625249 -0 -0)
(153.619390266809 -0 -0)
(159.47614039752 -0 -0)
(165.313226561938 -0 -0)
(171.129948328682 -0 -0)
(176.925630741844 -0 -0)
(182.699627901425 -0 -0)
(188.451326764389 -0 -0)
(194.180151075215 -0 -0)
(199.885565545253 -0 -0)
(205.567080108174 -0 -0)
(211.224254345632 -0 -0)
(216.856702145462 -0 -0)
(222.464096323548 -0 -0)
(228.046173540743 -0 -0)
(233.602739269113 -0 -0)
(239.133672859334 -0 -0)
(244.63893269491 -0 -0)
(250.118561583048 -0 -0)
(255.57269198862 -0 -0)
(261.001551625531 -0 -0)
(266.405468926673 -0 -0)
(271.78487871088 -0 -0)
(277.140327861774 -0 -0)
(282.472481164004 -0 -0)
(287.782127061873 -0 -0)
(293.070183654573 -0 -0)
(298.337704707247 -0 -0)
(303.585885667807 -0 -0)
(308.8160698245 -0 -0)
(314.029754587583 -0 -0)
(319.22859777677 -0 -0)
(324.41442399531 -0 -0)
(329.58923121138 -0 -0)
(334.755197228742 -0 -0)
(339.914686514653 -0 -0)
(345.070256968539 -0 -0)
(350.224666850681 -0 -0)
(355.380881868245 -0 -0)
(360.542082360229 -0 -0)
(365.71167070502 -0 -0)
(370.893278731113 -0 -0)
(376.090775509917 -0 -0)
(381.308275054704 -0 -0)
(386.550144439204 -0 -0)
(391.82101200245 -0 -0)
(397.125775705642 -0 -0)
(402.469611796064 -0 -0)
(407.857983628119 -0 -0)
(413.296650711353 -0 -0)
(418.791678069617 -0 -0)
(424.349445774003 -0 -0)
(429.976658731988 -0 -0)
(435.680356825104 -0 -0)
(441.467925303739 -0 -0)
(447.347105421344 -0 -0)
(453.326005492355 -0 -0)
(459.413112248499 -0 -0)
(465.617302526552 -0 -0)
(471.947855387779 -0 -0)
(478.414464648349 -0 -0)
(485.027251820213 -0 -0)
(491.796779550412 -0 -0)
(498.734065621002 -0 -0)
(505.850597418043 -0 -0)
(513.158347156867 -0 -0)
(520.669787647307 -0 -0)
(528.397908948383 -0 -0)
(536.356235683651 -0 -0)
(544.558845433416 -0 -0)
(553.020388033178 -0 -0)
(561.756105982357 -0 -0)
(570.781856200416 -0 -0)
(580.114133014056 -0 -0)
(589.770092775168 -0 -0)
(599.767580163116 -0 -0)
(610.125156380471 -0 -0)
(620.862129407997 -0 -0)
(631.998586672681 -0 -0)
(643.555430233792 -0 -0)
(655.554414927326 -0 -0)
(668.01818966878 -0 -0)
(680.970342314834 -0 -0)
(694.435448440953 -0 -0)
(708.439124534679 -0 -0)
(723.008086042497 -0 -0)
(738.170210619406 -0 -0)
(753.954607529784 -0 -0)
(770.391693438573 -0 -0)
(787.513275515926 -0 -0)
(805.352642632788 -0 -0)
(823.944665420521 -0 -0)
(843.325906108117 -0 -0)
(863.534739381576 -0 -0)
(884.611485304875 -0 -0)
(906.598555615404 -0 -0)
(929.540614976013 -0 -0)
(953.484758606045 -0 -0)
(978.480708537029 -0 -0)
(1004.58103022434 -0 -0)
(1031.84137202457 -0 -0)
(1060.32073020913 -0 -0)
(1090.08174265522 -0 -0)
(1121.19101454262 -0 -0)
(1153.71948008076 -0 -0)
(1187.74280489244 -0 -0)
(1223.34183419146 -0 -0)
(1260.60309286202 -0 -0)
(1299.61934438748 -0 -0)
(1340.49021677352 -0 -0)
(1383.32290476621 -0 -0)
(1428.23295961614 -0 -0)
(1475.34517888318 -0 -0)
(1524.79461172378 -0 -0)
(1576.72769717666 -0 -0)
(1631.30355648295 -0 -0)
(1688.69546423881 -0 -0)
(1749.09252788088 -0 -0)
(1812.70161043986 -0 -0)
(1879.74953854995 -0 -0)
(1950.48564592977 -0 -0)
(2025.18471261141 -0 -0)
(2104.15037263122 -0 -0)
(2187.71907840746 -0 -0)
(2276.2647285772 -0 -0)
(2370.20408928889 -0 -0)
(2470.00316827311 -0 -0)
(2576.18473621047 -0 -0)
(2689.33723498202 -0 -0)
(2810.12536853143 -0 -0)
(2939.30274020497 -0 -0)
(3077.72698915663 -0 -0)
(3226.37798380764 -0 -0)
(3386.37977884072 -0 -0)
(3559.0272045267 -0 -0)
(3745.81799505349 -0 -0)
(3948.4925636302 -0 -0)
(4169.08163437022 -0 -0)
(4409.96505023428 -0 -0)
(4673.94623707192 -0 -0)
(4964.3678333952 -0 -0)
(5285.19621429874 -0 -0)
(5641.15598759598 -0 -0)
(6039.96521972783 -0 -0)
(6492.73130256599 -0 -0)
(7010.44024885581 -0 -0)
(7604.08297657474 -0 -0)
(8287.81437210117 -0 -0)
(9080.27474382605 -0 -0)
(10000.3964135103 -0 -0)
(11061.9680287357 -0 -0)
(12284.0442977669 -0 -0)
(13687.4164813117 -0 -0)
(15284.4018254774 -0 -0)
(17084.1265914472 -0 -0)
(19085.7108636244 -0 -0)
(21289.4362108053 -0 -0)
(23689.7408366921 -0 -0)
(26268.6875022822 -0 -0)
(29010.9932635634 -0 -0)
(31879.934807836 -0 -0)
(34840.9841576435 -0 -0)
(37877.9703620373 -0 -0)
(40948.927986954 -0 -0)
(44020.7017246945 -0 -0)
(47083.3493531872 -0 -0)
(50121.3011452664 -0 -0)
(53115.876968677 -0 -0)
(56054.4012795165 -0 -0)
(58944.4227612174 -0 -0)
(61800.4423202169 -0 -0)
(64638.6524723432 -0 -0)
(67473.3739886386 -0 -0)
(70306.0649262068 -0 -0)
(73132.8237809369 -0 -0)
(75948.9372715818 -0 -0)
(78750.8454455615 -0 -0)
(81537.4544344771 -0 -0)
(84304.2634551729 -0 -0)
(87044.6706951479 -0 -0)
(89757.650543374 -0 -0)
(92445.9828164866 -0 -0)
(95112.4098848546 -0 -0)
(97759.5101913377 -0 -0)
(100389.801914991 -0 -0)
(103005.898881572 -0 -0)
(105610.237439297 -0 -0)
(108203.492140903 -0 -0)
(110781.680404558 -0 -0)
(113342.425957116 -0 -0)
(115887.535362427 -0 -0)
(118418.661384499 -0 -0)
(120937.249123807 -0 -0)
(123444.612720135 -0 -0)
(125941.987878559 -0 -0)
(128430.450921412 -0 -0)
(130910.967372909 -0 -0)
(133384.385333647 -0 -0)
(135851.605431393 -0 -0)
(138313.565429774 -0 -0)
(140769.553369716 -0 -0)
(143216.257780597 -0 -0)
(145652.030343494 -0 -0)
(148077.699638369 -0 -0)
(150493.831353696 -0 -0)
(152900.957518235 -0 -0)
(155299.394730635 -0 -0)
(157689.478901925 -0 -0)
(160071.559822598 -0 -0)
(162445.915159881 -0 -0)
(164813.037818342 -0 -0)
(167173.235119666 -0 -0)
(169527.084728433 -0 -0)
(171875.024534793 -0 -0)
(174217.547094484 -0 -0)
(176555.038215501 -0 -0)
(178887.601018463 -0 -0)
(181215.327317589 -0 -0)
(183535.902864888 -0 -0)
(185846.413645262 -0 -0)
(188146.390278565 -0 -0)
(190436.001683034 -0 -0)
(192715.563861502 -0 -0)
(194985.299089613 -0 -0)
(197245.459850901 -0 -0)
(199496.303438228 -0 -0)
(201738.034131099 -0 -0)
(203970.955363608 -0 -0)
(206195.380855312 -0 -0)
(208411.701611193 -0 -0)
(210620.315941268 -0 -0)
(212821.590500476 -0 -0)
(215015.849119302 -0 -0)
(217203.419085548 -0 -0)
(219384.51774055 -0 -0)
(221559.280063846 -0 -0)
(223727.737087772 -0 -0)
(225889.858172874 -0 -0)
(228045.567711481 -0 -0)
(230194.869037988 -0 -0)
(232337.828792246 -0 -0)
(234474.591439096 -0 -0)
(236604.997270933 -0 -0)
(238727.364527229 -0 -0)
(240840.494991046 -0 -0)
(242944.839510587 -0 -0)
(245040.879985032 -0 -0)
(247129.084530941 -0 -0)
(249209.829254087 -0 -0)
(251283.375001575 -0 -0)
(253349.889961471 -0 -0)
(255409.445852497 -0 -0)
(257462.104216 -0 -0)
(259507.85073561 -0 -0)
(261546.726737858 -0 -0)
(263578.725362288 -0 -0)
(265603.918841878 -0 -0)
(267622.402801828 -0 -0)
(269634.323077787 -0 -0)
(271639.918991788 -0 -0)
(273639.445259678 -0 -0)
(275633.211874723 -0 -0)
(277621.54951547 -0 -0)
(279604.78114742 -0 -0)
(281583.255040218 -0 -0)
(283557.284075268 -0 -0)
(285527.228543614 -0 -0)
(287493.272051899 -0 -0)
(289455.729423118 -0 -0)
(291414.619479258 -0 -0)
(293370.125159996 -0 -0)
(295322.197071295 -0 -0)
(297270.863311336 -0 -0)
(299216.103996414 -0 -0)
(301157.908369569 -0 -0)
(303095.728787637 -0 -0)
)
;

boundaryField
{
    electrode
    {
        type            calculated;
        value           uniform (2.37851606698314 -0 -0);
    }
    ground
    {
        type            calculated;
        value           uniform (304063.220096475 -0 -0);
    }
    otherfaces
    {
        type            empty;
    }
}


// ************************************************************************* //
