/*--------------------------------*- C++ -*----------------------------------*\
| =========                 |                                                 |
| \\      /  F ield         | foam-extend: Open Source CFD                    |
|  \\    /   O peration     | Version:     4.0                                |
|   \\  /    A nd           | Web:         http://www.foam-extend.org         |
|    \\/     M anipulation  |                                                 |
\*---------------------------------------------------------------------------*/
FoamFile
{
    version     2.0;
    format      ascii;
    class       volScalarField;
    location    "1.8e-06";
    object      electron;
}
// * * * * * * * * * * * * * * * * * * * * * * * * * * * * * * * * * * * * * //

dimensions      [0 0 0 1 0 0 0];

internalField   nonuniform List<scalar> 
300
(
6.01911962717226e+16
6.01888776712409e+16
6.01835645670817e+16
6.01749266941739e+16
6.01629849201243e+16
6.01477508460265e+16
6.01292263994752e+16
6.01074166189384e+16
6.00823278351755e+16
6.00539670892658e+16
6.002234237555e+16
5.99874626487635e+16
5.99493378032575e+16
5.99079786724958e+16
5.98633970269995e+16
5.98156055701231e+16
5.97646179332141e+16
5.97104486699021e+16
5.9653113249328e+16
5.95926280482551e+16
5.95290103419649e+16
5.94622782938439e+16
5.93924509435624e+16
5.93195481937579e+16
5.92435907951272e+16
5.91646003298356e+16
5.90825991931743e+16
5.89976105733682e+16
5.89096584294742e+16
5.88187674673015e+16
5.8724963113288e+16
5.86282714862824e+16
5.85287193671894e+16
5.84263341664315e+16
5.83211438891979e+16
5.82131770984723e+16
5.81024628758015e+16
5.79890307798153e+16
5.78729108025012e+16
5.77541333232209e+16
5.76327290605014e+16
5.75087290216312e+16
5.73821644500644e+16
5.72530667706931e+16
5.71214675330248e+16
5.69873983522983e+16
5.6850890848607e+16
5.67119765840768e+16
5.65706869981511e+16
5.64270533410615e+16
5.62811066055478e+16
5.61328774568707e+16
5.59823961612153e+16
5.58296925125558e+16
5.56747957580296e+16
5.55177345219029e+16
5.53585367282135e+16
5.51972295221418e+16
5.50338391902004e+16
5.48683910793058e+16
5.4700909514789e+16
5.45314177174372e+16
5.43599377196287e+16
5.41864902806268e+16
5.40110948010972e+16
5.38337692369311e+16
5.3654530012429e+16
5.34733919329259e+16
5.3290368096933e+16
5.31054698078414e+16
5.29187064852931e+16
5.27300855762857e+16
5.25396124660829e+16
5.23472903890274e+16
5.21531203393305e+16
5.19571009819313e+16
5.17592285635397e+16
5.15594968239528e+16
5.13578969077488e+16
5.11544172764907e+16
5.09490436215595e+16
5.07417587777343e+16
5.0532542637675e+16
5.03213720674516e+16
5.01082208232676e+16
4.98930594695501e+16
4.96758552985824e+16
4.94565722518503e+16
4.92351708433027e+16
4.90116080847175e+16
4.87858374133783e+16
4.85578086222737e+16
4.83274677930423e+16
4.80947572318844e+16
4.78596154086613e+16
4.76219768994309e+16
4.73817723326375e+16
4.71389283392006e+16
4.68933675067462e+16
4.66450083382016e+16
4.63937652149925e+16
4.61395483650771e+16
4.58822638360372e+16
4.56218134734446e+16
4.53580949047161e+16
4.50910015286496e+16
4.48204225108422e+16
4.45462427851697e+16
4.42683430614919e+16
4.3986599839727e+16
4.37008854304573e+16
4.34110679821832e+16
4.31170115153291e+16
4.28185759631211e+16
4.25156172194049e+16
4.2207987193474e+16
4.18955338719868e+16
4.15781013880155e+16
4.12555300972579e+16
4.09276566614578e+16
4.05943141390561e+16
4.02553320831151e+16
3.99105366465313e+16
3.95597506945554e+16
3.92027939246703e+16
3.8839482993874e+16
3.84696316534033e+16
3.8093050890964e+16
3.77095490805553e+16
3.73189321399724e+16
3.69210036960963e+16
3.65155652580937e+16
3.61024163986619e+16
3.56813549434646e+16
3.52521771689236e+16
3.48146780085166e+16
3.43686512677499e+16
3.39138898479704e+16
3.34501859791591e+16
3.29773314618602e+16
3.24951179183808e+16
3.20033370533851e+16
3.15017809240286e+16
3.09902422198172e+16
3.04685145524411e+16
2.99363927559879e+16
2.9393673198209e+16
2.88401541039157e+16
2.82756358922213e+16
2.76999215303681e+16
2.71128169083359e+16
2.65141312406107e+16
2.59036775046945e+16
2.52812729304562e+16
2.46467395610452e+16
2.39999049155036e+16
2.33406027964684e+16
2.26686743055011e+16
2.19839691509976e+16
2.12863473878982e+16
2.05756817253832e+16
1.98518606545037e+16
1.91147926886979e+16
1.83644117936248e+16
1.76006830998793e+16
1.68236061064199e+16
1.60332205346716e+16
1.52295106242305e+16
1.44122394555883e+16
1.35810511718353e+16
1.27357927342379e+16
1.18767012925998e+16
1.1004474193733e+16
1.01205452685099e+16
9.2277338861118e+15
8.33058964472287e+15
7.43541897285054e+15
6.55060213683315e+15
5.68664583781263e+15
4.85581373155683e+15
4.0712437683391e+15
3.34571363855536e+15
2.69049950591172e+15
2.11409286448437e+15
1.62131221747612e+15
1.21254015371504e+15
883865561378582
628142980981622
435982226210859
296257435255413
197788032887733
130504866462681
85739988629733.8
56769760895595.1
37388222899463.1
23985076982566.7
14915925715635.4
9127923891211.02
5779193797901.58
3932933694967.36
2919809091975.46
2351809445721.41
2024402526221.27
1831662511117.3
1717132936450.5
1649494954723.63
1610391614993.72
1588596196092.55
1577277749508.94
1571860448505.94
1569271201797.81
1567425377640.38
1564992077114.88
1561113553685.76
1555247081486.67
1547073259370.68
1536433380620.31
1523285741407.76
1507674021325.61
1489702073705.2
1469518660371.94
1447273160859.59
1423125241553.98
1397280865248.06
1369966036422.39
1341411281869.86
1311844017222.19
1281482161037.02
1250530793097.99
1219180613964.9
1187607042039.73
1155969791215.61
1124412732814.25
1093064093529.09
1062036825898.56
1031429211527.56
1001325593112.38
971797203294.606
942903127058.515
914691282901.285
887199514178.069
860456620334.701
834483746952.537
809295689552.022
784901138289.127
761302325373.898
738495810149.053
716464389774.491
695189983022.774
674661998939.937
654866868228.083
635789130887.565
617411270143.203
599714160052.328
582677528935.077
566280166776.017
550502441285.956
535321232356.487
520709295777.431
506645370218.49
493110199884.218
480082457487.687
467541453678.942
455466983498.952
443839516438.336
432640225202.101
421850864173.701
411453878488.766
401428669615.279
391750572761.884
382400035275.918
373363593167.245
364628945728.758
356184883223.568
348021012895.854
340127775428.054
332496445697.453
325119151896.088
317988898511.546
311099558944.752
304445926417.559
298022960835.504
291825761286.458
285832975530.389
280015535689.707
274368152288.995
268901754806.511
263629737458.319
258566054814.154
253696471514.714
248995282164.156
244481059439.756
240207481717.687
236168294207.824
232390686032.66
228972781520.14
226055349578.828
223922663907.531
223032025240.803
224219894946.876
)
;

boundaryField
{
    electrode
    {
        type            driftDiffusionElectronDensity;
        seec            0.05;
        Edepend         1;
        field_emission  0;
        field_enhancement_factor 55;
        work_function   5;
        value           uniform 6.01911962717226e+16;
    }
    ground
    {
        type            driftDiffusionElectronDensity;
        seec            0.05;
        Edepend         1;
        field_emission  0;
        field_enhancement_factor 55;
        work_function   5;
        value           uniform 226442803008.976;
    }
    otherfaces
    {
        type            empty;
    }
}


// ************************************************************************* //
