/*--------------------------------*- C++ -*----------------------------------*\
| =========                 |                                                 |
| \\      /  F ield         | foam-extend: Open Source CFD                    |
|  \\    /   O peration     | Version:     4.0                                |
|   \\  /    A nd           | Web:         http://www.foam-extend.org         |
|    \\/     M anipulation  |                                                 |
\*---------------------------------------------------------------------------*/
FoamFile
{
    version     2.0;
    format      ascii;
    class       volVectorField;
    location    "1.8e-06";
    object      J_Arp1;
}
// * * * * * * * * * * * * * * * * * * * * * * * * * * * * * * * * * * * * * //

dimensions      [1 -1 -1 0 0 0 0];

internalField   nonuniform List<vector> 
300
(
(1.62905681165886e+16 -0 -0)
(5.32552179721764e+16 -0 -0)
(9.25773370937234e+16 -0 -0)
(1.2939854509101e+17 -0 -0)
(1.66121569328378e+17 -0 -0)
(2.02929590329465e+17 -0 -0)
(2.39678213743707e+17 -0 -0)
(2.7634437126137e+17 -0 -0)
(3.12929036885695e+17 -0 -0)
(3.49420803913353e+17 -0 -0)
(3.85808455520339e+17 -0 -0)
(4.22081672826545e+17 -0 -0)
(4.58230034604419e+17 -0 -0)
(4.9424311378602e+17 -0 -0)
(5.30110544801815e+17 -0 -0)
(5.65822019110622e+17 -0 -0)
(6.01367292321184e+17 -0 -0)
(6.36736196728026e+17 -0 -0)
(6.71918653055818e+17 -0 -0)
(7.06904683393517e+17 -0 -0)
(7.41684425253793e+17 -0 -0)
(7.76248146533668e+17 -0 -0)
(8.10586261839846e+17 -0 -0)
(8.44689349303404e+17 -0 -0)
(8.78548169058917e+17 -0 -0)
(9.1215368209674e+17 -0 -0)
(9.4549707019728e+17 -0 -0)
(9.78569756946302e+17 -0 -0)
(1.01136342900178e+18 -0 -0)
(1.04387005855145e+18 -0 -0)
(1.07608192601036e+18 -0 -0)
(1.10799164355456e+18 -0 -0)
(1.13959217877968e+18 -0 -0)
(1.17087687914697e+18 -0 -0)
(1.20183949630505e+18 -0 -0)
(1.23247421064247e+18 -0 -0)
(1.26277565642947e+18 -0 -0)
(1.29273894604309e+18 -0 -0)
(1.32235969502642e+18 -0 -0)
(1.35163404657333e+18 -0 -0)
(1.38055869576429e+18 -0 -0)
(1.4091309133381e+18 -0 -0)
(1.43734856986276e+18 -0 -0)
(1.46521015807603e+18 -0 -0)
(1.49271481619863e+18 -0 -0)
(1.51986234953005e+18 -0 -0)
(1.54665325214442e+18 -0 -0)
(1.57308872750631e+18 -0 -0)
(1.59917070883908e+18 -0 -0)
(1.62490187802758e+18 -0 -0)
(1.65028568456345e+18 -0 -0)
(1.67532636344797e+18 -0 -0)
(1.70002895193265e+18 -0 -0)
(1.72439930579653e+18 -0 -0)
(1.74844411503904e+18 -0 -0)
(1.77217091836889e+18 -0 -0)
(1.7955881168549e+18 -0 -0)
(1.81870498735871e+18 -0 -0)
(1.84153169408777e+18 -0 -0)
(1.86407930062667e+18 -0 -0)
(1.88635978028109e+18 -0 -0)
(1.90838602587667e+18 -0 -0)
(1.93017185885286e+18 -0 -0)
(1.9517320374018e+18 -0 -0)
(1.97308226426869e+18 -0 -0)
(1.99423919290376e+18 -0 -0)
(2.01522043398109e+18 -0 -0)
(2.03604455974582e+18 -0 -0)
(2.05673110874178e+18 -0 -0)
(2.07730058912664e+18 -0 -0)
(2.09777448090696e+18 -0 -0)
(2.11817523769221e+18 -0 -0)
(2.13852628715851e+18 -0 -0)
(2.15885203055527e+18 -0 -0)
(2.1791778414116e+18 -0 -0)
(2.19953006267421e+18 -0 -0)
(2.21993600275595e+18 -0 -0)
(2.24042393043859e+18 -0 -0)
(2.26102306838571e+18 -0 -0)
(2.28176358477323e+18 -0 -0)
(2.30267658387775e+18 -0 -0)
(2.32379409478666e+18 -0 -0)
(2.345149058133e+18 -0 -0)
(2.36677531121809e+18 -0 -0)
(2.38870757104559e+18 -0 -0)
(2.41098141513589e+18 -0 -0)
(2.43363326015323e+18 -0 -0)
(2.45670033833943e+18 -0 -0)
(2.48022067115193e+18 -0 -0)
(2.50423304077471e+18 -0 -0)
(2.52877695847962e+18 -0 -0)
(2.55389263081086e+18 -0 -0)
(2.57962092210337e+18 -0 -0)
(2.60600331487911e+18 -0 -0)
(2.63308186674755e+18 -0 -0)
(2.66089916413241e+18 -0 -0)
(2.68949827338245e+18 -0 -0)
(2.71892268805048e+18 -0 -0)
(2.74921627329528e+18 -0 -0)
(2.78042320709956e+18 -0 -0)
(2.81258791815576e+18 -0 -0)
(2.84575502037173e+18 -0 -0)
(2.87996924443089e+18 -0 -0)
(2.91527536585609e+18 -0 -0)
(2.951718130336e+18 -0 -0)
(2.98934217559867e+18 -0 -0)
(3.02819195044743e+18 -0 -0)
(3.06831163071758e+18 -0 -0)
(3.10974503249465e+18 -0 -0)
(3.15253552272282e+18 -0 -0)
(3.19672592636724e+18 -0 -0)
(3.24235843181804e+18 -0 -0)
(3.28947449313441e+18 -0 -0)
(3.33811472982064e+18 -0 -0)
(3.38831882430766e+18 -0 -0)
(3.44012541696741e+18 -0 -0)
(3.49357199813454e+18 -0 -0)
(3.54869479816367e+18 -0 -0)
(3.60552867467355e+18 -0 -0)
(3.66410699703833e+18 -0 -0)
(3.72446152806496e+18 -0 -0)
(3.78662230217813e+18 -0 -0)
(3.85061750101043e+18 -0 -0)
(3.91647332484102e+18 -0 -0)
(3.98421386000581e+18 -0 -0)
(4.05386094188823e+18 -0 -0)
(4.12543401322075e+18 -0 -0)
(4.19894997676626e+18 -0 -0)
(4.27442304173892e+18 -0 -0)
(4.35186456394422e+18 -0 -0)
(4.43128287815481e+18 -0 -0)
(4.51268312263514e+18 -0 -0)
(4.59606705460846e+18 -0 -0)
(4.68143285631722e+18 -0 -0)
(4.76877493020831e+18 -0 -0)
(4.85808368357214e+18 -0 -0)
(4.94934530049393e+18 -0 -0)
(5.04254150158216e+18 -0 -0)
(5.13764928992997e+18 -0 -0)
(5.23464068316808e+18 -0 -0)
(5.33348243044739e+18 -0 -0)
(5.43413571456582e+18 -0 -0)
(5.53655583801427e+18 -0 -0)
(5.64069189245804e+18 -0 -0)
(5.74648641195197e+18 -0 -0)
(5.85387500881899e+18 -0 -0)
(5.96278599070625e+18 -0 -0)
(6.0731399604844e+18 -0 -0)
(6.18484939573186e+18 -0 -0)
(6.29781820693367e+18 -0 -0)
(6.41194127379016e+18 -0 -0)
(6.52710395550216e+18 -0 -0)
(6.64318157025041e+18 -0 -0)
(6.76003884638702e+18 -0 -0)
(6.87752932409034e+18 -0 -0)
(6.99549471880224e+18 -0 -0)
(7.11376421655895e+18 -0 -0)
(7.23215364179722e+18 -0 -0)
(7.35046513379169e+18 -0 -0)
(7.46848391206283e+18 -0 -0)
(7.58598332559327e+18 -0 -0)
(7.70271373103025e+18 -0 -0)
(7.8184107634884e+18 -0 -0)
(7.93277619074381e+18 -0 -0)
(8.04555973716881e+18 -0 -0)
(8.15668290451045e+18 -0 -0)
(8.26332191541948e+18 -0 -0)
(8.37270473566208e+18 -0 -0)
(8.46968319805277e+18 -0 -0)
(8.56617750040628e+18 -0 -0)
(8.65979197644864e+18 -0 -0)
(8.74658907738611e+18 -0 -0)
(8.83250011926877e+18 -0 -0)
(8.9038569391412e+18 -0 -0)
(8.97520079104914e+18 -0 -0)
(9.04987825833614e+18 -0 -0)
(9.10849045047788e+18 -0 -0)
(9.18612648282867e+18 -0 -0)
(9.20767234482818e+18 -0 -0)
(9.2652911312292e+18 -0 -0)
(9.3074136410865e+18 -0 -0)
(9.33958699670654e+18 -0 -0)
(9.3889277886427e+18 -0 -0)
(9.40984709770384e+18 -0 -0)
(9.44001561572109e+18 -0 -0)
(9.47550460495644e+18 -0 -0)
(9.50308869017909e+18 -0 -0)
(9.51941945099027e+18 -0 -0)
(9.54409702525561e+18 -0 -0)
(9.54968980266157e+18 -0 -0)
(9.57038220232665e+18 -0 -0)
(9.57759721463679e+18 -0 -0)
(9.60157874263192e+18 -0 -0)
(9.61261857924277e+18 -0 -0)
(9.69409510326245e+18 -0 -0)
(9.86538110727805e+18 -0 -0)
(1.0089547562667e+19 -0 -0)
(1.02982282482096e+19 -0 -0)
(1.04741814467654e+19 -0 -0)
(1.06136804002143e+19 -0 -0)
(1.07342792543813e+19 -0 -0)
(1.08328487462837e+19 -0 -0)
(1.09252567598741e+19 -0 -0)
(1.10090092502297e+19 -0 -0)
(1.10919719986175e+19 -0 -0)
(1.11689323286125e+19 -0 -0)
(1.12475317370127e+19 -0 -0)
(1.1320943442903e+19 -0 -0)
(1.13975706286966e+19 -0 -0)
(1.14715300535324e+19 -0 -0)
(1.15489335979966e+19 -0 -0)
(1.1623447818362e+19 -0 -0)
(1.17010369215472e+19 -0 -0)
(1.1776860213482e+19 -0 -0)
(1.18543726933185e+19 -0 -0)
(1.19300240697817e+19 -0 -0)
(1.20065231385205e+19 -0 -0)
(1.20808032558689e+19 -0 -0)
(1.21560237085063e+19 -0 -0)
(1.22281573625606e+19 -0 -0)
(1.23007901820361e+19 -0 -0)
(1.23696593604339e+19 -0 -0)
(1.24400610875295e+19 -0 -0)
(1.25075274972414e+19 -0 -0)
(1.25773787695129e+19 -0 -0)
(1.26439223878308e+19 -0 -0)
(1.27130474385468e+19 -0 -0)
(1.27787688843256e+19 -0 -0)
(1.28448845358813e+19 -0 -0)
(1.29075722885352e+19 -0 -0)
(1.29686887027952e+19 -0 -0)
(1.30268230540533e+19 -0 -0)
(1.30838025159999e+19 -0 -0)
(1.31372245645242e+19 -0 -0)
(1.3192133246143e+19 -0 -0)
(1.32416232415049e+19 -0 -0)
(1.329591397335e+19 -0 -0)
(1.33433933663434e+19 -0 -0)
(1.33965885432032e+19 -0 -0)
(1.34418847378316e+19 -0 -0)
(1.34898705844017e+19 -0 -0)
(1.35299195769402e+19 -0 -0)
(1.35712289628663e+19 -0 -0)
(1.36048795692385e+19 -0 -0)
(1.36418954758468e+19 -0 -0)
(1.36713614357536e+19 -0 -0)
(1.37062258630878e+19 -0 -0)
(1.37325177463507e+19 -0 -0)
(1.37648393631951e+19 -0 -0)
(1.37887273329304e+19 -0 -0)
(1.38182453938603e+19 -0 -0)
(1.38406288585379e+19 -0 -0)
(1.38690173045292e+19 -0 -0)
(1.38913384164407e+19 -0 -0)
(1.39200070436795e+19 -0 -0)
(1.39423183771574e+19 -0 -0)
(1.39706543451103e+19 -0 -0)
(1.39927675425391e+19 -0 -0)
(1.40196844108838e+19 -0 -0)
(1.40393654181893e+19 -0 -0)
(1.40626456462419e+19 -0 -0)
(1.40778934397994e+19 -0 -0)
(1.40962482194902e+19 -0 -0)
(1.41076014175285e+19 -0 -0)
(1.41229947492281e+19 -0 -0)
(1.41324507208591e+19 -0 -0)
(1.41463124125903e+19 -0 -0)
(1.4154737040282e+19 -0 -0)
(1.4169693249594e+19 -0 -0)
(1.4180402320724e+19 -0 -0)
(1.41983316892251e+19 -0 -0)
(1.42119475433599e+19 -0 -0)
(1.42317464657388e+19 -0 -0)
(1.42457328768526e+19 -0 -0)
(1.42647819274408e+19 -0 -0)
(1.42767077512469e+19 -0 -0)
(1.42936651112155e+19 -0 -0)
(1.43024342627134e+19 -0 -0)
(1.4317110503535e+19 -0 -0)
(1.43229047969981e+19 -0 -0)
(1.43358258936261e+19 -0 -0)
(1.4340188123162e+19 -0 -0)
(1.43525145045667e+19 -0 -0)
(1.43576271920204e+19 -0 -0)
(1.43710689104804e+19 -0 -0)
(1.43781248100785e+19 -0 -0)
(1.439395567519e+19 -0 -0)
(1.44033311363357e+19 -0 -0)
(1.44219949973989e+19 -0 -0)
(1.44337218408752e+19 -0 -0)
(1.44555708007184e+19 -0 -0)
(1.44679099082272e+19 -0 -0)
(1.44924274934913e+19 -0 -0)
(1.45030478377469e+19 -0 -0)
(1.45283932190298e+19 -0 -0)
(1.45363339931432e+19 -0 -0)
(1.45602689265175e+19 -0 -0)
(1.4566005564331e+19 -0 -0)
(1.45879384251288e+19 -0 -0)
(1.45834934423949e+19 -0 -0)
)
;

boundaryField
{
    electrode
    {
        type            calculated;
        value           uniform (99100933250.8439 -0 -0);
    }
    ground
    {
        type            calculated;
        value           uniform (1.46022701692525e+19 -0 -0);
    }
    otherfaces
    {
        type            empty;
    }
}


// ************************************************************************* //
