/*--------------------------------*- C++ -*----------------------------------*\
| =========                 |                                                 |
| \\      /  F ield         | foam-extend: Open Source CFD                    |
|  \\    /   O peration     | Version:     4.0                                |
|   \\  /    A nd           | Web:         http://www.foam-extend.org         |
|    \\/     M anipulation  |                                                 |
\*---------------------------------------------------------------------------*/
FoamFile
{
    version     2.0;
    format      ascii;
    class       volScalarField;
    location    "1.8e-06";
    object      N_electronMean;
}
// * * * * * * * * * * * * * * * * * * * * * * * * * * * * * * * * * * * * * //

dimensions      [0 0 0 1 0 0 0];

internalField   nonuniform List<scalar> 
300
(
6.07721366835275e+16
6.0771232512598e+16
6.07677573559358e+16
6.07609722944746e+16
6.07508815923297e+16
6.07373929610243e+16
6.07204431677704e+16
6.06999874021779e+16
6.06759861982028e+16
6.06484081716962e+16
6.06172286924238e+16
6.05824292923099e+16
6.05439971227713e+16
6.05019244411753e+16
6.04562082565246e+16
6.04068499772274e+16
6.03538551179671e+16
6.0297233052681e+16
6.02369967768894e+16
6.01731626860906e+16
6.01057503849845e+16
6.00347825103461e+16
5.99602845630255e+16
5.9882284736903e+16
5.98008138055721e+16
5.97159050434526e+16
5.96275940500066e+16
5.95359185769e+16
5.94409183967125e+16
5.93426351120776e+16
5.92411120503349e+16
5.9136394272233e+16
5.90285284075351e+16
5.89175623607263e+16
5.88035451163092e+16
5.8686526595833e+16
5.85665575198591e+16
5.84436892882649e+16
5.83179738455135e+16
5.81894635445035e+16
5.80582110475263e+16
5.7924269224066e+16
5.77876910164376e+16
5.76485293223014e+16
5.75068369024884e+16
5.73626662937062e+16
5.72160697324907e+16
5.70670990958969e+16
5.69158058727524e+16
5.67622411648766e+16
5.66064557578586e+16
5.64485001949913e+16
5.62884247414378e+16
5.6126279255895e+16
5.59621129759689e+16
5.57959742951215e+16
5.56279105808732e+16
5.54579680461275e+16
5.52861916657187e+16
5.51126250972707e+16
5.49373106171666e+16
5.47602890659211e+16
5.45815997800349e+16
5.44012806275404e+16
5.42193681679367e+16
5.40358975856778e+16
5.38509024113575e+16
5.36644143767526e+16
5.34764633714668e+16
5.32870773951537e+16
5.30962825063008e+16
5.29041028242816e+16
5.27105606344135e+16
5.25156763785922e+16
5.23194685139623e+16
5.2121953557787e+16
5.19231461999618e+16
5.17230592443768e+16
5.15217033882666e+16
5.13190870939372e+16
5.11152165921025e+16
5.09100956427163e+16
5.07037253019121e+16
5.0496103850092e+16
5.0287226762994e+16
5.00770867581536e+16
4.98656736814308e+16
4.96529742609159e+16
4.94389719903476e+16
4.92236471062661e+16
4.90069764751332e+16
4.87889336252596e+16
4.85694888153125e+16
4.83486087035389e+16
4.81262560298204e+16
4.79023895027107e+16
4.76769636786021e+16
4.74499288379111e+16
4.72212308571228e+16
4.69908111176189e+16
4.67586064057199e+16
4.65245487261105e+16
4.62885652326667e+16
4.60505782311041e+16
4.58105049500822e+16
4.55682573568991e+16
4.53237420542834e+16
4.50768601241973e+16
4.48275070326111e+16
4.45755724274425e+16
4.43209398950155e+16
4.40634868027781e+16
4.38030841811925e+16
4.35395966683441e+16
4.32728823863171e+16
4.30027928144377e+16
4.27291728443142e+16
4.24518607206614e+16
4.21706877383948e+16
4.18854779727736e+16
4.15960482273447e+16
4.13022080531512e+16
4.100375973552e+16
4.07004983193107e+16
4.03922114065959e+16
4.00786787955601e+16
3.97596723668141e+16
3.94349560737994e+16
3.91042857952739e+16
3.87674092320417e+16
3.84240659145164e+16
3.80739872138883e+16
3.77168963223966e+16
3.73525082349015e+16
3.69805299819084e+16
3.66006609560234e+16
3.62125928526628e+16
3.58160095439131e+16
3.54105873099252e+16
3.49959950970395e+16
3.45718945340649e+16
3.4137939991054e+16
3.36937788159566e+16
3.32390516691732e+16
3.27733930532149e+16
3.22964317846657e+16
3.18077911680386e+16
3.13070891420348e+16
3.07939384514483e+16
3.02679471153949e+16
2.97287191852199e+16
2.91758551516309e+16
2.86089524383734e+16
2.80276061121917e+16
2.74314092989876e+16
2.68199537865849e+16
2.61928309471161e+16
2.55496326458242e+16
2.4889951939489e+16
2.42133838342032e+16
2.35195263431969e+16
2.2807980890496e+16
2.20783520403368e+16
2.1330246565347e+16
2.05632683190495e+16
1.97770046052238e+16
1.89710088681204e+16
1.81447926503229e+16
1.72978158432255e+16
1.64294793204436e+16
1.55391531131362e+16
1.46262597186242e+16
1.36904965876429e+16
1.27321828031871e+16
1.17526371648561e+16
1.07545989468849e+16
9.74273343076209e+15
8.72415637448331e+15
7.70869402655486e+15
6.70884951167628e+15
5.7394403102186e+15
4.81676029713454e+15
3.95733441237272e+15
3.17633775330575e+15
2.48593297040441e+15
1.89383115628504e+15
1.40238300740175e+15
1.00842418861249e+15
703920648990673
477263306945830
314879296455838
202864602838414
128382799420345
80610104387112.1
50601068314526.7
31944939845775.7
20435633024752.2
13439081793817.4
9270787267358.95
6816230891981.58
5401885525335.56
4603663634075.44
4138303643033.81
3843209947642.02
3637589561952.68
3481927993493.25
3356118961413.19
3249183813887.29
3154649230770.62
3068459644697.51
2988092837213.05
2911901646109.19
2838762608562.69
2767869870721.63
2698663473235.27
2630745447656.84
2563843720694.46
2497778333973.95
2432435720669.76
2367755097903.46
2303714289136.58
2240298511874.21
2177522779548.18
2115434663339.01
2054092706408.98
1993563145922.79
1933915386949.11
1875216949370.34
1817532720453.63
1760922538919.53
1705439722842.56
1651132728292.44
1598042011070.53
1546201162076.09
1495637942531.61
1446373065258.8
1398420182630.53
1351788376391.56
1306479894524.54
1262491835878.87
1219817732264.05
1178446082566.97
1138363230395.58
1099552094868.91
1061992380510.84
1025661456656.47
990531522574.879
956573548058.143
923759649521.202
892062069239.999
861452253021.368
831900241428.597
803375692496.808
775847394862.33
749284619900.267
723657526425.259
698937199909.827
675094060569.993
652097732058.978
629920289903.016
608535699086.921
587916799386.794
568037098907.866
548869984376.122
530389659778.086
512571943256.729
495393701187.729
478833130061.83
462868597804.803
447477336522.815
432635210100.841
418320719716.936
404515081856.526
391201854886.411
378365502087.908
365991414739.22
354065592898.918
342574237759.498
331504542090.887
320844724245.483
310583558989.86
300709008221.593
291209629799.792
282069821899.537
273266266134.778
264785574981.202
256627712638.823
248793339850.312
241283287171.101
234087287620.854
227186553489.545
220583406571.409
214301599643.47
208339819709.038
202715385883.861
197483275575.54
192728396816.081
188626315416.849
185470673270.229
183778584067.847
)
;

boundaryField
{
    electrode
    {
        type            calculated;
        value           uniform 6.07721366841824e+16;
    }
    ground
    {
        type            calculated;
        value           uniform 184045535585.776;
    }
    otherfaces
    {
        type            empty;
    }
}


// ************************************************************************* //
