/*--------------------------------*- C++ -*----------------------------------*\
| =========                 |                                                 |
| \\      /  F ield         | foam-extend: Open Source CFD                    |
|  \\    /   O peration     | Version:     4.0                                |
|   \\  /    A nd           | Web:         http://www.foam-extend.org         |
|    \\/     M anipulation  |                                                 |
\*---------------------------------------------------------------------------*/
FoamFile
{
    version     2.0;
    format      ascii;
    class       volScalarField;
    location    "1.8e-06";
    object      Phi;
}
// * * * * * * * * * * * * * * * * * * * * * * * * * * * * * * * * * * * * * //

dimensions      [0 0 0 1 0 0 0];

internalField   nonuniform List<scalar> 
300
(
699.999960358066
699.999770519289
699.999370487496
699.998759357001
699.997945682451
699.996929198981
699.995709666197
699.994287287588
699.992662223566
699.990834640075
699.988804736954
699.986572740191
699.984138901148
699.981503497425
699.978666832984
699.975629238244
699.97239107019
699.968952712461
699.965314575395
699.961477096033
699.957440738073
699.953205991776
699.948773373802
699.944143426983
699.939316720015
699.934293847074
699.929075427331
699.923662104381
699.918054545561
699.912253441159
699.906259503511
699.900073465966
699.893696081727
699.887128122561
699.880370377357
699.873423650553
699.8662887604
699.858966537077
699.851457820646
699.843763458841
699.835884304694
699.827821213984
699.819575042514
699.811146643212
699.802536863048
699.79374653977
699.784776498453
699.775627547857
699.766300476595
699.756796049112
699.747115001458
699.737258036869
699.727225821144
699.717018977824
699.706638083156
699.696083660852
699.685356176638
699.674456032585
699.663383561224
699.652139019436
699.640722582123
699.629134335639
699.617374270999
699.605442276847
699.593338132175
699.581061498801
699.568611913593
699.555988780434
699.543191361922
699.530218770804
699.517069961122
699.50374371909
699.490238653669
699.476553186849
699.462685543622
699.448633741644
699.43439558057
699.419968631062
699.405350223449
699.390537436042
699.375527083087
699.360315702342
699.34489954227
699.329274548841
699.313436351911
699.297380251197
699.28110120179
699.264593799227
699.247852264082
699.230870426066
699.213641707605
699.196159106889
699.178415180342
699.16040202451
699.142111257313
699.123533998641
699.104660850247
699.085481874895
699.065986574713
699.04616386871
699.026002069369
699.005488858284
698.984611260742
698.963355619173
698.941707565393
698.919651991511
698.897173019415
698.87425396869
698.850877322852
698.827024693721
698.802676783783
698.777813346346
698.752413143281
698.726453900117
698.699912258247
698.672763723941
698.644982613885
698.616541996868
698.58741363126
698.557567897847
698.526973727552
698.495598523516
698.463408076978
698.43036647628
698.396436008296
698.361577051478
698.325747959616
698.288904935301
698.25100189198
698.211990303296
698.17181903832
698.130434181017
698.087778832129
698.04379289139
697.998412817678
697.951571364406
697.903197287037
697.853215019147
697.801544312922
697.748099839335
697.69279074249
697.635520141719
697.576184573965
697.51467336769
697.450867938061
697.384640991295
697.315855623887
697.244364299786
697.170007685327
697.092613317881
697.011994079374
696.927946439996
696.840248430293
696.748657290997
696.652906739058
696.552703774984
696.447724939781
696.337611909397
696.221966287858
696.100343429095
695.972245088187
695.837110591519
695.694306312563
695.543112921504
695.382709896758
695.212155065944
695.030363482472
694.836078000105
694.627699134489
694.4032292466
694.160336451232
693.896290381495
693.607815493092
693.290938731907
692.941122398858
692.553474196658
692.122186112341
691.64097976457
691.103225990642
690.502037991807
689.830845266401
689.08274224442
688.251529210621
687.331496410935
686.31746299305
685.206167423746
683.994730715874
682.680969399609
681.26480218341
679.746255951297
678.125912226531
676.404835874945
674.584853761953
672.667875789644
670.655225577872
668.54784630163
666.345982079716
664.049621369053
661.658911084636
659.174099783657
656.595648599864
653.92404342062
651.159818304232
648.303759190275
645.356840257889
642.319915820716
639.193774736789
635.97908849506
632.676474057367
629.286435034061
625.809414131928
622.245752538107
618.595847989201
614.860307177804
611.039686258727
607.134471486975
603.145108833095
599.071988212055
594.915467985085
590.675855686818
586.353437923657
581.948457861957
577.461145568081
572.89168416653
568.240241206096
563.507047275216
558.69249068739
553.796911918983
548.820644044832
543.763989828736
538.627246876949
533.410696846695
528.114614950155
522.739259525187
517.28488727283
511.75172367063
506.140004931519
500.449918022068
494.681669962533
488.835414882436
482.911334081499
476.909574814539
470.830312260326
464.67384795688
458.440551350642
452.130755271642
445.744817905108
439.283051014208
432.7457979658
426.133353690815
419.446044403251
412.684151415408
405.847980712344
398.937792691721
391.953867271597
384.896438295635
377.765761238233
370.562048354348
363.285533299197
355.936413838311
348.514914628273
341.021231365795
333.455590750082
325.818193518362
318.109266147549
310.329004932213
302.477626718275
294.555338447484
286.562469083127
278.499305448081
270.366146449088
262.163246782412
253.890874147024
245.549258165471
237.138649146918
228.659265501374
220.111352756753
211.495125220308
202.81082937438
194.058676771118
185.238914350228
176.351748848325
167.397420830106
158.376127309806
149.288092897319
140.133497625829
130.912545439004
121.625394324797
112.272226695844
102.853177322115
93.3684077574903
83.8180287525421
74.2021896206986
64.5209801243332
54.7745483220822
44.9629717803352
35.0864018506624
25.1449142262454
15.1386615842329
5.06772033493964
)
;

boundaryField
{
    electrode
    {
        type            fixedValue;
        value           uniform 700;
    }
    ground
    {
        type            fixedValue;
        value           uniform 0;
    }
    otherfaces
    {
        type            empty;
    }
}


// ************************************************************************* //
