/*--------------------------------*- C++ -*----------------------------------*\
| =========                 |                                                 |
| \\      /  F ield         | foam-extend: Open Source CFD                    |
|  \\    /   O peration     | Version:     4.0                                |
|   \\  /    A nd           | Web:         http://www.foam-extend.org         |
|    \\/     M anipulation  |                                                 |
\*---------------------------------------------------------------------------*/
FoamFile
{
    version     2.0;
    format      ascii;
    class       volScalarField;
    location    "1.8e-06";
    object      PhiMean;
}
// * * * * * * * * * * * * * * * * * * * * * * * * * * * * * * * * * * * * * //

dimensions      [0 0 0 1 0 0 0];

internalField   nonuniform List<scalar> 
300
(
699.959235529314
699.95561310222
699.951738332727
699.947631992766
699.943303425132
699.938739855744
699.93393787298
699.928893903445
699.923604753851
699.918067959121
699.912281481108
699.906243754343
699.89995358131
699.893410106586
699.886612784067
699.879561344696
699.872255771063
699.864696280968
699.856883306441
699.848817474047
699.84049959218
699.831930637467
699.823111742778
699.814044184824
699.804729370535
699.795168858303
699.785364326341
699.775317563167
699.765030467366
699.754505025208
699.743743295465
699.732747450181
699.72151975419
699.710062521756
699.698378110654
699.686468914065
699.674337350707
699.661985863087
699.649416907797
699.636632943627
699.623636429435
699.610429822727
699.597015564065
699.58339607185
699.569573737402
699.555550920095
699.541329942684
699.526913090115
699.512302608496
699.497500714883
699.482509603756
699.467331486151
699.45196856792
699.436423061227
699.420697140282
699.40479292858
699.38871247061
699.372457724822
699.356030559114
699.339432742899
699.322665944364
699.305731725815
699.288631536929
699.271366707416
699.253938507253
699.236348138273
699.218596665689
699.200685015528
699.182613972069
699.164384172332
699.145996100761
699.127450080228
699.108746304494
699.089884845775
699.070865603217
699.051688325788
699.032352649781
699.012858072477
698.993203939863
698.973389378523
698.953413385034
698.933274725094
698.912971916287
698.89250322935
698.871866664857
698.851059995316
698.830080737372
698.808926099615
698.787592967126
698.766077916378
698.744377185958
698.72248665548
698.700401946784
698.67811828405
698.655630464667
698.632932847419
698.610019326654
698.58688331693
698.563517718758
698.539914908382
698.516066719608
698.491964400794
698.467598571716
698.442959281715
698.418035901398
698.392817097002
698.367290823676
698.341444244146
698.315263744166
698.288734854306
698.261842184935
698.234569387342
698.206899094499
698.178812895942
698.150291287186
698.121313577679
698.091857898801
698.061901162061
698.031418921759
698.00038527966
697.968772801984
697.936552504727
697.903693716444
697.870164072737
697.835929359563
697.800953332896
697.765197590179
697.728621496872
697.691181977774
697.652833371646
697.613527266419
697.573212331199
697.531834108509
697.489334778148
697.445652943972
697.400723515394
697.354477334417
697.306840804909
697.257735596824
697.207078335661
697.154780109443
697.100745986823
697.044874514602
696.98705715174
696.927177691452
696.865111633946
696.800725271735
696.733874772603
696.664405069159
696.592148646949
696.516924389815
696.438535931774
696.356769828044
696.271393688939
696.18215358854
696.08877133846
695.990941280876
695.888326501612
695.780554247082
695.66721036633
695.547832986351
695.421904503785
695.288841493314
695.147982879836
694.998574273701
694.839745698587
694.670480929539
694.489583996401
694.295637908543
694.086935685859
693.861414328627
693.616567712843
693.349362253744
693.056204897536
692.732843101713
692.374319888017
691.974908658119
691.528196478592
691.027153535437
690.464125997459
689.831138679486
689.119984825781
688.322596430531
687.431331807973
686.4392402721
685.340391557886
684.130023082184
682.804693962301
681.362144722279
679.801423269686
678.122605451351
676.326273984782
674.413812405719
672.387252870645
670.248514299916
667.99941328101
665.641375914732
663.175808978995
660.604085549462
657.927461016918
655.147148398514
652.264321945145
649.280152833702
646.195905275088
643.013032592519
639.732876934902
636.35669019245
632.885623521949
629.320760054202
625.663099324758
621.913593909399
618.073128960599
614.142625465843
610.123115708067
606.01558342864
601.820947790742
597.540091969835
593.173844411515
588.723008037117
584.188338984698
579.570576884184
574.870421634756
570.088564793193
565.225666294755
560.282388530323
555.25944684997
550.1576116807
544.977616185504
539.720183233343
534.386001274314
528.975752371651
523.490086275208
517.929652888854
512.295080010257
506.587000127542
500.806020618885
494.952755454077
489.027794066419
483.031735602518
476.965155766077
470.828643814804
464.622768459172
458.348123862305
452.005346332353
445.595097653157
439.117993500882
432.574672185827
425.965725134762
419.291769178763
412.553373042076
405.751133935738
398.885599159695
391.957348010512
384.966907435111
377.914840433999
370.801654705426
363.627898367929
356.394060978036
349.100676851757
341.748218601509
334.337207534771
326.868100265024
319.341405875175
311.75756524168
304.117075932034
296.420375149485
288.66798056171
280.860348707621
272.998048538712
265.081542690454
257.111391363907
249.088040063741
241.012038645045
232.88381578059
224.703911867309
216.47273910371
208.190829125785
199.858578018444
191.476509218358
183.045003057352
174.564575303708
166.035590740241
157.458558107549
148.833826890249
140.161899592992
131.443110778014
122.67795752059
113.866759813431
105.010010092079
96.1080141366746
87.1612604538728
78.1700411184222
69.1348415861331
60.0559405575557
50.9338210800895
41.7687488349319
32.5612053577651
23.3114435442542
14.0199444405353
4.68694864398805
)
;

boundaryField
{
    electrode
    {
        type            calculated;
        value           uniform 699.99999999995;
    }
    ground
    {
        type            calculated;
        value           uniform 0;
    }
    otherfaces
    {
        type            empty;
    }
}


// ************************************************************************* //
