/*--------------------------------*- C++ -*----------------------------------*\
| =========                 |                                                 |
| \\      /  F ield         | foam-extend: Open Source CFD                    |
|  \\    /   O peration     | Version:     4.0                                |
|   \\  /    A nd           | Web:         http://www.foam-extend.org         |
|    \\/     M anipulation  |                                                 |
\*---------------------------------------------------------------------------*/
FoamFile
{
    version     2.0;
    format      ascii;
    class       volScalarField;
    location    "1.8e-06";
    object      Sy_electron;
}
// * * * * * * * * * * * * * * * * * * * * * * * * * * * * * * * * * * * * * //

dimensions      [1 -3 -1 0 0 0 0];

internalField   nonuniform List<scalar> 
300
(
3.64884463756028e-15
3.65241072940567e-15
3.65605173626716e-15
3.65845552311106e-15
3.65996577397419e-15
3.66067722583906e-15
3.66066848748085e-15
3.65999750447121e-15
3.65871162254641e-15
3.6568514725573e-15
3.65444644637138e-15
3.65152296672792e-15
3.64810381640825e-15
3.64420920137698e-15
3.63985730039791e-15
3.63506469359684e-15
3.62984119112141e-15
3.62420356474657e-15
3.61816816663208e-15
3.61174797651279e-15
3.60495550392357e-15
3.59780277638659e-15
3.59030142301237e-15
3.58246269641243e-15
3.57426851810824e-15
3.56575256597276e-15
3.55692292591858e-15
3.54778465897239e-15
3.53836378476588e-15
3.52867054685486e-15
3.51868159637738e-15
3.50841897103046e-15
3.4979166588677e-15
3.48718567370823e-15
3.47623650419404e-15
3.46507911350881e-15
3.45371517751441e-15
3.44215768156747e-15
3.43042052381883e-15
3.41851127465984e-15
3.40643742758052e-15
3.39420957726665e-15
3.38183580359455e-15
3.36932382058312e-15
3.35668097071142e-15
3.3439141534926e-15
3.33102618803105e-15
3.31802080084193e-15
3.30488569574071e-15
3.29161977483568e-15
3.27820254595417e-15
3.26465710944168e-15
3.25097545817826e-15
3.23718942256591e-15
3.22331405545835e-15
3.2093784071689e-15
3.19538897329242e-15
3.18135157856126e-15
3.1672714228878e-15
3.15315001226161e-15
3.13899542717826e-15
3.124811969471e-15
3.11059479759347e-15
3.09631463572197e-15
3.08197910550218e-15
3.06763170173149e-15
3.05327642552643e-15
3.03891687751948e-15
3.0245562000124e-15
3.01019713242202e-15
2.99583877986379e-15
2.98146992846375e-15
2.96708863793703e-15
2.95270763795913e-15
2.93830540291023e-15
2.92388430405102e-15
2.9094551913517e-15
2.8950118645983e-15
2.88058699612914e-15
2.86613185030159e-15
2.85170228711797e-15
2.83730175892641e-15
2.82292547418565e-15
2.80857717543154e-15
2.79423357767302e-15
2.77990710028542e-15
2.76561616036092e-15
2.75136118420329e-15
2.7371235249438e-15
2.72291528376307e-15
2.70872715324164e-15
2.6944895631404e-15
2.68028805998941e-15
2.6661247406928e-15
2.65199931285732e-15
2.63791144469004e-15
2.62386039332791e-15
2.60984508065641e-15
2.59584855239589e-15
2.58187035550617e-15
2.56791943541631e-15
2.55399720052656e-15
2.54005575134658e-15
2.52613825558398e-15
2.51223035906988e-15
2.4983176864333e-15
2.48442178926739e-15
2.47051313868951e-15
2.4566063531093e-15
2.44270850838529e-15
2.42881593445875e-15
2.41492436118355e-15
2.40102165602302e-15
2.38710368919658e-15
2.3731663125156e-15
2.35918344736204e-15
2.34512749379341e-15
2.33103277228522e-15
2.31689933745519e-15
2.30271471987336e-15
2.28844096532143e-15
2.27409532851907e-15
2.25963654426939e-15
2.24507818753217e-15
2.23043487428457e-15
2.21570231534212e-15
2.20084087217113e-15
2.18587322107499e-15
2.1707833157049e-15
2.15556713679194e-15
2.14020237881628e-15
2.12468268699068e-15
2.10900021110413e-15
2.09311932802979e-15
2.07699124659206e-15
2.06064026632007e-15
2.04407064696425e-15
2.02724899756711e-15
2.01015041919076e-15
1.99278624791666e-15
1.97513544521253e-15
1.95717653286787e-15
1.93886888409946e-15
1.92017275951685e-15
1.9010584969816e-15
1.88155209855265e-15
1.86163620896497e-15
1.84129214022768e-15
1.82048451184652e-15
1.79915669176159e-15
1.77732716940851e-15
1.75496983626367e-15
1.7320152174866e-15
1.7084677431229e-15
1.68431218983511e-15
1.6594980325328e-15
1.6339843297492e-15
1.60778053500926e-15
1.58087570819217e-15
1.55323163903884e-15
1.52482298940385e-15
1.49564909826214e-15
1.46568610382886e-15
1.43496798059749e-15
1.40350548647806e-15
1.37126961399898e-15
1.33837274989214e-15
1.30501013759401e-15
1.27122543565842e-15
1.236932989663e-15
1.20214346663411e-15
1.16692447355418e-15
1.13128516232592e-15
1.0950173248104e-15
1.05807498278769e-15
1.02066916985302e-15
9.82776974941277e-16
9.44521919145597e-16
9.06467541166332e-16
8.69663451715029e-16
8.35921339254611e-16
8.07593432143652e-16
7.88678577313425e-16
7.79299354244039e-16
7.78883869661063e-16
8.20848255886319e-16
9.74493884886362e-16
1.55539275689515e-15
4.0605839539686e-15
1.83737947169583e-14
1.23310535710777e-13
1.23935869528321e-12
8.98180368457249e-11
8.74974767015618e-10
3.14254532143101e-09
5.09317859100033e-09
5.60301481776866e-09
4.93513178577471e-09
3.99154118483857e-09
3.21995796640184e-09
2.65743211882764e-09
2.29964572656345e-09
2.07031783585956e-09
1.93337899564285e-09
1.85360663854727e-09
1.81218444702915e-09
1.78729989771822e-09
1.77885646317287e-09
1.78006205235097e-09
1.78630791261845e-09
1.79166216490137e-09
1.7950243020559e-09
1.79721216037403e-09
1.79731687854213e-09
1.79476940355039e-09
1.78924292929925e-09
1.78058559868295e-09
1.76877336124621e-09
1.7538757100264e-09
1.73602790828252e-09
1.71541536937231e-09
1.69222004361079e-09
1.66663326030296e-09
1.63850105852023e-09
1.60762142336487e-09
1.57521724146595e-09
1.54155678010784e-09
1.50689711746158e-09
1.47148028070075e-09
1.4355314818964e-09
1.39925807508317e-09
1.36284906927872e-09
1.32647496420251e-09
1.29028797867302e-09
1.25442247437127e-09
1.21899565284522e-09
1.18410840091382e-09
1.14984624860176e-09
1.11628048609292e-09
1.08346930081284e-09
1.05145904856639e-09
1.02028544709048e-09
9.89975208499422e-10
9.60547583438673e-10
9.32014628833799e-10
9.04380745855447e-10
8.77643738274291e-10
8.51784698787504e-10
8.26783721734148e-10
8.02630156409926e-10
7.7930958053736e-10
7.5680530469414e-10
7.35098135424344e-10
7.1416691298378e-10
6.9398906205827e-10
6.74540795500435e-10
6.55800217962171e-10
6.37740522871904e-10
6.20331979233486e-10
6.03549745899136e-10
5.87372161626056e-10
5.7177491408453e-10
5.56734438376996e-10
5.42227678818499e-10
5.28232325134877e-10
5.14726847478342e-10
5.01690347171071e-10
4.89102750317884e-10
4.76940296728649e-10
4.65174225705409e-10
4.53781928095734e-10
4.42748053151898e-10
4.32058497914353e-10
4.21700405123551e-10
4.11661827471055e-10
4.01931749507397e-10
3.92500084116518e-10
3.83357690705049e-10
3.74496396517328e-10
3.65908979203822e-10
3.57589228301674e-10
3.49531029875007e-10
3.41283360883623e-10
3.33106704928791e-10
3.25117518479026e-10
3.17309296298328e-10
3.09693776993638e-10
3.02284652742105e-10
2.95096131822273e-10
2.87286069350176e-10
2.79270039425872e-10
2.71432035859126e-10
2.63825064847459e-10
2.5488493687322e-10
2.45677292760707e-10
2.35972335528849e-10
2.2429394781143e-10
2.1065590297317e-10
1.93528482966943e-10
1.69388937227059e-10
)
;

boundaryField
{
    electrode
    {
        type            zeroGradient;
    }
    ground
    {
        type            zeroGradient;
    }
    otherfaces
    {
        type            empty;
    }
}


// ************************************************************************* //
