/*--------------------------------*- C++ -*----------------------------------*\
| =========                 |                                                 |
| \\      /  F ield         | foam-extend: Open Source CFD                    |
|  \\    /   O peration     | Version:     4.0                                |
|   \\  /    A nd           | Web:         http://www.foam-extend.org         |
|    \\/     M anipulation  |                                                 |
\*---------------------------------------------------------------------------*/
FoamFile
{
    version     2.0;
    format      ascii;
    class       volScalarField;
    location    "7.1e-06";
    object      Arm;
}
// * * * * * * * * * * * * * * * * * * * * * * * * * * * * * * * * * * * * * //

dimensions      [0 0 0 1 0 0 0];

internalField   nonuniform List<scalar> 
300
(
3.57411954433526e+15
3.57599442194297e+15
3.5779422666486e+15
3.57924843251923e+15
3.5800647171623e+15
3.58044329679368e+15
3.58042837225491e+15
3.58005138982625e+15
3.57933801024162e+15
3.57831021459784e+15
3.57698378190862e+15
3.57537279786429e+15
3.57348931623514e+15
3.57134393991962e+15
3.568946126194e+15
3.56630441685103e+15
3.56342364295512e+15
3.560312387019e+15
3.55697898877677e+15
3.55342992931863e+15
3.54967141009924e+15
3.54570935278073e+15
3.54154944736666e+15
3.53719712460918e+15
3.53264175555286e+15
3.52790103341855e+15
3.52297867442996e+15
3.51787670772303e+15
3.51260870473762e+15
3.50717953633779e+15
3.50157548917449e+15
3.495807918506e+15
3.48989491067404e+15
3.48384186167536e+15
3.47765385777077e+15
3.47133569594962e+15
3.46488756149286e+15
3.45831596457023e+15
3.45162796990776e+15
3.44482711655909e+15
3.43791691002509e+15
3.43090262321136e+15
3.4237881382675e+15
3.41657714673631e+15
3.40927314875031e+15
3.40187940583896e+15
3.39439686554423e+15
3.38682696608677e+15
3.37916196014976e+15
3.37140041958857e+15
3.36352977857648e+15
3.3555624980015e+15
3.34749322668064e+15
3.33933965003226e+15
3.33110991969286e+15
3.32282038462859e+15
3.31447435880477e+15
3.30607475838508e+15
3.29762415356042e+15
3.28912296850355e+15
3.2805755123647e+15
3.27198389293052e+15
3.26334475589337e+15
3.25464017549429e+15
3.24587412964693e+15
3.2370721583735e+15
3.22823637858997e+15
3.21936863004597e+15
3.21047049858822e+15
3.20154334174422e+15
3.19258630984288e+15
3.18359226368958e+15
3.17455966975133e+15
3.16549594395618e+15
3.1563875792799e+15
3.14723562520567e+15
3.13804640954278e+15
3.12881583650268e+15
3.1195638119166e+15
3.11025988982194e+15
3.10093856059506e+15
3.09160197734115e+15
3.08224706637464e+15
3.07287606615174e+15
3.06347419616909e+15
3.05404917997793e+15
3.04461270801446e+15
3.03516509978103e+15
3.02569447607543e+15
3.01620855836108e+15
3.00670130708574e+15
2.99712780399985e+15
2.98754317101958e+15
2.97794909741771e+15
2.96834561372859e+15
2.95873274585492e+15
2.94911027550608e+15
2.93947776002819e+15
2.92982428419196e+15
2.92014978249531e+15
2.91046050702874e+15
2.9007577103037e+15
2.89100971864798e+15
2.88124566240463e+15
2.87145635946529e+15
2.86163248850562e+15
2.8517890154843e+15
2.84190638992723e+15
2.83199500225163e+15
2.82206030183512e+15
2.81210042527342e+15
2.80211308118695e+15
2.79209053969216e+15
2.7820305831886e+15
2.7719309761225e+15
2.76177408011998e+15
2.75154105208299e+15
2.74125662636895e+15
2.73092169080062e+15
2.72052815663188e+15
2.71004969116906e+15
2.69949917810176e+15
2.6888477075584e+15
2.67810563670246e+15
2.6672843822342e+15
2.65638173154847e+15
2.64536964236094e+15
2.63426547831459e+15
2.62305844751963e+15
2.61174648728749e+15
2.6003139789371e+15
2.5887570400177e+15
2.5770706533016e+15
2.5652287422358e+15
2.55319490661201e+15
2.54098793346492e+15
2.52861173249409e+15
2.51604129467561e+15
2.50325778287304e+15
2.49027026668381e+15
2.47706278291606e+15
2.46361866211251e+15
2.44990577430541e+15
2.43589202814127e+15
2.4215528466585e+15
2.40690795312438e+15
2.39194251241525e+15
2.37664014837152e+15
2.36097031970354e+15
2.34488421383554e+15
2.32839416465028e+15
2.31147542366375e+15
2.29406581902061e+15
2.27616408698967e+15
2.25775195718685e+15
2.23877973732244e+15
2.21920421216967e+15
2.19902477052655e+15
2.17822225980208e+15
2.15675175409238e+15
2.1345776579793e+15
2.11168483786782e+15
2.08803511310293e+15
2.06364095296553e+15
2.0384893471954e+15
2.01252584023415e+15
1.98577120310587e+15
1.95826996636128e+15
1.93005112552163e+15
1.90115666303454e+15
1.8716551206397e+15
1.841579916877e+15
1.8110234540665e+15
1.78015718828423e+15
1.74917502192806e+15
1.71824683546352e+15
1.68755182474917e+15
1.65728900878162e+15
1.62769707037175e+15
1.59893165963125e+15
1.5711470486615e+15
1.54449022665627e+15
1.51904264982142e+15
1.49491897161925e+15
1.47211909428127e+15
1.4505530188872e+15
1.43026037558082e+15
1.41119071108943e+15
1.39325821082745e+15
1.37638225108933e+15
1.36046884835705e+15
1.34556863412402e+15
1.33216981127555e+15
1.3253347257255e+15
1.35123410519369e+15
1.41698320401974e+15
1.49628218418155e+15
1.5604152975645e+15
1.61472077521175e+15
1.66519041587002e+15
1.71097057660707e+15
1.74693662242715e+15
1.75313278970937e+15
1.7284762408318e+15
1.6847659117975e+15
1.63682024990235e+15
1.59463007895322e+15
1.56226998089321e+15
1.53949568532674e+15
1.52445435969642e+15
1.51425273844027e+15
1.50744307761037e+15
1.5029563991234e+15
1.50007033062938e+15
1.49735026939622e+15
1.49494695716722e+15
1.49273305044218e+15
1.49042888938176e+15
1.48782963018633e+15
1.48481454419855e+15
1.48130630167202e+15
1.47696787668534e+15
1.47176863682612e+15
1.46586676038209e+15
1.45934750098193e+15
1.4523726030964e+15
1.44498952293445e+15
1.43722780975351e+15
1.42913435321345e+15
1.42076288121434e+15
1.41214481595802e+15
1.40332699031556e+15
1.39436019458487e+15
1.38527720110877e+15
1.37611263543386e+15
1.36691583790428e+15
1.35770124717894e+15
1.34851549298869e+15
1.33937241802098e+15
1.33030495785849e+15
1.3213329576394e+15
1.31246523898461e+15
1.30373129613551e+15
1.2951302972834e+15
1.28667987407832e+15
1.27840506765044e+15
1.27029993024309e+15
1.26237826480494e+15
1.25464724183984e+15
1.24710232562747e+15
1.23975298591157e+15
1.23259681499842e+15
1.22563191311501e+15
1.21886374540805e+15
1.21228548388461e+15
1.20589601415207e+15
1.19969377892468e+15
1.19366386085389e+15
1.18781442396786e+15
1.18213743709305e+15
1.17663805652814e+15
1.17130289844572e+15
1.1661338069056e+15
1.16112149727582e+15
1.15626258368146e+15
1.15155215187889e+15
1.14698140328564e+15
1.14254601223449e+15
1.1382341997746e+15
1.13405058231697e+15
1.12998596948277e+15
1.12604370257436e+15
1.12220919243771e+15
1.11848738555177e+15
1.11486556510823e+15
1.11134165374383e+15
1.10791332036643e+15
1.10457997670884e+15
1.10134301223435e+15
1.09819551086171e+15
1.09513573318793e+15
1.09212281278673e+15
1.08901341965248e+15
1.08583271083184e+15
1.08272056809243e+15
1.07966981861528e+15
1.07668939654786e+15
1.07378192922842e+15
1.07093783562746e+15
1.06777647805292e+15
1.06446650940383e+15
1.06123444011185e+15
1.05808692908049e+15
1.05442202802876e+15
1.05065379960477e+15
1.04676668237987e+15
1.04223285401292e+15
1.03723971470889e+15
1.03148084215863e+15
1.02446501620852e+15
)
;

boundaryField
{
    electrode
    {
        type            zeroGradient;
    }
    ground
    {
        type            zeroGradient;
    }
    otherfaces
    {
        type            empty;
    }
}


// ************************************************************************* //
