/*--------------------------------*- C++ -*----------------------------------*\
| =========                 |                                                 |
| \\      /  F ield         | foam-extend: Open Source CFD                    |
|  \\    /   O peration     | Version:     4.0                                |
|   \\  /    A nd           | Web:         http://www.foam-extend.org         |
|    \\/     M anipulation  |                                                 |
\*---------------------------------------------------------------------------*/
FoamFile
{
    version     2.0;
    format      ascii;
    class       volScalarField;
    location    "7.1e-06";
    object      Arp1;
}
// * * * * * * * * * * * * * * * * * * * * * * * * * * * * * * * * * * * * * //

dimensions      [0 0 0 1 0 0 0];

internalField   nonuniform List<scalar> 
300
(
6.49187442743795e+16
6.49613678928876e+16
6.49349300874206e+16
6.49296831286062e+16
6.49198173927521e+16
6.49058658094557e+16
6.48894399674274e+16
6.48698598614886e+16
6.4847225518114e+16
6.48215504689347e+16
6.47928169150091e+16
6.47610255027106e+16
6.47261726054135e+16
6.46882543309384e+16
6.4647266932687e+16
6.46032063318811e+16
6.45560682537522e+16
6.45058482177917e+16
6.44525415306296e+16
6.4396143289844e+16
6.43366483831802e+16
6.42740514893672e+16
6.42083470785336e+16
6.41395294123999e+16
6.40675925451819e+16
6.39925303243796e+16
6.39143363909715e+16
6.38330041807645e+16
6.37485269252847e+16
6.36608976525016e+16
6.35701091880632e+16
6.34761541569181e+16
6.33790249841227e+16
6.32787138964707e+16
6.31752129244479e+16
6.30685139033744e+16
6.29586084755771e+16
6.28454880925705e+16
6.27291440166456e+16
6.2609567323523e+16
6.24867489049422e+16
6.23606794706965e+16
6.2231349551809e+16
6.20987495034927e+16
6.19628695077941e+16
6.18236995771996e+16
6.16812295581908e+16
6.15354491342968e+16
6.13863478303427e+16
6.12339150165382e+16
6.10781399120128e+16
6.09190115897473e+16
6.07565189810589e+16
6.05906508799821e+16
6.04213959484258e+16
6.02487427215061e+16
6.00726796124987e+16
5.98931949184222e+16
5.9710276826157e+16
5.95239134177314e+16
5.93340926767767e+16
5.91408024950092e+16
5.89440306781912e+16
5.87437649531332e+16
5.8539992974697e+16
5.8332702332335e+16
5.81218805576362e+16
5.79075151318438e+16
5.76895934929191e+16
5.7468103043481e+16
5.72430311589424e+16
5.70143651949587e+16
5.6782092495884e+16
5.65462004032287e+16
5.63066762629201e+16
5.6063507433754e+16
5.58166812992731e+16
5.55661852801767e+16
5.5312006836053e+16
5.50541334447807e+16
5.47925525826899e+16
5.4527251877441e+16
5.42582195000544e+16
5.39854438553583e+16
5.37089112712153e+16
5.34286043896384e+16
5.31445105273981e+16
5.28566411238195e+16
5.25649929532708e+16
5.22695173045276e+16
5.19702049333757e+16
5.16670422813655e+16
5.13600148063899e+16
5.10491080827036e+16
5.07343078874721e+16
5.04156002487409e+16
5.00929714610485e+16
4.97664080920068e+16
4.94358969862091e+16
4.91014252689931e+16
4.87629803501278e+16
4.84205499270211e+16
4.80741219880289e+16
4.77236848162004e+16
4.73692269923189e+16
4.70107373980978e+16
4.66482052197355e+16
4.62816199508673e+16
4.59109713955276e+16
4.55362496716336e+16
4.5157445213687e+16
4.47745487757015e+16
4.43875514345316e+16
4.39964445925583e+16
4.36012199806486e+16
4.32018696615529e+16
4.27983860328363e+16
4.23907618301803e+16
4.19789901312902e+16
4.15630643594244e+16
4.11429782878543e+16
4.07187260447706e+16
4.02903021185127e+16
3.98577013638847e+16
3.94209190096066e+16
3.89799506665135e+16
3.85347923375307e+16
3.80854404296332e+16
3.76318917674024e+16
3.71741436096596e+16
3.67121936691265e+16
3.62460401355542e+16
3.57756817035012e+16
3.53011176055529e+16
3.48223476514778e+16
3.43393722752693e+16
3.38521925913718e+16
3.33608104608188e+16
3.28652285715287e+16
3.23654505331721e+16
3.18614809897326e+16
3.13533257568706e+16
3.08409919790814e+16
3.03244883376465e+16
2.98038252553834e+16
2.92790151966347e+16
2.87500729994089e+16
2.8217016378985e+16
2.76798659694111e+16
2.71386461751379e+16
2.65933886643357e+16
2.60441229952262e+16
2.54908936506424e+16
2.49337529537843e+16
2.43727627032518e+16
2.38079204839637e+16
2.32394861317772e+16
2.26674165525099e+16
2.20919421841956e+16
2.15129929216675e+16
2.09309992505096e+16
2.03459036190569e+16
1.97579792660801e+16
1.91679841695289e+16
1.85736627218784e+16
1.79873515890413e+16
1.74067083677786e+16
1.68178635704013e+16
1.62282897981666e+16
1.56387316367122e+16
1.50564785901183e+16
1.44813800531104e+16
1.39157246722144e+16
1.33618386519873e+16
1.28090688897826e+16
1.22413026549207e+16
1.17252611601896e+16
1.12291165660502e+16
1.06844703943954e+16
1.02106274935871e+16
9.77593882970724e+15
9.2841852289688e+15
8.87596016164126e+15
8.49780927808474e+15
8.08767543132004e+15
7.74530807074817e+15
7.44148927083072e+15
7.10437308034546e+15
6.83274436040577e+15
6.60364814926408e+15
6.34147132562447e+15
6.12041570445303e+15
5.93791677044701e+15
5.78077452667673e+15
5.59693725966473e+15
5.45421476085811e+15
5.32989945624115e+15
5.24595648248384e+15
5.16115906712787e+15
5.09852867280229e+15
5.05692828648487e+15
5.06143710776165e+15
5.07627767700467e+15
5.11230111447675e+15
5.10826254431941e+15
5.08780112147072e+15
5.04591474418352e+15
4.99723239878516e+15
4.94731158760451e+15
4.89873957377379e+15
4.85355264363256e+15
4.81226453466708e+15
4.77578307877576e+15
4.7240773947102e+15
4.6725984235571e+15
4.62461845307279e+15
4.58187514174394e+15
4.54205725077832e+15
4.50694382654689e+15
4.47418513698582e+15
4.44564805167438e+15
4.41896928486445e+15
4.39607674677023e+15
4.37462082131325e+15
4.35663700803654e+15
4.32453147931498e+15
4.2952591840614e+15
4.26630898632433e+15
4.24086854332882e+15
4.21541321569912e+15
4.19325646923902e+15
4.17081078743859e+15
4.15150042321058e+15
4.1316694296298e+15
4.11483991975133e+15
4.09728886590298e+15
4.08263679108931e+15
4.06708689701433e+15
4.05436518100102e+15
4.04060331480604e+15
4.02962634656501e+15
4.01523859032849e+15
3.99531221075239e+15
3.97431996266309e+15
3.95593069587479e+15
3.93636946827158e+15
3.91937706890649e+15
3.90111536743819e+15
3.88539359279674e+15
3.8683114511344e+15
3.85374648401838e+15
3.83774428905655e+15
3.82425064061309e+15
3.80925300540375e+15
3.79676385226892e+15
3.78270919238877e+15
3.77116197697854e+15
3.75798812556206e+15
3.74732382527787e+15
3.73498136011862e+15
3.72515378212436e+15
3.71360390195256e+15
3.70457743714144e+15
3.69378288444026e+15
3.68552222337093e+15
3.6714034796338e+15
3.6571629657029e+15
3.64103111737332e+15
3.62754934219396e+15
3.61212645869734e+15
3.59936586384792e+15
3.58462008821618e+15
3.57254693399047e+15
3.55844482990746e+15
3.54702270212228e+15
3.53352971119162e+15
3.52272122093632e+15
3.50980224733945e+15
3.49957239915565e+15
3.48719758854768e+15
3.4775175038126e+15
3.46566505515519e+15
3.45651343561031e+15
3.44516302746067e+15
3.43651074392336e+15
3.42563125328518e+15
3.41745657567439e+15
3.40702323309663e+15
3.39930551253963e+15
3.38929350973559e+15
3.38200830794604e+15
3.37237474981344e+15
3.3654864286263e+15
3.35621361705682e+15
3.34969221683125e+15
3.34073372314398e+15
3.33454762099981e+15
3.32584706438986e+15
3.31991494702427e+15
3.30307669937001e+15
)
;

boundaryField
{
    electrode
    {
        type            driftDiffusionPositiveIonDensity;
        seec            0;
        fieldName       Arp1;
        value           uniform 6.47365229846962e+16;
    }
    ground
    {
        type            driftDiffusionPositiveIonDensity;
        seec            0;
        fieldName       Arp1;
        value           uniform 3.30307669937001e+15;
    }
    otherfaces
    {
        type            empty;
    }
}


// ************************************************************************* //
