/*--------------------------------*- C++ -*----------------------------------*\
| =========                 |                                                 |
| \\      /  F ield         | foam-extend: Open Source CFD                    |
|  \\    /   O peration     | Version:     4.0                                |
|   \\  /    A nd           | Web:         http://www.foam-extend.org         |
|    \\/     M anipulation  |                                                 |
\*---------------------------------------------------------------------------*/
FoamFile
{
    version     2.0;
    format      ascii;
    class       volVectorField;
    location    "7.1e-06";
    object      E;
}
// * * * * * * * * * * * * * * * * * * * * * * * * * * * * * * * * * * * * * //

dimensions      [0 0 0 1 0 0 0];

internalField   nonuniform List<vector> 
300
(
(5.41443231916184 -0 -0)
(10.8599271117504 -0 -0)
(19.157610889331 -0 -0)
(26.8325372504433 -0 -0)
(34.4618263758971 -0 -0)
(42.1584280360658 -0 -0)
(49.8484292510431 -0 -0)
(57.5534185434645 -0 -0)
(65.2742193921204 -0 -0)
(73.0112042948712 -0 -0)
(80.7666070481978 -0 -0)
(88.5420342502949 -0 -0)
(96.3391790717592 -0 -0)
(104.159771549537 -0 -0)
(112.005539155969 -0 -0)
(119.878226428895 -0 -0)
(127.77959253196 -0 -0)
(135.711411816676 -0 -0)
(143.675475200446 -0 -0)
(151.673590986775 -0 -0)
(159.707585789538 -0 -0)
(167.779305611239 -0 -0)
(175.890616734006 -0 -0)
(184.043406777081 -0 -0)
(192.239585683487 -0 -0)
(200.481086790046 -0 -0)
(208.769867797445 -0 -0)
(217.107911960892 -0 -0)
(225.497229043576 -0 -0)
(233.939856524037 -0 -0)
(242.43786067443 -0 -0)
(250.993337759469 -0 -0)
(259.608415136029 -0 -0)
(268.285252572081 -0 -0)
(277.026043392303 -0 -0)
(285.833015789579 -0 -0)
(294.708434106535 -0 -0)
(303.654600201868 -0 -0)
(312.673854782651 -0 -0)
(321.768578860658 -0 -0)
(330.941195181222 -0 -0)
(340.194169726229 -0 -0)
(349.530013295275 -0 -0)
(358.951283076155 -0 -0)
(368.460584310206 -0 -0)
(378.060572056622 -0 -0)
(387.753952896174 -0 -0)
(397.543486817292 -0 -0)
(407.431989155091 -0 -0)
(417.422332503386 -0 -0)
(427.517448892178 -0 -0)
(437.720331868161 -0 -0)
(448.034038752398 -0 -0)
(458.461693009273 -0 -0)
(469.006486639213 -0 -0)
(479.671682786137 -0 -0)
(490.460618356218 -0 -0)
(501.376706822704 -0 -0)
(512.423441116526 -0 -0)
(523.604396723882 -0 -0)
(534.923234799031 -0 -0)
(546.383705583743 -0 -0)
(557.98965190041 -0 -0)
(569.745012835077 -0 -0)
(581.653827594224 -0 -0)
(593.720239547348 -0 -0)
(605.948500563627 -0 -0)
(618.34297544737 -0 -0)
(630.908146701029 -0 -0)
(643.64861946115 -0 -0)
(656.569126783339 -0 -0)
(669.674535146233 -0 -0)
(682.969850303372 -0 -0)
(696.460223363475 -0 -0)
(710.150957276906 -0 -0)
(724.047513607562 -0 -0)
(738.155520082914 -0 -0)
(752.480779045509 -0 -0)
(767.029275040928 -0 -0)
(781.807178753929 -0 -0)
(796.820850609924 -0 -0)
(812.076867293204 -0 -0)
(827.582088350046 -0 -0)
(843.343657570909 -0 -0)
(859.368703352931 -0 -0)
(875.663946053692 -0 -0)
(892.236669955514 -0 -0)
(909.09788497554 -0 -0)
(926.262404880675 -0 -0)
(943.743058543037 -0 -0)
(961.549365392875 -0 -0)
(979.690657086451 -0 -0)
(998.17667813816 -0 -0)
(1017.01756882326 -0 -0)
(1036.22389474014 -0 -0)
(1055.80667179871 -0 -0)
(1075.77739052745 -0 -0)
(1096.14804193031 -0 -0)
(1116.93114492756 -0 -0)
(1138.13977575827 -0 -0)
(1159.7875994041 -0 -0)
(1181.88890316242 -0 -0)
(1204.4586326852 -0 -0)
(1227.51243052225 -0 -0)
(1251.06667745468 -0 -0)
(1275.13853693957 -0 -0)
(1299.7460027001 -0 -0)
(1324.907950022 -0 -0)
(1350.644190823 -0 -0)
(1376.97553297927 -0 -0)
(1403.92384423717 -0 -0)
(1431.51212117099 -0 -0)
(1459.76456353528 -0 -0)
(1488.7066546511 -0 -0)
(1518.36524829878 -0 -0)
(1548.76866283013 -0 -0)
(1579.94678305784 -0 -0)
(1611.93117087525 -0 -0)
(1644.7551852688 -0 -0)
(1678.45411285522 -0 -0)
(1713.06530998441 -0 -0)
(1748.62835741994 -0 -0)
(1785.18522931672 -0 -0)
(1822.78047762712 -0 -0)
(1861.46143389372 -0 -0)
(1901.27843019854 -0 -0)
(1942.2850416258 -0 -0)
(1984.53835237134 -0 -0)
(2028.09924862872 -0 -0)
(2073.03274118465 -0 -0)
(2119.40832127679 -0 -0)
(2167.30035395453 -0 -0)
(2216.78851353739 -0 -0)
(2267.95826636743 -0 -0)
(2320.90140710626 -0 -0)
(2375.71665562143 -0 -0)
(2432.5103223028 -0 -0)
(2491.39705145063 -0 -0)
(2552.50065319985 -0 -0)
(2615.95503672166 -0 -0)
(2681.90525905565 -0 -0)
(2750.5087065369 -0 -0)
(2821.93642851895 -0 -0)
(2896.37464738372 -0 -0)
(2974.02646965178 -0 -0)
(3055.11383128448 -0 -0)
(3139.87972045159 -0 -0)
(3228.59072223349 -0 -0)
(3321.53988549877 -0 -0)
(3419.05007590519 -0 -0)
(3521.47804460368 -0 -0)
(3629.21831145647 -0 -0)
(3742.70857929938 -0 -0)
(3862.43705023698 -0 -0)
(3988.94769226894 -0 -0)
(4122.84288958301 -0 -0)
(4264.81551141675 -0 -0)
(4415.65307293166 -0 -0)
(4576.23705310874 -0 -0)
(4747.54948398739 -0 -0)
(4930.71325096861 -0 -0)
(5127.00616452696 -0 -0)
(5337.88651313537 -0 -0)
(5565.09036683549 -0 -0)
(5810.64880075319 -0 -0)
(6078.8653387744 -0 -0)
(6375.89180810121 -0 -0)
(6705.40837361618 -0 -0)
(7069.94454464443 -0 -0)
(7473.87296982504 -0 -0)
(7923.97244659187 -0 -0)
(8429.12791636747 -0 -0)
(8999.39911800469 -0 -0)
(9645.88334945547 -0 -0)
(10377.4805333102 -0 -0)
(11198.6464097662 -0 -0)
(12124.3523943741 -0 -0)
(13175.1334467897 -0 -0)
(14351.0298311043 -0 -0)
(15661.4210236091 -0 -0)
(17131.5134152172 -0 -0)
(18757.6354538387 -0 -0)
(20542.3525121791 -0 -0)
(22503.9415479295 -0 -0)
(24631.091747384 -0 -0)
(26916.4155734705 -0 -0)
(29365.544209578 -0 -0)
(31955.4632045806 -0 -0)
(34666.4919194894 -0 -0)
(37496.6260224322 -0 -0)
(40416.3401036673 -0 -0)
(43395.232174341 -0 -0)
(46423.6519876557 -0 -0)
(49490.8442318913 -0 -0)
(52569.7574267526 -0 -0)
(55639.8374784768 -0 -0)
(58699.1100050938 -0 -0)
(61746.6561011242 -0 -0)
(64785.8833019959 -0 -0)
(67812.5077184597 -0 -0)
(70822.7508319452 -0 -0)
(73838.1854486691 -0 -0)
(76874.8831982494 -0 -0)
(79933.8264463924 -0 -0)
(83006.9358489588 -0 -0)
(86076.2200699978 -0 -0)
(89128.9729456874 -0 -0)
(92155.7963748828 -0 -0)
(95153.5739235617 -0 -0)
(98121.968052218 -0 -0)
(101062.239389971 -0 -0)
(103976.51336277 -0 -0)
(106867.385403644 -0 -0)
(109731.690571773 -0 -0)
(112564.893439848 -0 -0)
(115368.112421918 -0 -0)
(118143.978559663 -0 -0)
(120894.950112882 -0 -0)
(123623.322653174 -0 -0)
(126331.223947644 -0 -0)
(129020.639530824 -0 -0)
(131693.401296991 -0 -0)
(134351.212365877 -0 -0)
(136995.650167604 -0 -0)
(139628.195205362 -0 -0)
(142245.636911442 -0 -0)
(144844.571903983 -0 -0)
(147425.952769094 -0 -0)
(149990.936146554 -0 -0)
(152540.576995596 -0 -0)
(155075.86652092 -0 -0)
(157597.713206722 -0 -0)
(160106.976219807 -0 -0)
(162604.444775081 -0 -0)
(165090.867643322 -0 -0)
(167566.932923861 -0 -0)
(170033.297722643 -0 -0)
(172490.565916883 -0 -0)
(174939.319899882 -0 -0)
(177380.099156873 -0 -0)
(179813.430076744 -0 -0)
(182239.123867205 -0 -0)
(184654.481597863 -0 -0)
(187057.511495914 -0 -0)
(189448.677027836 -0 -0)
(191828.409666995 -0 -0)
(194197.130545476 -0 -0)
(196555.231410962 -0 -0)
(198903.095267715 -0 -0)
(201241.077634514 -0 -0)
(203569.527146257 -0 -0)
(205888.769240616 -0 -0)
(208199.12673585 -0 -0)
(210500.902316226 -0 -0)
(212794.39858115 -0 -0)
(215079.899812775 -0 -0)
(217357.689548407 -0 -0)
(219628.03314807 -0 -0)
(221891.196822202 -0 -0)
(224147.430815964 -0 -0)
(226396.98724493 -0 -0)
(228640.104844254 -0 -0)
(230877.02494231 -0 -0)
(233107.975061856 -0 -0)
(235333.18588284 -0 -0)
(237551.654610653 -0 -0)
(239761.577574508 -0 -0)
(241962.34740712 -0 -0)
(244154.192700329 -0 -0)
(246337.327019122 -0 -0)
(248511.96762587 -0 -0)
(250678.318552288 -0 -0)
(252836.586900928 -0 -0)
(254986.966576925 -0 -0)
(257129.653763184 -0 -0)
(259264.831991939 -0 -0)
(261392.686153851 -0 -0)
(263513.389201524 -0 -0)
(265627.115484215 -0 -0)
(267734.028958482 -0 -0)
(269834.295267228 -0 -0)
(271928.071819726 -0 -0)
(274015.517799359 -0 -0)
(276096.784457303 -0 -0)
(278172.022329678 -0 -0)
(280241.373253842 -0 -0)
(282304.981143118 -0 -0)
(284362.980524631 -0 -0)
(286415.509004547 -0 -0)
(288462.693492183 -0 -0)
(290504.664422155 -0 -0)
(292541.535696052 -0 -0)
(294573.426856013 -0 -0)
(296600.446636693 -0 -0)
(298622.705388255 -0 -0)
(300640.297591309 -0 -0)
(302653.323578817 -0 -0)
(304661.860461553 -0 -0)
(306665.994299954 -0 -0)
(308663.258333749 -0 -0)
)
;

boundaryField
{
    electrode
    {
        type            calculated;
        value           uniform (4.36611109762453 -0 -0);
    }
    ground
    {
        type            calculated;
        value           uniform (309659.345140654 -0 -0);
    }
    otherfaces
    {
        type            empty;
    }
}


// ************************************************************************* //
