/*--------------------------------*- C++ -*----------------------------------*\
| =========                 |                                                 |
| \\      /  F ield         | foam-extend: Open Source CFD                    |
|  \\    /   O peration     | Version:     4.0                                |
|   \\  /    A nd           | Web:         http://www.foam-extend.org         |
|    \\/     M anipulation  |                                                 |
\*---------------------------------------------------------------------------*/
FoamFile
{
    version     2.0;
    format      ascii;
    class       volScalarField;
    location    "7.1e-06";
    object      electron;
}
// * * * * * * * * * * * * * * * * * * * * * * * * * * * * * * * * * * * * * //

dimensions      [0 0 0 1 0 0 0];

internalField   nonuniform List<scalar> 
300
(
6.49306668500906e+16
6.49289940391596e+16
6.49246305508888e+16
6.49171881309564e+16
6.49067271634876e+16
6.48932237079239e+16
6.4876672209988e+16
6.48570719365628e+16
6.48344196602361e+16
6.48087125918805e+16
6.47799477355854e+16
6.47481218394264e+16
6.47132314571761e+16
6.4675272928144e+16
6.46342423789149e+16
6.45901357243581e+16
6.45429486672249e+16
6.44926766983936e+16
6.44393150970709e+16
6.43828589310242e+16
6.43233030568934e+16
6.42606421205496e+16
6.41948705575168e+16
6.41259825934674e+16
6.40539722447852e+16
6.39788333192035e+16
6.39005594165303e+16
6.38191439294522e+16
6.37345800444305e+16
6.36468607426972e+16
6.35559788013441e+16
6.34619267945175e+16
6.3364697094729e+16
6.32642818742749e+16
6.31606731067722e+16
6.30538625688276e+16
6.29438418418293e+16
6.28306023138729e+16
6.27141351818267e+16
6.25944314535399e+16
6.24714819501959e+16
6.2345277308822e+16
6.22158079849498e+16
6.20830642554352e+16
6.19470362214465e+16
6.18077138116096e+16
6.16650867853285e+16
6.1519144736283e+16
6.13698770960932e+16
6.12172731381691e+16
6.10613219817365e+16
6.090201259604e+16
6.07393338047371e+16
6.05732742904711e+16
6.04038225996308e+16
6.02309671472928e+16
6.00546962223473e+16
5.98749979928102e+16
5.96918605113181e+16
5.95052717207999e+16
5.93152194603324e+16
5.91216914711718e+16
5.89246754029521e+16
5.87241588200528e+16
5.85201292081346e+16
5.83125739808379e+16
5.81014804866296e+16
5.78868360157949e+16
5.76686278075741e+16
5.74468430574303e+16
5.72214689244422e+16
5.69924925388071e+16
5.67599010094487e+16
5.65236814317231e+16
5.62838208952137e+16
5.60403064915999e+16
5.57931253225432e+16
5.55422645074868e+16
5.52877111914897e+16
5.50294525537179e+16
5.47674758169188e+16
5.45017682550374e+16
5.42323171924582e+16
5.39591100005532e+16
5.36821341343441e+16
5.34013772403241e+16
5.31168271624514e+16
5.28284714155693e+16
5.25362962697311e+16
5.22402866178402e+16
5.19404268104598e+16
5.16367012566289e+16
5.13290945475117e+16
5.10175914889644e+16
5.0702177111402e+16
5.03828366729614e+16
5.0059555660892e+16
4.97323197923558e+16
4.94011150149192e+16
4.90659275067838e+16
4.87267436767384e+16
4.83835501638097e+16
4.80363338365739e+16
4.76850817920932e+16
4.73297813544441e+16
4.69704200727891e+16
4.66069857189519e+16
4.62394662844522e+16
4.58678499769454e+16
4.54921252160245e+16
4.51122806283263e+16
4.47283050418816e+16
4.43401874796529e+16
4.39479171521984e+16
4.35514834493893e+16
4.31508759311069e+16
4.27460843168446e+16
4.23370984741277e+16
4.19239084056639e+16
4.15065042351302e+16
4.10848761914798e+16
4.06590145916705e+16
4.02289098216853e+16
3.97945523157065e+16
3.93559325333089e+16
3.89130409345109e+16
3.84658679525066e+16
3.80144039638955e+16
3.755863925621e+16
3.70985639925015e+16
3.66341681727532e+16
3.61654415918498e+16
3.56923737937959e+16
3.52149540218699e+16
3.47331711643623e+16
3.42470136955001e+16
3.37564696111403e+16
3.32615263587681e+16
3.27621707612915e+16
3.22583889340885e+16
3.17501661947097e+16
3.12374869646012e+16
3.07203346621736e+16
3.01986915864456e+16
2.96725387905577e+16
2.91418559444983e+16
2.86066211860222e+16
2.80668109583761e+16
2.7522399836339e+16
2.69733603414213e+16
2.64196627273266e+16
2.58612747717967e+16
2.52981615720119e+16
2.47302852448226e+16
2.41576045944409e+16
2.3580075187799e+16
2.29976484215395e+16
2.24102698672628e+16
2.18178789943992e+16
2.12204101895892e+16
2.0617793099905e+16
2.000995196648e+16
1.93968054615031e+16
1.8778259355856e+16
1.81541961689919e+16
1.75243913842027e+16
1.68883907138425e+16
1.62456148571865e+16
1.55955745948242e+16
1.49378953893269e+16
1.42722246169836e+16
1.35981646911459e+16
1.29152928718789e+16
1.22232566759475e+16
1.15219735878181e+16
1.08119609944349e+16
1.00943001026385e+16
9.37038672451826e+15
8.64245956783082e+15
7.91391387115946e+15
7.18870552330606e+15
6.47171836605475e+15
5.76905097304191e+15
5.08730667865905e+15
4.43349196702191e+15
3.81483888205146e+15
3.23805494096784e+15
2.70896738936744e+15
2.2321893249485e+15
1.81056202823501e+15
1.44502171101734e+15
1.13466369191237e+15
876766342240965
667123902041922
500216718023152
370058173295844
270683438430468
196188366130616
141054649231100
99279225032855.8
68118208646345.6
45954523188225.3
30056707310771.1
18795987499625.5
11352616768492.2
6832347359168.89
4277781301243.39
2883366282895.85
2120786374640.34
1694050816003.36
1448560883485.65
1304665019836.01
1219662224160.7
1169950962886.8
1142001645124.3
1127555014572.92
1121262506380.48
1119568567138.33
1120220745586.09
1121868690297.04
1123441298474.34
1124171701603.97
1123701599189.61
1121703127177.94
1118010643652.91
1112549715676.05
1105315269450.43
1096350651179.46
1085733377495.55
1073565136659.24
1059964203506.86
1045059547262.84
1028986192745.74
1011881554404.87
993882541937.378
975123288973.032
955733370486.368
935836420449.339
915548685182.368
894977400627.288
874210756448.788
853333241804.024
832434612388.67
811597027172.529
790895082171.523
770394790781.081
750153961228.694
730222572624.72
710643266542.317
691451860259.838
672677875863.817
654345076592.552
636471985053.373
619072495014.492
602156255701.313
585731026576.587
569798462372.033
554353844626.966
539395018489.472
524919124936.614
510919326898.795
497387356831.504
484313590874.076
471687436799.497
459497555670.437
447732190105.838
436379509050.442
425427639542.775
414864569281.016
404677816986.8
394854589486.419
385374723834.782
376214002628.24
367356769970.823
358793216737.228
350514647377.041
342513175644.679
334781495012.979
327312924017.653
320101471395.127
313141871473.056
306429714325.912
299960428358.438
293729575941.417
287709416817.282
281869963050.938
276213318603.604
270753703008.581
265507461189.444
260487049940.957
255658588637.051
251008804146.174
246594038290.458
242435002106.019
238553799727.69
235042866440.011
232037197837.378
229814200625.713
228867079112.974
230029190211.777
)
;

boundaryField
{
    electrode
    {
        type            driftDiffusionElectronDensity;
        seec            0.05;
        Edepend         1;
        field_emission  0;
        field_enhancement_factor 55;
        work_function   5;
        value           uniform 6.49306668500907e+16;
    }
    ground
    {
        type            driftDiffusionElectronDensity;
        seec            0.05;
        Edepend         1;
        field_emission  0;
        field_enhancement_factor 55;
        work_function   5;
        value           uniform 232264960137.219;
    }
    otherfaces
    {
        type            empty;
    }
}


// ************************************************************************* //
