/*--------------------------------*- C++ -*----------------------------------*\
| =========                 |                                                 |
| \\      /  F ield         | foam-extend: Open Source CFD                    |
|  \\    /   O peration     | Version:     4.0                                |
|   \\  /    A nd           | Web:         http://www.foam-extend.org         |
|    \\/     M anipulation  |                                                 |
\*---------------------------------------------------------------------------*/
FoamFile
{
    version     2.0;
    format      ascii;
    class       volScalarField;
    location    "7.1e-06";
    object      N_electronMean;
}
// * * * * * * * * * * * * * * * * * * * * * * * * * * * * * * * * * * * * * //

dimensions      [0 0 0 1 0 0 0];

internalField   nonuniform List<scalar> 
300
(
6.09089385713066e+16
6.09074365666331e+16
6.09033224514226e+16
6.08961352915191e+16
6.08859147445964e+16
6.08726260786427e+16
6.08562508403103e+16
6.08367790706828e+16
6.08142010342476e+16
6.07885095006077e+16
6.07596991331041e+16
6.07277662834474e+16
6.06927088826249e+16
6.06545262968881e+16
6.06132192326757e+16
6.05687896418592e+16
6.05212406407582e+16
6.04705764406283e+16
6.04168022800352e+16
6.03599243608113e+16
6.02999497913881e+16
6.02368865331122e+16
6.01707433484207e+16
6.01015297477827e+16
6.00292559508196e+16
5.99539328556977e+16
5.98755719835072e+16
5.97941854229188e+16
5.97097857849472e+16
5.96223861421426e+16
5.95319999890406e+16
5.94386412310699e+16
5.93423241291306e+16
5.92430632107889e+16
5.91408732062817e+16
5.90357689971619e+16
5.89277655657465e+16
5.88168779487355e+16
5.87031211865699e+16
5.85865102720267e+16
5.84670601079242e+16
5.83447854640822e+16
5.82197009262883e+16
5.80918208496307e+16
5.79611593181449e+16
5.78277301055146e+16
5.7691546638458e+16
5.75526219641111e+16
5.74109687248467e+16
5.7266599140298e+16
5.71195250067869e+16
5.69697576975916e+16
5.68173081355741e+16
5.66621867425561e+16
5.65044033669755e+16
5.63439672094942e+16
5.61808867592274e+16
5.60151697437347e+16
5.58468230907388e+16
5.56758528910668e+16
5.55022643654023e+16
5.53260618334257e+16
5.51472486796333e+16
5.49658273457051e+16
5.47817993548735e+16
5.45951652796418e+16
5.44059246563902e+16
5.42140759345597e+16
5.40196164523067e+16
5.3822542411968e+16
5.36228488554226e+16
5.34205296535089e+16
5.32155775220048e+16
5.30079840091794e+16
5.27977394506015e+16
5.25848329718756e+16
5.23692525092842e+16
5.21509847877842e+16
5.19300152587087e+16
5.17063280616689e+16
5.14799060207305e+16
5.12507305800425e+16
5.10187817420303e+16
5.07840380475943e+16
5.05464765683398e+16
5.030607291841e+16
5.00628012263009e+16
4.9816634076668e+16
4.95675424936245e+16
4.93154959545551e+16
4.90604623787102e+16
4.88024081473668e+16
4.85412981319237e+16
4.82770956215666e+16
4.80097622554821e+16
4.77392580084244e+16
4.74655411757713e+16
4.71885683593091e+16
4.69082944534748e+16
4.66246726424151e+16
4.63376543963606e+16
4.60471894475491e+16
4.57532257974265e+16
4.54557097435818e+16
4.51545858494794e+16
4.48497969269972e+16
4.45412840409946e+16
4.42289865019106e+16
4.39128418752606e+16
4.35927859654302e+16
4.32687527903383e+16
4.29406745792805e+16
4.26084817819844e+16
4.22721030947914e+16
4.19314654706954e+16
4.15864941296736e+16
4.12371126161331e+16
4.08832428283221e+16
4.05248049867817e+16
4.01617176119094e+16
3.97938975573458e+16
3.9421260061936e+16
3.90437187938106e+16
3.86611859044028e+16
3.82735720248236e+16
3.78807862218285e+16
3.74827360161463e+16
3.70793274266678e+16
3.66704649788538e+16
3.62560517232991e+16
3.58359892810997e+16
3.54101778884646e+16
3.49785164316225e+16
3.45409024793802e+16
3.40972323774959e+16
3.36474013604152e+16
3.31913035648378e+16
3.27288320001489e+16
3.22598785690081e+16
3.17843341230796e+16
3.13020884890568e+16
3.08130304886165e+16
3.03170479792251e+16
2.98140279079299e+16
2.93038564218073e+16
2.87864189642155e+16
2.82616002828651e+16
2.77292844222653e+16
2.71893547132681e+16
2.66416938264296e+16
2.60861838929181e+16
2.5522706541529e+16
2.49511429514549e+16
2.43713739737141e+16
2.3783280166593e+16
2.31867419373665e+16
2.25816397149104e+16
2.19678542940027e+16
2.13452668203334e+16
2.07137585007928e+16
2.00732078526404e+16
1.94234762419032e+16
1.87643857205315e+16
1.80957108982649e+16
1.74171785982284e+16
1.67284619076271e+16
1.60291973601223e+16
1.53190252455954e+16
1.4597609321814e+16
1.38646446419935e+16
1.31198994943894e+16
1.23633248253616e+16
1.15952092856587e+16
1.08163517231565e+16
1.00283072616305e+16
9.23359948802772e+15
8.43582153137287e+15
7.6398310318193e+15
6.85188656014114e+15
6.07948281320593e+15
5.33109169091635e+15
4.6158037474502e+15
3.94266953368147e+15
3.31997518820163e+15
2.75457649354098e+15
2.25123256759652e+15
1.81219737325426e+15
1.43714560224596e+15
1.1233309316914e+15
866022929201345
659119273537667
495784481821310
369041625596266
272249472420593
199054645418271
144216941260244
103565838073945
73672672742401.6
51772263961455.1
35747183534556.3
24317074615433.5
16333444416573.3
10803007427934.8
7127735681464.33
4835637355923.84
3489153993727.36
2725176374310.99
2291610556115
2038727598546.19
1885001602080.87
1787195279784.18
1721992283108
1676300492995.1
1642475975853.95
1615852696606.18
1593474668676.31
1573388797761.92
1554289355277.9
1535373705790.3
1516124877284.35
1496168458562.2
1475265120628.67
1453294257545.12
1430218638551.27
1406059977172.36
1380879452010.16
1354765547757.03
1327823480212.03
1300168386311.18
1271920212807.4
1243199893870.85
1214127134357.02
1184817582428.41
1155381570068.72
1125923218028.2
1096539287689.82
1067318596120.76
1038342284936.21
1009682989675.59
981405248068.731
953564674997.851
926208039929.164
899376536340.862
873106260536.165
847427876684.661
822366450954.439
797940762659.151
774164320012.492
751045908776.355
728590289088.885
706799635598.934
685673339765.883
665207757067.91
645396471003.304
626230941352.644
607701841228.255
589796940970.833
572500098023.13
555796190300.95
539671323804.874
524110276939.062
509096625233.152
494613606519.674
480644107219.103
467170991770.024
454177404277.569
441645779650.303
429558293800.916
417897615188.291
406646449660.674
395787105104.738
385301898765.865
375175481258.264
365395614209.108
355951107926.159
346831560124.695
338027194045.581
329528772831.078
321327832813.044
313416718592.769
305788470237.111
298436106026.151
291351913547.009
284517585025.694
277906630994.665
271509153176.684
265332306657.353
259385936684.397
253680507882.841
248204051573.919
242931938757.587
237876645406.61
233080579973.93
228544609340.832
224296792146.583
220418655873.344
217034244478.352
214399797347.671
212932499695.308
213380752305.239
)
;

boundaryField
{
    electrode
    {
        type            calculated;
        value           uniform 6.09089385714734e+16;
    }
    ground
    {
        type            calculated;
        value           uniform 215097317702.554;
    }
    otherfaces
    {
        type            empty;
    }
}


// ************************************************************************* //
