/*--------------------------------*- C++ -*----------------------------------*\
| =========                 |                                                 |
| \\      /  F ield         | foam-extend: Open Source CFD                    |
|  \\    /   O peration     | Version:     4.0                                |
|   \\  /    A nd           | Web:         http://www.foam-extend.org         |
|    \\/     M anipulation  |                                                 |
\*---------------------------------------------------------------------------*/
FoamFile
{
    version     2.0;
    format      ascii;
    class       volScalarField;
    location    "7.1e-06";
    object      PhiMean;
}
// * * * * * * * * * * * * * * * * * * * * * * * * * * * * * * * * * * * * * //

dimensions      [0 0 0 1 0 0 0];

internalField   nonuniform List<scalar> 
300
(
699.989614206564
699.988536676191
699.987186499952
699.98558826006
699.983751168723
699.981668689482
699.979340484583
699.976765543595
699.973942846477
699.970871618942
699.967551158767
699.963980867738
699.960160224856
699.956088777641
699.951766133869
699.947191952706
699.942365937604
699.937287831429
699.931957410437
699.926374478489
699.920538863011
699.914450410555
699.908108982918
699.901514452947
699.894666700099
699.887565614532
699.880211088213
699.872603010954
699.864741269278
699.856625739365
699.848256281676
699.839632749941
699.83075498436
699.82162279898
699.812235978526
699.802594274593
699.792697401242
699.782545032697
699.772136798841
699.761472280074
699.750551004644
699.739372446046
699.727936016755
699.716241064778
699.704286869837
699.69207263986
699.679597507154
699.666860525569
699.653860667427
699.640596823271
699.62706780043
699.613272329943
699.599209057993
699.584876545616
699.570273254138
699.555397538706
699.540247637563
699.524821666775
699.509117615361
699.493133339641
699.476866558606
699.46031484869
699.443475637873
699.426346199578
699.40892366346
699.391205008786
699.373187042464
699.354866393679
699.336239508342
699.317302642819
699.298051857361
699.278483008718
699.258591752891
699.238373541318
699.217823602175
699.196936940098
699.175708339509
699.154132351591
699.132203284504
699.109915179306
699.087261825486
699.064236728081
699.040833095664
699.017043832781
698.992861525935
698.968278445788
698.943286530922
698.917877365449
698.892042166192
698.865771779134
698.83905666268
698.81188687189
698.784252073171
698.756141497079
698.727543919109
698.698447643893
698.668840485506
698.638709749756
698.608042210812
698.57682409354
698.545041052645
698.512678144994
698.479719800623
698.446149818878
698.411951320924
698.377106722192
698.34159770846
698.305405191482
698.268509287873
698.230889272703
698.192523534414
698.153389534954
698.11346376244
698.07272169036
698.031137728058
697.98868515792
697.945336095417
697.901061433081
697.855830757275
697.809612271733
697.762372720302
697.714077322723
697.664689674408
697.614171674334
697.562483409097
697.509583024184
697.455426601736
697.399968044412
697.343158916182
697.284948290231
697.225282580813
697.164105363165
697.101357169943
697.036975266419
696.970893414805
696.903041645547
696.833345940837
696.761727905069
696.688104393787
696.612387137071
696.534482289894
696.454289941761
696.371703575773
696.286609458164
696.198885978027
696.10840291297
696.015020546044
695.91858869972
695.818945625343
695.715916751635
695.609313320361
695.498930745027
695.384546754755
695.265919302598
695.142784084519
695.014851657757
694.881804249221
694.743291705787
694.598927379437
694.448281944172
694.290878469988
694.126179900951
693.953566034968
693.772316475485
693.58160104184
693.380448145942
693.167723139848
692.942120080542
692.702125906763
692.445959364788
692.171516892701
691.876338140095
691.557602757192
691.212036001071
690.835918174067
690.425169010476
689.975161727725
689.480743500578
688.936548573045
688.336823752756
687.675493695624
686.946573093493
686.14414663705
685.262351068961
684.296024569006
683.240465344076
682.091521158974
680.845986326997
679.501476858168
678.056168183457
676.509005153247
674.859615409315
673.108131717257
671.255057870304
669.3011071057
667.247005034392
665.093359956424
662.840565978962
660.488995621114
658.038957636657
655.490762077389
652.844489765327
650.100160177324
647.258015910299
644.318561383852
641.282531986732
638.150802332487
634.924307352465
631.603977514468
628.190684556746
624.685249811129
621.088411292721
617.400923199722
613.623627255296
609.757441134563
605.80320133227
601.761695919834
597.633632506459
593.41968134525
589.120440521332
584.736480468569
580.268306465758
575.716404718442
571.081202714628
566.363117256858
561.562593650784
556.680240892101
551.716609862275
546.672250155941
541.547655584034
536.343324175946
531.05970058259
525.697239245464
520.256345065139
514.737437267407
509.140885539632
503.467077286038
497.71635091673
491.889065855336
485.985532907753
480.006087085603
473.95101536825
467.820641718253
461.615361688474
455.335633731023
448.981862296268
442.554482134277
436.053873511155
429.480449561929
422.834568209165
416.116622772091
409.326950356876
402.465926022978
395.533867331106
388.531132419237
381.458020410489
374.314873645528
367.101973802696
359.819648380226
352.468162512839
345.047829665941
337.558899246891
330.001671445538
322.376380537824
314.683314136848
306.922694907467
299.094815891979
291.199935536307
283.238406429548
275.210529565264
267.116674894756
258.957129623765
250.732252305271
242.442316023999
234.087668629035
225.668569630787
217.185356816785
208.638276664286
200.027657484767
191.353733238697
182.616823304132
173.817149562534
164.955022988594
156.030653800078
147.04434517745
137.996296185909
128.886802771706
119.716053198324
110.484336633368
101.191830860494
91.8388186622552
82.4254678532126
72.9520555504126
63.4187399953811
53.8257929675732
44.1733637924297
34.4617198042098
24.6910019481145
14.8614742744834
4.97327034963568
)
;

boundaryField
{
    electrode
    {
        type            calculated;
        value           uniform 699.999999999655;
    }
    ground
    {
        type            calculated;
        value           uniform 0;
    }
    otherfaces
    {
        type            empty;
    }
}


// ************************************************************************* //
