/*--------------------------------*- C++ -*----------------------------------*\
| =========                 |                                                 |
| \\      /  F ield         | foam-extend: Open Source CFD                    |
|  \\    /   O peration     | Version:     4.0                                |
|   \\  /    A nd           | Web:         http://www.foam-extend.org         |
|    \\/     M anipulation  |                                                 |
\*---------------------------------------------------------------------------*/
FoamFile
{
    version     2.0;
    format      ascii;
    class       volScalarField;
    location    "7.1e-06";
    object      Sy_electron;
}
// * * * * * * * * * * * * * * * * * * * * * * * * * * * * * * * * * * * * * //

dimensions      [1 -3 -1 0 0 0 0];

internalField   nonuniform List<scalar> 
300
(
3.27389746767367e-09
3.27463506765653e-09
3.27491285573137e-09
3.27483682700289e-09
3.27478077306368e-09
3.27467184727858e-09
3.2745190466843e-09
3.27432726489287e-09
3.27409412779063e-09
3.27381977023667e-09
3.27350389695363e-09
3.27314611735287e-09
3.27274608299804e-09
3.27230341411784e-09
3.2718177153271e-09
3.2712885760033e-09
3.27071556868629e-09
3.2700982494271e-09
3.26943615756908e-09
3.26872881556218e-09
3.26797572882287e-09
3.26717638555839e-09
3.26633025658921e-09
3.2654367951832e-09
3.2644954368437e-09
3.26350559919704e-09
3.26246668174284e-09
3.26137806567883e-09
3.26023911372714e-09
3.25904916990675e-09
3.25780755930958e-09
3.25651358797215e-09
3.25516654264776e-09
3.25376569054638e-09
3.25231027914361e-09
3.2507995359779e-09
3.24923266840993e-09
3.24760886342525e-09
3.2459272873972e-09
3.24418708584848e-09
3.24238738322961e-09
3.24052728269112e-09
3.23860586584106e-09
3.23662219250221e-09
3.23457530047892e-09
3.23246420530422e-09
3.23028789999187e-09
3.22804535479314e-09
3.22573551692673e-09
3.22335731034797e-09
3.22090963546221e-09
3.21839136892058e-09
3.21580136327812e-09
3.21313844679714e-09
3.21040142312284e-09
3.207589071021e-09
3.20470014407067e-09
3.20173337040041e-09
3.1986874523844e-09
3.19556106634416e-09
3.19235286226036e-09
3.1890614634422e-09
3.18568546620921e-09
3.18222343955288e-09
3.17867392484718e-09
3.17503543551855e-09
3.17130645661565e-09
3.16748544447984e-09
3.16357082637157e-09
3.15956100007786e-09
3.15545433351247e-09
3.15124916429309e-09
3.1469437993211e-09
3.14253651433617e-09
3.13802555340252e-09
3.13340912851004e-09
3.1286854191243e-09
3.12385257151191e-09
3.11890869772904e-09
3.11385187467691e-09
3.10868014594244e-09
3.10339152615983e-09
3.09798399550509e-09
3.09245546434092e-09
3.08680374862322e-09
3.08102671206113e-09
3.07512261300525e-09
3.06908996705037e-09
3.06451968141326e-09
3.06005759545248e-09
3.05548117747357e-09
3.05078778868675e-09
3.04597482723634e-09
3.04103966428722e-09
3.03597962785467e-09
3.03079199644521e-09
3.0254739959963e-09
3.02002279757507e-09
3.01443551517183e-09
3.00870920346993e-09
3.00284085550137e-09
2.9968274001589e-09
2.99066569955089e-09
2.98435254639965e-09
2.97788466101907e-09
2.97125868831932e-09
2.96447119462468e-09
2.957518664194e-09
2.95039749571292e-09
2.94310399844583e-09
2.93563438819961e-09
2.92798478306792e-09
2.92015119888976e-09
2.91212954446845e-09
2.90391561646483e-09
2.89550509395644e-09
2.88689353270034e-09
2.8780763590624e-09
2.86904886341914e-09
2.85980619322293e-09
2.85034334559565e-09
2.8406551595212e-09
2.83073630731585e-09
2.82058128574384e-09
2.81018440636724e-09
2.79953978526756e-09
2.78864133204111e-09
2.7774827381282e-09
2.76605746413313e-09
2.7543587263601e-09
2.74237948229693e-09
2.73011241510417e-09
2.71754991687597e-09
2.70468407065296e-09
2.6915066311083e-09
2.67800900380761e-09
2.66418222269616e-09
2.65001692589313e-09
2.63550332963623e-09
2.62063120011983e-09
2.60538982296967e-09
2.58976797032159e-09
2.57375386522721e-09
2.55733514300091e-09
2.54049880924907e-09
2.52323119492061e-09
2.50551790795472e-09
2.48734377687161e-09
2.46869279063144e-09
2.44954806307132e-09
2.42989171241812e-09
2.40970478793643e-09
2.38896734510169e-09
2.36765827201061e-09
2.34575449928464e-09
2.32323311998302e-09
2.30094500846567e-09
2.27899742538676e-09
2.2563719529842e-09
2.23303689185145e-09
2.20896052275707e-09
2.1841082809309e-09
2.15845715758812e-09
2.13198934854762e-09
2.10483023968044e-09
2.07719852282701e-09
2.04884523877994e-09
2.01922894353458e-09
1.98818318843159e-09
1.95582238585037e-09
1.92223501343337e-09
1.88732628810846e-09
1.85081272069992e-09
1.8121351989597e-09
1.77034366249453e-09
1.7237454794216e-09
1.67240243819579e-09
1.61732703795256e-09
1.55752670500172e-09
1.49490249337439e-09
1.42896334767067e-09
1.35879121519979e-09
1.28724510554477e-09
1.21425418401101e-09
1.13526250029871e-09
1.06157194979787e-09
9.96707983111792e-10
9.42623671709791e-10
8.9071018851736e-10
8.63566550452337e-10
8.44739311843392e-10
8.53252642584407e-10
8.8935255545753e-10
9.61562000427941e-10
1.08879841730431e-09
1.28656089264621e-09
1.61521864407275e-09
2.16769397174531e-09
3.15218389233302e-09
4.43109366793224e-09
5.6082130684332e-09
6.92658160990507e-09
7.47240602196543e-09
6.92357353679009e-09
5.7457083177273e-09
4.45090147480913e-09
3.34304523761404e-09
2.57546845329207e-09
2.06833410553941e-09
1.74699611748702e-09
1.54858373155983e-09
1.43367678153332e-09
1.3612916658948e-09
1.32366381336868e-09
1.30465973374991e-09
1.29538390476831e-09
1.29444536206029e-09
1.2980249895386e-09
1.30369592242106e-09
1.31001052473368e-09
1.31580253310504e-09
1.31903066690853e-09
1.32001854315004e-09
1.31907746163682e-09
1.31602736604509e-09
1.31079171415857e-09
1.30337337798471e-09
1.29383055457229e-09
1.28226045555131e-09
1.26878786387131e-09
1.25355642769872e-09
1.23672188425042e-09
1.21844671364352e-09
1.19889590788518e-09
1.17823362480493e-09
1.15662056058357e-09
1.13421188404914e-09
1.11115564028532e-09
1.08759106120968e-09
1.0636467734796e-09
1.03942830398444e-09
1.0150368776414e-09
9.90580449771227e-10
9.66157746785234e-10
9.41858548881562e-10
9.17762431682066e-10
8.93939234272342e-10
8.70449499397133e-10
8.47345053475246e-10
8.24669611459992e-10
8.02459399896302e-10
7.80743789821455e-10
7.59545905412498e-10
7.38883352524056e-10
7.18768634893971e-10
6.99212050144866e-10
6.80199673889789e-10
6.61762589944864e-10
6.43892865601082e-10
6.26561064498248e-10
6.09774320883531e-10
5.93523629473577e-10
5.77798324643961e-10
5.62586550706766e-10
5.47875519995281e-10
5.33651905001599e-10
5.19902253698824e-10
5.0661302426225e-10
4.93770469033006e-10
4.81360230580586e-10
4.6936764719652e-10
4.57769154642214e-10
4.46536247660762e-10
4.35650773564927e-10
4.25101471812129e-10
4.14878276417987e-10
4.04972022618604e-10
3.95374166401343e-10
3.86076835810596e-10
3.77072900892442e-10
3.68356003809977e-10
3.59920716261543e-10
3.51761298028485e-10
3.4333143389215e-10
3.35023381230031e-10
3.26908485615198e-10
3.18988608412616e-10
3.11278581093265e-10
3.03794830004961e-10
2.96307540922053e-10
2.87981807715303e-10
2.79824523532968e-10
2.71892451465817e-10
2.63268119664706e-10
2.53647356716636e-10
2.44292021931188e-10
2.32015086522102e-10
2.18508369656234e-10
2.01367667145344e-10
1.76772978770598e-10
)
;

boundaryField
{
    electrode
    {
        type            zeroGradient;
    }
    ground
    {
        type            zeroGradient;
    }
    otherfaces
    {
        type            empty;
    }
}


// ************************************************************************* //
