/*--------------------------------*- C++ -*----------------------------------*\
| =========                 |                                                 |
| \\      /  F ield         | foam-extend: Open Source CFD                    |
|  \\    /   O peration     | Version:     4.0                                |
|   \\  /    A nd           | Web:         http://www.foam-extend.org         |
|    \\/     M anipulation  |                                                 |
\*---------------------------------------------------------------------------*/
FoamFile
{
    version     2.0;
    format      ascii;
    class       volScalarField;
    location    "7.1e-06";
    object      Te;
}
// * * * * * * * * * * * * * * * * * * * * * * * * * * * * * * * * * * * * * //

dimensions      [0 0 0 1 0 0 0];

internalField   nonuniform List<scalar> 
300
(
40171.0038093443
40171.2959041322
40171.4728008965
40171.5791746533
40171.7467713992
40171.9501632244
40172.1926789606
40172.4761103974
40172.7997189254
40173.1636568912
40173.567934842
40174.0125414224
40174.4974911781
40175.0227988523
40175.5884850054
40176.194576203
40176.8411045259
40177.5281077648
40178.2556294296
40179.0237187682
40179.8324308089
40180.6818263941
40181.5719722193
40182.502940879
40183.474810914
40184.4876668596
40185.5415993048
40186.6367049474
40187.7730866567
40188.950853543
40190.1701210256
40191.4310109059
40192.7336514492
40194.0781774676
40195.4647304042
40196.8934584287
40198.3645165323
40199.8780666293
40201.4342776634
40203.03332572
40204.6753941412
40206.3606736493
40208.0893624737
40209.8616664825
40211.6777993259
40213.5379825766
40215.442445882
40217.3914271253
40219.3851725858
40221.4239371139
40223.5079843101
40225.6375867074
40227.8130259698
40230.0345930919
40232.3025886106
40234.617322825
40236.9791160226
40239.3882987185
40241.8452119035
40244.3502073006
40246.9036476339
40249.5059069111
40252.1573707119
40254.8584364913
40257.6095138949
40260.4110250919
40263.2634051166
40266.1671022248
40269.1225782678
40272.1303090809
40275.1907848904
40278.3045107353
40281.4720069066
40284.6938094081
40287.9704704376
40291.3025589005
40294.6906609613
40298.1353805518
40301.6373397584
40305.197179314
40308.8155600445
40312.4931654619
40316.2307008415
40320.0288811776
40323.8884221795
40327.8100924823
40331.7948462963
40335.843786536
40339.9578098677
40344.1375630939
40348.383789615
40352.6974069754
40357.0793910067
40361.530756279
40366.0525525052
40370.6458643659
40375.3118125526
40380.0515551641
40384.8662892545
40389.7572524888
40394.7257248902
40399.7730306908
40404.9005402865
40410.1096723024
40415.4018957837
40420.7787325122
40426.2417594626
40431.7926114099
40437.4329836928
40443.1646351535
40448.9893912626
40454.909147443
40460.9258726089
40467.0416129414
40473.2584959159
40479.5787346015
40486.0046322588
40492.5385872575
40499.1830983451
40505.9407702997
40512.8143199899
40519.8065828935
40526.9205201117
40534.1592259179
40541.5259359038
40549.0240357787
40556.6570708777
40564.4287564602
40572.3429888814
40580.4038577133
40588.6156589336
40596.982909295
40605.5103619953
40614.2030238027
40623.066173812
40632.1053840067
40641.3265418574
40650.7358752014
40660.3399796871
40670.1458491168
40680.1609090587
40690.3930541666
40700.8506897474
40711.5427780812
40722.4788901911
40733.6692640954
40745.1248705293
40756.857485423
40768.8797722611
40781.2053874757
40793.8490672819
40806.8267498507
40820.155779048
40833.8550339977
40847.9448234576
40862.4480267961
40877.3902902909
40892.7988796921
40908.7029649786
40925.1353651451
40942.1334380843
40959.7385565109
40978.0031577018
40996.9895586063
41016.8339064821
41037.7339488031
41059.7031128296
41082.6365763936
41106.6092339168
41131.8438963838
41158.5811661253
41187.011071434
41217.2699184809
41249.3888315048
41283.2102454726
41319.0460297346
41357.6876342022
41398.8285141928
41442.2422275746
41489.510864236
41540.773026294
41595.7702808955
41656.9262564837
41725.851033493
41804.3448598656
41897.2220313093
42009.8650364098
42149.2451216771
42327.3238160859
42559.3197236564
42865.0928623656
43274.6389659828
43828.7177748169
44589.3891268243
45636.3079661911
47073.5992389883
49087.750325245
51942.7401067847
56145.3942193263
61703.3861911107
68778.1693352215
79779.7308258664
95527.2976494452
116938.695654826
146748.921097476
187221.114470301
239152.955745912
300380.291814265
366342.229638069
432153.365304075
494094.921629947
550236.813368003
599885.21367688
643210.661332326
680880.023510443
713558.41504565
742007.670029185
766964.755715384
789022.997307505
808657.214129105
826241.089207857
842089.924050924
856479.417358165
869635.305167947
881748.614452849
892972.29030007
903433.302458431
913236.507806719
922468.672701217
931201.691968822
939495.073089719
947397.919066937
954950.523153707
962185.661865637
969129.650346039
975803.212224035
982222.196717036
988398.242337653
994339.299820528
1000051.39664405
1005532.4071787
1010778.55905898
1015789.05599218
1020558.31218686
1025078.98677823
1029341.64082224
1033335.21051946
1037047.14114667
1040463.55525747
1043569.38763239
1046348.50993645
1048783.84848277
1050857.45749723
1052550.69300001
1053843.69484555
1054716.98468523
1055139.63300529
1055113.00970674
1054603.4374714
1053590.50024982
1052051.36409634
1049963.69090689
1047304.69508716
1044051.31596606
1040180.10943766
1035667.25550096
1030488.67046362
1024619.93489301
1018036.29266307
1010712.31809649
1002624.92577178
993747.86202767
984051.012917543
973508.536424596
962093.42216586
949775.347555103
936522.493162008
922301.245882874
907076.089184804
890809.355335953
873460.854979565
854988.046627118
835344.490883732
814490.215264247
792371.230692613
768923.68941819
744088.487749554
717789.021846084
689936.927962725
660449.31562623
629216.142052922
596102.850482123
560973.952623388
523639.961727758
483867.71650421
441369.860111658
395748.919655055
346439.679860187
292623.275435232
233226.490757323
)
;

boundaryField
{
    electrode
    {
        type            electronTemperature;
        seec            0.05;
        Tse             1000;
        Edepend         1;
        TFN             1000;
        field_emission  0;
        field_enhancement_factor 55;
        work_function   5;
        value           uniform 40171.0038093443;
    }
    ground
    {
        type            electronTemperature;
        seec            0.05;
        Tse             1000;
        Edepend         1;
        TFN             1000;
        field_emission  0;
        field_enhancement_factor 55;
        work_function   5;
        value           uniform 199541.488192542;
    }
    otherfaces
    {
        type            empty;
    }
}


// ************************************************************************* //
