/*--------------------------------*- C++ -*----------------------------------*\
| =========                 |                                                 |
| \\      /  F ield         | foam-extend: Open Source CFD                    |
|  \\    /   O peration     | Version:     4.0                                |
|   \\  /    A nd           | Web:         http://www.foam-extend.org         |
|    \\/     M anipulation  |                                                 |
\*---------------------------------------------------------------------------*/
FoamFile
{
    version     2.0;
    format      ascii;
    class       volScalarField;
    location    "7.1e-06";
    object      TeMean;
}
// * * * * * * * * * * * * * * * * * * * * * * * * * * * * * * * * * * * * * //

dimensions      [0 0 0 1 0 0 0];

internalField   nonuniform List<scalar> 
300
(
35745.3823282048
35745.6752493104
35745.8077766928
35745.8150307315
35745.8448708525
35745.8762031271
35745.9119603279
35745.9548537021
35746.0048425628
35746.0625337228
35746.1284377694
35746.2030325724
35746.2867921516
35746.3801616933
35746.4835735476
35746.5974459463
35746.7221817448
35746.8581727417
35747.0057992681
35747.1654300234
35747.3374245896
35747.5221315447
35747.7198906241
35747.9310320785
35748.1558763193
35748.3947438408
35748.6479486576
35748.9157959335
35749.1985897398
35749.4966226016
35749.810174352
35750.1395342448
35750.4849987749
35750.8468540249
35751.225380743
35751.6208507482
35752.0335341902
35752.4637075561
35752.9116458503
35753.3776185643
35753.8618914908
35754.3647369765
35754.8864266158
35755.4272287667
35755.9874117648
35756.5672437255
35757.166992186
35757.7869233208
35758.4272990959
35759.0883772432
35759.7704115109
35760.4736649654
35761.1984175418
35761.944949587
35762.7135462801
35763.5045030833
35764.3181115675
35765.1546612932
35766.0144515766
35766.8977859061
35767.80497063
35768.7363232378
35769.6921506422
35770.6727585145
35771.6784832101
35772.7096785234
35773.7666990929
35774.8499023398
35775.9596519708
35777.0963225463
35778.2602923834
35779.4519358515
35780.6716469508
35781.9198361219
35783.1969111677
35784.5032797202
35785.8393745871
35787.2056607866
35788.6026012316
35790.0306624068
35791.4903455791
35792.9821687528
35794.5066472341
35796.0643007359
35797.6556626932
35799.2813010735
35800.9418138491
35802.6378028797
35804.3698768603
35806.1386720219
35807.9448335428
35809.7890252934
35811.6719732022
35813.5944105705
35815.5570822667
35817.560776251
35819.6062980541
35821.6944809862
35823.8261820192
35826.0022904251
35828.2237421563
35830.4914799175
35832.8064775981
35835.1697756741
35837.58244728
35840.0455984001
35842.5603718696
35845.1279557992
35847.7495956051
35850.4265825362
35853.1602587873
35855.9520177857
35858.8033012845
35861.7156287962
35864.690572617
35867.729757959
35870.8348750417
35874.0077066263
35877.2501323515
35880.5640776358
35883.951548166
35887.414652475
35890.955590803
35894.5766819514
35898.2803755482
35902.0692220876
35905.9458733137
35909.9131303693
35913.9739492854
35918.1314154181
35922.3887710524
35926.7494481109
35931.2170752692
35935.7954415745
35940.4885403933
35945.3006570782
35950.236346049
35955.3004221878
35960.497997301
35965.8345164638
35971.3157873376
35976.94800368
35982.7377792976
35988.6921812276
35994.8188134411
36001.1258994552
36007.6223216387
36014.3176975989
36021.2223993248
36028.3476831867
36035.7058861434
36043.3104720163
36051.1761878356
36059.3193359894
36067.7578474081
36076.5116395722
36085.6028169848
36095.0564248172
36104.9009690618
36115.1708978024
36125.9162740646
36137.2019583092
36149.0885477297
36161.6368059555
36174.9233189626
36189.0189438686
36203.9895395761
36219.9402187372
36237.0153647988
36255.3533690675
36275.045429446
36296.1758267858
36318.864224794
36343.1419829103
36369.0650896356
36396.9116523757
36426.8406089403
36458.9999486408
36494.1216949981
36533.2727236614
36577.944647783
36631.0536448538
36697.0737844151
36782.4877316386
36897.5644587582
37057.3925179005
37283.6815070786
37608.8761915557
38081.1587476698
38772.7964526828
39794.8948416389
41322.3372125313
43636.9114045936
47277.1027548985
52788.7880131385
60555.4997397275
71843.0667643894
87282.2632114941
108046.311976559
134500.692992224
166748.584719852
204290.026461971
246045.137585526
291133.262930052
338870.502450073
388478.354146713
438791.207170325
488173.954681841
534978.908293774
578014.585862138
616699.474861854
650990.040587437
681180.970855098
707737.346158919
731149.265315562
751878.816958267
770368.288394055
786995.767817442
802066.188171388
815829.307383167
828483.697151406
840192.492649885
851101.924858822
861332.513112193
870982.601167381
880132.629701504
888848.9499604
897186.02475905
905188.352170302
912892.10706268
920326.400662737
927514.312843453
934473.731602826
941217.977525359
947756.417032011
954094.999689557
960236.610071365
966181.440221155
971927.258384347
977469.923473079
982803.021727155
987917.931995529
992804.904493124
997453.1653385
1001850.80470341
1005984.86083185
1009841.19594681
1013404.81634425
1016660.09334166
1019590.52234154
1022179.42648164
1024409.81353108
1026264.00077129
1027723.93262539
1028770.95030737
1029386.11756003
1029545.26612069
1029238.86513725
1028446.85707496
1027147.0131905
1025319.37544654
1022943.85195715
1020000.30493455
1016468.3845209
1012327.49090962
1007557.07331837
1002135.93230936
996042.333219383
989254.805761603
981751.351553608
973509.358848667
964504.882483181
954713.699378802
944111.256668997
932671.105094693
920365.425834031
907164.924479454
893038.669687401
877953.914499597
861875.822439238
844767.333949107
826588.957858381
807302.117439014
786863.122877328
765217.965338298
742312.066390101
718084.103038161
692458.973333711
665361.146441693
636704.669528438
606381.492708318
574269.211735487
540231.635247273
504086.076187821
465611.412773459
424529.196903073
380447.672216657
332827.020251218
280879.301824136
223565.420369683
)
;

boundaryField
{
    electrode
    {
        type            calculated;
        value           uniform 35745.3823282064;
    }
    ground
    {
        type            calculated;
        value           uniform 191063.446245157;
    }
    otherfaces
    {
        type            empty;
    }
}


// ************************************************************************* //
