/*--------------------------------*- C++ -*----------------------------------*\
| =========                 |                                                 |
| \\      /  F ield         | foam-extend: Open Source CFD                    |
|  \\    /   O peration     | Version:     4.0                                |
|   \\  /    A nd           | Web:         http://www.foam-extend.org         |
|    \\/     M anipulation  |                                                 |
\*---------------------------------------------------------------------------*/
FoamFile
{
    version     2.0;
    format      ascii;
    class       volScalarField;
    location    "5.8e-06";
    object      Arm;
}
// * * * * * * * * * * * * * * * * * * * * * * * * * * * * * * * * * * * * * //

dimensions      [0 0 0 1 0 0 0];

internalField   nonuniform List<scalar> 
300
(
3.57412939165066e+15
3.57600542984758e+15
3.57795373800648e+15
3.57925980986503e+15
3.58007606274293e+15
3.58045461405479e+15
3.58043966787935e+15
3.58006266612782e+15
3.57934926824958e+15
3.57832145704387e+15
3.57699500868591e+15
3.57538400910898e+15
3.57350051176861e+15
3.57135511940097e+15
3.5689572891461e+15
3.56631556463729e+15
3.56343477216765e+15
3.56032349682634e+15
3.55699007942105e+15
3.55344100005509e+15
3.54968246018566e+15
3.54572038148817e+15
3.54156045398043e+15
3.53720811857008e+15
3.5326527178243e+15
3.52791197213995e+15
3.52298958985813e+15
3.51788759165707e+15
3.5126195619936e+15
3.50719037807707e+15
3.50158629854919e+15
3.49581869044496e+15
3.48990565262361e+15
3.48385257316095e+15
3.47766453831461e+15
3.47134634787471e+15
3.46489818010168e+15
3.45832654889243e+15
3.45163852161713e+15
3.44483763509142e+15
3.4379273936815e+15
3.43091307233848e+15
3.4237985524457e+15
3.41658752556978e+15
3.40928349188008e+15
3.40188971425054e+15
3.39440713843199e+15
3.38683720884975e+15
3.37917216822725e+15
3.37141059961262e+15
3.36353991395478e+15
3.35557259964825e+15
3.34750327930984e+15
3.3393496592939e+15
3.33111987988655e+15
3.32283030372925e+15
3.31448423668143e+15
3.30608459489837e+15
3.29763394973059e+15
3.28913272148278e+15
3.28058522322792e+15
3.2719935648455e+15
3.26335439786404e+15
3.25464977309289e+15
3.24588366867576e+15
3.23708165355173e+15
3.22824582980217e+15
3.21937803716774e+15
3.21047986148703e+15
3.20155266156454e+15
3.19259559034906e+15
3.18360150098975e+15
3.17456885781433e+15
3.16550509592766e+15
3.15639668551843e+15
3.14724468201959e+15
3.13805542334491e+15
3.12882479159394e+15
3.11957274036352e+15
3.11026874965995e+15
3.10094737234899e+15
3.09161074414641e+15
3.08225578460192e+15
3.07288474650318e+15
3.06348282396948e+15
3.05405775245896e+15
3.04462123227496e+15
3.03517358345226e+15
3.0257029063677e+15
3.01621694389348e+15
3.00670967258774e+15
2.9971360849858e+15
2.98755140158694e+15
2.97795727844479e+15
2.96835374504981e+15
2.95874082745345e+15
2.94911830735864e+15
2.93948574868248e+15
2.92983222250106e+15
2.92015766621717e+15
2.91046833919234e+15
2.90076551185427e+15
2.8910174503462e+15
2.88125334865649e+15
2.87146400016333e+15
2.86164006785995e+15
2.85179655546248e+15
2.84191387110987e+15
2.8320024276235e+15
2.82206767590982e+15
2.81210774814641e+15
2.80212035617054e+15
2.79209776305984e+15
2.78203775475443e+15
2.77193810556169e+15
2.76178116796943e+15
2.75154807011538e+15
2.74126358966965e+15
2.73092860489948e+15
2.72053503300649e+15
2.71005650437829e+15
2.6995059547039e+15
2.68885442205879e+15
2.67811228813527e+15
2.66729097908646e+15
2.65638829012893e+15
2.64537613323959e+15
2.63427191928238e+15
2.62306483269189e+15
2.61175282506823e+15
2.60032026148802e+15
2.58876326774601e+15
2.5770768393801e+15
2.56523489291804e+15
2.55320098606134e+15
2.54099395082773e+15
2.52861770592093e+15
2.51604721978253e+15
2.50326364130671e+15
2.49027607406651e+15
2.47706853923673e+15
2.46362437679914e+15
2.44991144679094e+15
2.43589765301738e+15
2.42155839488237e+15
2.40691344628019e+15
2.39194795088295e+15
2.37664554060551e+15
2.3609756767645e+15
2.34488949575496e+15
2.32839939449812e+15
2.3114806246916e+15
2.2940709513148e+15
2.27616916062975e+15
2.25775699145656e+15
2.2387847271478e+15
2.21920912924133e+15
2.19902962576521e+15
2.1782270687516e+15
2.15675650972288e+15
2.13458234608797e+15
2.11168947215511e+15
2.08803965995596e+15
2.06364542763421e+15
2.0384937751588e+15
2.0125301720771e+15
1.98577542246386e+15
1.95827408213675e+15
1.93005512837803e+15
1.90116053496941e+15
1.87165888330218e+15
1.84158353162163e+15
1.81102686955852e+15
1.78016038973178e+15
1.74917802462269e+15
1.71824963344601e+15
1.68755440532687e+15
1.6572913466895e+15
1.62769921899946e+15
1.59893361944072e+15
1.57114882331391e+15
1.54449185728854e+15
1.51904411276488e+15
1.49492033529108e+15
1.47212040240472e+15
1.45055415492212e+15
1.43026134394138e+15
1.41119143062339e+15
1.39325839383939e+15
1.37638130994134e+15
1.3604650792372e+15
1.34555746365152e+15
1.33213605187225e+15
1.32522890210371e+15
1.35096247283466e+15
1.41626001123763e+15
1.49420263126494e+15
1.5543860507942e+15
1.59814452325858e+15
1.62989822119872e+15
1.65025152526827e+15
1.65079855564086e+15
1.63015843914218e+15
1.5962508357309e+15
1.5585280275807e+15
1.52482255256053e+15
1.49788088178964e+15
1.47826880302609e+15
1.46466799090194e+15
1.45543925764663e+15
1.44900719878905e+15
1.44396236125597e+15
1.44034434623176e+15
1.43723960183824e+15
1.43405794344236e+15
1.43106639661666e+15
1.42802141986434e+15
1.42478570402093e+15
1.42124313262405e+15
1.41732818183701e+15
1.41301107579298e+15
1.40812740885096e+15
1.40259169029114e+15
1.39648304646195e+15
1.38989196167101e+15
1.38298112924241e+15
1.37579535108228e+15
1.36835915760944e+15
1.36071278080353e+15
1.35290213427521e+15
1.34495000817485e+15
1.33689416821171e+15
1.3287761232756e+15
1.3206193118789e+15
1.31244915980136e+15
1.30430609890788e+15
1.29619593144514e+15
1.288157150704e+15
1.28019588366724e+15
1.2723378840219e+15
1.26459684820021e+15
1.25697624639859e+15
1.24950005901841e+15
1.24216195139048e+15
1.23497461039658e+15
1.22795867486765e+15
1.22110426062797e+15
1.21442177933494e+15
1.20791546231106e+15
1.20157824813828e+15
1.19541751413106e+15
1.1894291020892e+15
1.18360969975799e+15
1.17796367193453e+15
1.1724833439662e+15
1.16716688071595e+15
1.16201269661668e+15
1.15700531680089e+15
1.15215311819373e+15
1.14744817859073e+15
1.14289581277636e+15
1.13848294008058e+15
1.1342118396714e+15
1.13007370059627e+15
1.12606567989105e+15
1.12218343830303e+15
1.1184187568618e+15
1.11476790630328e+15
1.11121969530036e+15
1.10777940560734e+15
1.10443853369944e+15
1.10120180021836e+15
1.09805590106967e+15
1.09500638480107e+15
1.09204098868164e+15
1.08915805829768e+15
1.08635565195118e+15
1.08363354700639e+15
1.08099347957714e+15
1.07842883576516e+15
1.0759381873211e+15
1.07348095230734e+15
1.07091616998505e+15
1.06834187237562e+15
1.06582920223151e+15
1.06336809183154e+15
1.0609669366687e+15
1.05862761282737e+15
1.05633998416703e+15
1.05375905478503e+15
1.05111651284875e+15
1.04853850462085e+15
1.04602927427645e+15
1.04307392197334e+15
1.0400868941739e+15
1.03696473181733e+15
1.03338493164756e+15
1.02940655219126e+15
1.02483244701203e+15
1.01927784678264e+15
)
;

boundaryField
{
    electrode
    {
        type            zeroGradient;
    }
    ground
    {
        type            zeroGradient;
    }
    otherfaces
    {
        type            empty;
    }
}


// ************************************************************************* //
