/*--------------------------------*- C++ -*----------------------------------*\
| =========                 |                                                 |
| \\      /  F ield         | foam-extend: Open Source CFD                    |
|  \\    /   O peration     | Version:     4.0                                |
|   \\  /    A nd           | Web:         http://www.foam-extend.org         |
|    \\/     M anipulation  |                                                 |
\*---------------------------------------------------------------------------*/
FoamFile
{
    version     2.0;
    format      ascii;
    class       volVectorField;
    location    "5.8e-06";
    object      E;
}
// * * * * * * * * * * * * * * * * * * * * * * * * * * * * * * * * * * * * * //

dimensions      [0 0 0 1 0 0 0];

internalField   nonuniform List<vector> 
300
(
(5.41269948861612 -0 -0)
(10.713393976125 -0 -0)
(18.9307636275227 -0 -0)
(26.5163704576968 -0 -0)
(34.0542578261542 -0 -0)
(41.6585716755962 -0 -0)
(49.2551944314417 -0 -0)
(56.86569651414 -0 -0)
(64.4906901173255 -0 -0)
(72.1304144829522 -0 -0)
(79.786957615789 -0 -0)
(87.4617858512292 -0 -0)
(95.1564589915531 -0 -0)
(102.872579009481 -0 -0)
(110.611752007773 -0 -0)
(118.375608199052 -0 -0)
(126.165799928244 -0 -0)
(133.984002821665 -0 -0)
(141.831917606362 -0 -0)
(149.711271404948 -0 -0)
(157.623819201093 -0 -0)
(165.57134527584 -0 -0)
(173.555664614852 -0 -0)
(181.578624323943 -0 -0)
(189.642105140333 -0 -0)
(197.748022760787 -0 -0)
(205.898329302958 -0 -0)
(214.095014795803 -0 -0)
(222.340108524394 -0 -0)
(230.635680507909 -0 -0)
(238.983842940102 -0 -0)
(247.386751600581 -0 -0)
(255.846607299962 -0 -0)
(264.365657361181 -0 -0)
(272.946197060698 -0 -0)
(281.590571044073 -0 -0)
(290.301174894787 -0 -0)
(299.080456475581 -0 -0)
(307.930917552189 -0 -0)
(316.855115233026 -0 -0)
(325.855663502118 -0 -0)
(334.935234726254 -0 -0)
(344.096561273633 -0 -0)
(353.342437038537 -0 -0)
(362.675719065043 -0 -0)
(372.099329153148 -0 -0)
(381.616255529161 -0 -0)
(391.229554490318 -0 -0)
(400.942352168961 -0 -0)
(410.757846332128 -0 -0)
(420.679308355031 -0 -0)
(430.710084997662 -0 -0)
(440.853599567493 -0 -0)
(451.113352756317 -0 -0)
(461.492924391838 -0 -0)
(471.995981973691 -0 -0)
(482.626299241942 -0 -0)
(493.387762429181 -0 -0)
(504.284295929536 -0 -0)
(515.31967623924 -0 -0)
(526.497523774312 -0 -0)
(537.822236400145 -0 -0)
(549.30069597065 -0 -0)
(560.941242717993 -0 -0)
(572.750459172539 -0 -0)
(584.733170416797 -0 -0)
(596.894044999143 -0 -0)
(609.237881785007 -0 -0)
(621.769613146141 -0 -0)
(634.494317382276 -0 -0)
(647.417225071872 -0 -0)
(660.543724159763 -0 -0)
(673.879364880624 -0 -0)
(687.429865027373 -0 -0)
(701.20111550505 -0 -0)
(715.199186299209 -0 -0)
(729.430332822721 -0 -0)
(743.901002764405 -0 -0)
(758.617843389727 -0 -0)
(773.587709361319 -0 -0)
(788.817671107476 -0 -0)
(804.315023833572 -0 -0)
(820.087297054133 -0 -0)
(836.142264917875 -0 -0)
(852.487957200914 -0 -0)
(869.132671091164 -0 -0)
(886.084983711775 -0 -0)
(903.353765699476 -0 -0)
(920.94819551645 -0 -0)
(938.877774937877 -0 -0)
(957.152345503018 -0 -0)
(975.782106199341 -0 -0)
(994.777632330842 -0 -0)
(1014.14989571595 -0 -0)
(1033.91028636026 -0 -0)
(1054.07063559642 -0 -0)
(1074.6432409074 -0 -0)
(1095.64089248703 -0 -0)
(1117.07690174251 -0 -0)
(1138.96513185008 -0 -0)
(1161.32003046947 -0 -0)
(1184.15666491164 -0 -0)
(1207.49075989701 -0 -0)
(1231.33873802642 -0 -0)
(1255.71776339607 -0 -0)
(1280.64578839444 -0 -0)
(1306.14160411939 -0 -0)
(1332.22489461805 -0 -0)
(1358.916295391 -0 -0)
(1386.23745638666 -0 -0)
(1414.21111006387 -0 -0)
(1442.8611448335 -0 -0)
(1472.21268444017 -0 -0)
(1502.29217386903 -0 -0)
(1533.12747236277 -0 -0)
(1564.74795413277 -0 -0)
(1597.18461775499 -0 -0)
(1630.47020483323 -0 -0)
(1664.63932910859 -0 -0)
(1699.72861683038 -0 -0)
(1735.77685984186 -0 -0)
(1772.82518240943 -0 -0)
(1810.91722352713 -0 -0)
(1850.09933620661 -0 -0)
(1890.42080565267 -0 -0)
(1931.93408851871 -0 -0)
(1974.69507554493 -0 -0)
(2018.7633803122 -0 -0)
(2064.2026571998 -0 -0)
(2111.08095202496 -0 -0)
(2159.47108928816 -0 -0)
(2209.45110069334 -0 -0)
(2261.10469995377 -0 -0)
(2314.52180956363 -0 -0)
(2369.7991478294 -0 -0)
(2427.04088130337 -0 -0)
(2486.3593527375 -0 -0)
(2547.87589884121 -0 -0)
(2611.72176889453 -0 -0)
(2678.03913374333 -0 -0)
(2746.98223902299 -0 -0)
(2818.71880403631 -0 -0)
(2893.43136234213 -0 -0)
(2971.31868476802 -0 -0)
(3052.59858955798 -0 -0)
(3137.51005832578 -0 -0)
(3226.31157606173 -0 -0)
(3319.28942536478 -0 -0)
(3416.77486844847 -0 -0)
(3519.13354532973 -0 -0)
(3626.75664167296 -0 -0)
(3740.07533026692 -0 -0)
(3859.56937769585 -0 -0)
(3985.77494426412 -0 -0)
(4119.28899568179 -0 -0)
(4260.78596286366 -0 -0)
(4411.01589888397 -0 -0)
(4570.83627849237 -0 -0)
(4741.20452843056 -0 -0)
(4923.21852907289 -0 -0)
(5118.12682194753 -0 -0)
(5327.34183565002 -0 -0)
(5552.58064336762 -0 -0)
(5795.70666624662 -0 -0)
(6060.84092454257 -0 -0)
(6354.19891457987 -0 -0)
(6679.43347227172 -0 -0)
(7038.86877003263 -0 -0)
(7436.62971173307 -0 -0)
(7879.1216491804 -0 -0)
(8375.01944640836 -0 -0)
(8933.89762743858 -0 -0)
(9566.59471283373 -0 -0)
(10282.4135498291 -0 -0)
(11084.8590341477 -0 -0)
(11986.2435383189 -0 -0)
(13007.5174411603 -0 -0)
(14152.7413639126 -0 -0)
(15427.1743000408 -0 -0)
(16852.9703339332 -0 -0)
(18432.8997505998 -0 -0)
(20166.4000142825 -0 -0)
(22071.5214516945 -0 -0)
(24140.0914922831 -0 -0)
(26360.4878745998 -0 -0)
(28741.0137411252 -0 -0)
(31263.0131171541 -0 -0)
(33902.3686657278 -0 -0)
(36655.9728870326 -0 -0)
(39503.3586327939 -0 -0)
(42414.9281497679 -0 -0)
(45374.6860226326 -0 -0)
(48376.1484057801 -0 -0)
(51396.9083582577 -0 -0)
(54412.7592623969 -0 -0)
(57417.8968388486 -0 -0)
(60412.092502371 -0 -0)
(63399.7847991766 -0 -0)
(66379.9938049549 -0 -0)
(69345.4541876471 -0 -0)
(72310.3904503244 -0 -0)
(75296.0434968218 -0 -0)
(78304.8827351121 -0 -0)
(81332.6171846519 -0 -0)
(84364.9519872926 -0 -0)
(87386.8642361196 -0 -0)
(90386.8958228751 -0 -0)
(93358.6844488475 -0 -0)
(96300.964790825 -0 -0)
(99214.4665782841 -0 -0)
(102101.036393833 -0 -0)
(104963.071538571 -0 -0)
(107802.460350933 -0 -0)
(110614.476606531 -0 -0)
(113395.546254419 -0 -0)
(116148.315581398 -0 -0)
(118875.281283518 -0 -0)
(121578.754653375 -0 -0)
(124260.894314603 -0 -0)
(126923.68620209 -0 -0)
(129568.988400069 -0 -0)
(132198.509525978 -0 -0)
(134813.853763619 -0 -0)
(137416.497307168 -0 -0)
(140007.439949236 -0 -0)
(142583.236753467 -0 -0)
(145140.964719272 -0 -0)
(147681.787804069 -0 -0)
(150206.801911744 -0 -0)
(152716.990905258 -0 -0)
(155213.293423051 -0 -0)
(157696.554146084 -0 -0)
(160167.593360122 -0 -0)
(162627.150153102 -0 -0)
(165075.948245286 -0 -0)
(167514.635494138 -0 -0)
(169943.850040234 -0 -0)
(172364.163395977 -0 -0)
(174776.142217435 -0 -0)
(177180.296059625 -0 -0)
(179577.13561988 -0 -0)
(181966.809335783 -0 -0)
(184346.694618659 -0 -0)
(186714.509390044 -0 -0)
(189070.700950016 -0 -0)
(191415.670851397 -0 -0)
(193749.822795078 -0 -0)
(196073.523804519 -0 -0)
(198387.140394682 -0 -0)
(200691.014032907 -0 -0)
(202985.481455578 -0 -0)
(205270.857050553 -0 -0)
(207547.457267593 -0 -0)
(209815.561020085 -0 -0)
(212075.466848268 -0 -0)
(214327.429667717 -0 -0)
(216571.72277773 -0 -0)
(218808.592746727 -0 -0)
(221038.296336305 -0 -0)
(223261.060966825 -0 -0)
(225477.139825794 -0 -0)
(227686.755103926 -0 -0)
(229890.143678453 -0 -0)
(232087.52376674 -0 -0)
(234279.13041111 -0 -0)
(236464.965389541 -0 -0)
(238643.277017465 -0 -0)
(240812.516624603 -0 -0)
(242972.921282991 -0 -0)
(245124.68870926 -0 -0)
(247268.034733963 -0 -0)
(249403.1415594 -0 -0)
(251530.218038187 -0 -0)
(253649.436617188 -0 -0)
(255760.991821773 -0 -0)
(257865.04181965 -0 -0)
(259961.772793194 -0 -0)
(262051.337636811 -0 -0)
(264133.917405808 -0 -0)
(266209.65502793 -0 -0)
(268278.718890983 -0 -0)
(270341.238162453 -0 -0)
(272397.36936697 -0 -0)
(274447.233698871 -0 -0)
(276490.979202541 -0 -0)
(278528.722514377 -0 -0)
(280560.610750756 -0 -0)
(282586.760307453 -0 -0)
(284607.31770483 -0 -0)
(286622.396887931 -0 -0)
(288632.139054516 -0 -0)
(290636.646570444 -0 -0)
(292636.050478561 -0 -0)
(294630.448038654 -0 -0)
(296619.957744697 -0 -0)
(298604.661985346 -0 -0)
(300584.666779071 -0 -0)
(302560.03496606 -0 -0)
(304530.852831947 -0 -0)
(306496.190618931 -0 -0)
)
;

boundaryField
{
    electrode
    {
        type            calculated;
        value           uniform (4.47262012812644 -0 -0);
    }
    ground
    {
        type            calculated;
        value           uniform (307476.87102562 -0 -0);
    }
    otherfaces
    {
        type            empty;
    }
}


// ************************************************************************* //
