/*--------------------------------*- C++ -*----------------------------------*\
| =========                 |                                                 |
| \\      /  F ield         | foam-extend: Open Source CFD                    |
|  \\    /   O peration     | Version:     4.0                                |
|   \\  /    A nd           | Web:         http://www.foam-extend.org         |
|    \\/     M anipulation  |                                                 |
\*---------------------------------------------------------------------------*/
FoamFile
{
    version     2.0;
    format      ascii;
    class       volScalarField;
    location    "5.8e-06";
    object      electron;
}
// * * * * * * * * * * * * * * * * * * * * * * * * * * * * * * * * * * * * * //

dimensions      [0 0 0 1 0 0 0];

internalField   nonuniform List<scalar> 
300
(
6.26406434265133e+16
6.26390959998313e+16
6.26349996247737e+16
6.26279712010629e+16
6.26180695141539e+16
6.26052714786237e+16
6.25895720916592e+16
6.25709709848763e+16
6.25494654409681e+16
6.25250532145182e+16
6.24977319028131e+16
6.24674988989599e+16
6.24343514482157e+16
6.23982866259661e+16
6.23593013365822e+16
6.2317392311273e+16
6.22725561043996e+16
6.22247890901885e+16
6.21740874591961e+16
6.21204472146147e+16
6.20638641684562e+16
6.20043339376052e+16
6.19418519397683e+16
6.18764133893314e+16
6.18080132931286e+16
6.1736646446148e+16
6.16623074271989e+16
6.15849905945329e+16
6.15046900814525e+16
6.14213997919286e+16
6.13351133962285e+16
6.12458243265866e+16
6.11535257729342e+16
6.10582106786999e+16
6.09598717367019e+16
6.08585013851638e+16
6.07540918038568e+16
6.06466349104029e+16
6.05361223567539e+16
6.04225455258573e+16
6.03058955285453e+16
6.01861632006651e+16
6.00633391004626e+16
5.99374135062436e+16
5.9808376414341e+16
5.96762175374041e+16
5.954092630303e+16
5.94024918527652e+16
5.92609030414887e+16
5.91161484371889e+16
5.89682163211402e+16
5.88170946885234e+16
5.86627712496404e+16
5.85052334318454e+16
5.83444683820352e+16
5.81804629686318e+16
5.80132037812273e+16
5.78426771294517e+16
5.76688690540907e+16
5.74917653712465e+16
5.73113517270949e+16
5.71276135092795e+16
5.69405353949891e+16
5.67501008220575e+16
5.6556292076106e+16
5.63590908583986e+16
5.6158478630952e+16
5.59544366974271e+16
5.57469462290566e+16
5.55359882754279e+16
5.53215437713779e+16
5.51035935434173e+16
5.48821183166082e+16
5.46570987221465e+16
5.4428515305697e+16
5.41963485364851e+16
5.39605788171313e+16
5.37211864942054e+16
5.347815186947e+16
5.32314552117904e+16
5.2981076769679e+16
5.27269967844352e+16
5.24691955038514e+16
5.22076531964492e+16
5.19423501661942e+16
5.16732667676554e+16
5.1400383421571e+16
5.11236806307649e+16
5.08431389963708e+16
5.05587392343208e+16
5.02704621920392e+16
4.99782888652957e+16
4.96822004151608e+16
4.93821781850126e+16
4.90782037175338e+16
4.87702587716404e+16
4.84583253392843e+16
4.81423856620686e+16
4.78224222476089e+16
4.74984178855745e+16
4.71703556633446e+16
4.68382189812145e+16
4.65019915670695e+16
4.61616574904638e+16
4.58172011760275e+16
4.54686074161202e+16
4.51158613826578e+16
4.47589486380301e+16
4.4397855145022e+16
4.40325672756553e+16
4.36630718188633e+16
4.32893559869007e+16
4.29114074204031e+16
4.2529214191991e+16
4.21427648083145e+16
4.17520482104406e+16
4.1357053772469e+16
4.095777129826e+16
4.05541910161546e+16
4.01463035715636e+16
3.97341000172886e+16
3.93175718014355e+16
3.88967107527749e+16
3.84715090633868e+16
3.80419592684282e+16
3.7608054222843e+16
3.71697870748188e+16
3.67271512357905e+16
3.62801403467706e+16
3.58287482407625e+16
3.53729689010085e+16
3.49127964147883e+16
3.44482249224635e+16
3.39792485614776e+16
3.35058614048915e+16
3.30280573940966e+16
3.25458302654365e+16
3.20591734700957e+16
3.15680800863532e+16
3.10725427249231e+16
3.05725534276752e+16
3.00681035514078e+16
2.95591836434696e+16
2.90457833326727e+16
2.85278911704234e+16
2.80054943934937e+16
2.74785789143714e+16
2.69471291894471e+16
2.64111268269068e+16
2.58705493473435e+16
2.53253708177843e+16
2.47755626320962e+16
2.42210934909698e+16
2.36619291104793e+16
2.30980320713029e+16
2.25293614000837e+16
2.19558725199359e+16
2.13775168502202e+16
2.07942416456521e+16
2.02059899844216e+16
1.96126997856808e+16
1.90143044163131e+16
1.84107246112288e+16
1.78018627101167e+16
1.71875260634683e+16
1.65672947715776e+16
1.59406167027777e+16
1.53070278976201e+16
1.4666182077878e+16
1.40177622139307e+16
1.33614078860618e+16
1.26967308186364e+16
1.20234033391691e+16
1.13413238883002e+16
1.06509535141109e+16
9.95334818871406e+15
9.24981167738532e+15
8.54229876371968e+15
7.83389632623926e+15
7.12842558362363e+15
6.43049248756242e+15
5.7457559704459e+15
5.08042981648209e+15
4.44110988721613e+15
3.83469682105754e+15
3.26767627273611e+15
2.74571936935177e+15
2.27344300783603e+15
1.85387100179196e+15
1.48820959338107e+15
1.17590677653179e+15
914693088698606
700834994565972
529253103278333
394336670126579
290475875197309
211970553166879
153484129844707
109455385748431
76094591904536.1
51891367315750.3
34540326467134.1
22049547665915.6
13537310341792.7
8183520673044.09
5066616674240.88
3337090338692.57
2386815747418.56
1855962911093.45
1551663785894.75
1373098455316.74
1266943598522.83
1203939895431.06
1167396624812.93
1147243550918.3
1137240588099.01
1133244704359.12
1132450264974.26
1133161573347.04
1134255098850.11
1134835769128.57
1134379667787.13
1132505935237.42
1129001512915.86
1123759071691.33
1116747882562.24
1107993927268.35
1097563490467.38
1085550784992.95
1072069458428.39
1057245974999.97
1041214471845.6
1024112696707.55
1006078805149
987248846164.06
967754807318.458
947723126256.874
927273549030.009
906518392406.339
885561424696.467
864498493854.275
843406359833.667
822354889782.502
801419193718.667
780667767492.242
760161428585.467
739953062594.592
720088017392.442
700604577456.145
681534489182.448
662903496019.655
644731876816.666
627034967027.067
609823751755.832
593105338443.276
576885019847.647
561162199808.662
545930497878.167
531186203930.29
516924983195.423
503138787455.574
489818296748.823
476953000239.577
464531558231.63
452542010684.219
440971997066.287
429809090285.132
419041037595.169
408655379704.88
398639277080.584
388974719579.616
379638127970.207
370612099931.919
361886241115.437
353451136242.21
345298222582.091
337419477113.834
329807465435.561
322455384936.817
315357139015.043
308507363378.261
301901474075.125
295534524775.702
289399859755.73
283464213110.908
277702090716.88
272123656356.329
266742710146.837
261574783676.036
256622391360.975
251854652867.768
247269789887.704
242922721485.672
238824079036.816
234997553456.691
231536993789.766
228578576314.97
226400498148.639
225479447813.812
226644304024.559
)
;

boundaryField
{
    electrode
    {
        type            driftDiffusionElectronDensity;
        seec            0.05;
        Edepend         1;
        field_emission  0;
        field_enhancement_factor 55;
        work_function   5;
        value           uniform 6.26406434265133e+16;
    }
    ground
    {
        type            driftDiffusionElectronDensity;
        seec            0.05;
        Edepend         1;
        field_emission  0;
        field_enhancement_factor 55;
        work_function   5;
        value           uniform 228861839798.662;
    }
    otherfaces
    {
        type            empty;
    }
}


// ************************************************************************* //
