/*--------------------------------*- C++ -*----------------------------------*\
| =========                 |                                                 |
| \\      /  F ield         | foam-extend: Open Source CFD                    |
|  \\    /   O peration     | Version:     4.0                                |
|   \\  /    A nd           | Web:         http://www.foam-extend.org         |
|    \\/     M anipulation  |                                                 |
\*---------------------------------------------------------------------------*/
FoamFile
{
    version     2.0;
    format      ascii;
    class       volVectorField;
    location    "5.8e-06";
    object      J_Arp1;
}
// * * * * * * * * * * * * * * * * * * * * * * * * * * * * * * * * * * * * * //

dimensions      [1 -1 -1 0 0 0 0];

internalField   nonuniform List<vector> 
300
(
(1.84550428751097e+16 -0 -0)
(6.68701306123344e+16 -0 -0)
(1.1981179416716e+17 -0 -0)
(1.66552127554694e+17 -0 -0)
(2.13997676915526e+17 -0 -0)
(2.61730808772334e+17 -0 -0)
(3.09333458873801e+17 -0 -0)
(3.56987636492452e+17 -0 -0)
(4.04664815652013e+17 -0 -0)
(4.52364220139318e+17 -0 -0)
(5.00092393406439e+17 -0 -0)
(5.47851057512562e+17 -0 -0)
(5.95643119299571e+17 -0 -0)
(6.43471508515273e+17 -0 -0)
(6.91339107390749e+17 -0 -0)
(7.39248874547331e+17 -0 -0)
(7.87203810498222e+17 -0 -0)
(8.35206963721464e+17 -0 -0)
(8.83261434859974e+17 -0 -0)
(9.31370377870852e+17 -0 -0)
(9.79537002302118e+17 -0 -0)
(1.02776457502886e+18 -0 -0)
(1.07605642163465e+18 -0 -0)
(1.12441592754969e+18 -0 -0)
(1.17284653952403e+18 -0 -0)
(1.22135176575149e+18 -0 -0)
(1.26993517647094e+18 -0 -0)
(1.31860040446504e+18 -0 -0)
(1.36735114440474e+18 -0 -0)
(1.41619115265101e+18 -0 -0)
(1.46512424648676e+18 -0 -0)
(1.51415430288907e+18 -0 -0)
(1.563285257123e+18 -0 -0)
(1.61252110116502e+18 -0 -0)
(1.66186588157399e+18 -0 -0)
(1.71132369677697e+18 -0 -0)
(1.76089869487108e+18 -0 -0)
(1.81059506970728e+18 -0 -0)
(1.86041705818643e+18 -0 -0)
(1.91036893602222e+18 -0 -0)
(1.96045501367461e+18 -0 -0)
(2.01067963159679e+18 -0 -0)
(2.06104715569335e+18 -0 -0)
(2.11156197176999e+18 -0 -0)
(2.16222848001775e+18 -0 -0)
(2.2130510888939e+18 -0 -0)
(2.26403420887092e+18 -0 -0)
(2.31518224547194e+18 -0 -0)
(2.36649959239267e+18 -0 -0)
(2.41799062429501e+18 -0 -0)
(2.4696596902776e+18 -0 -0)
(2.52151110503561e+18 -0 -0)
(2.57354913661041e+18 -0 -0)
(2.6257779906577e+18 -0 -0)
(2.67820179827106e+18 -0 -0)
(2.73082464181326e+18 -0 -0)
(2.78365064425976e+18 -0 -0)
(2.83668400211594e+18 -0 -0)
(2.88992855623626e+18 -0 -0)
(2.9433866379622e+18 -0 -0)
(2.99705877654486e+18 -0 -0)
(3.05094887077434e+18 -0 -0)
(3.10507564471165e+18 -0 -0)
(3.1594649374217e+18 -0 -0)
(3.2141294985347e+18 -0 -0)
(3.26907202956048e+18 -0 -0)
(3.32429412084443e+18 -0 -0)
(3.37979708938692e+18 -0 -0)
(3.43558206564139e+18 -0 -0)
(3.49165004524236e+18 -0 -0)
(3.54800188960472e+18 -0 -0)
(3.60463831556269e+18 -0 -0)
(3.6615598815339e+18 -0 -0)
(3.7187669736561e+18 -0 -0)
(3.7762597915575e+18 -0 -0)
(3.83403833454714e+18 -0 -0)
(3.89210238790731e+18 -0 -0)
(3.95045150974959e+18 -0 -0)
(4.00908501810437e+18 -0 -0)
(4.06800197849883e+18 -0 -0)
(4.12720119191078e+18 -0 -0)
(4.18668118346095e+18 -0 -0)
(4.24644019111805e+18 -0 -0)
(4.30647615548457e+18 -0 -0)
(4.36678670987289e+18 -0 -0)
(4.42736917113046e+18 -0 -0)
(4.4882205305855e+18 -0 -0)
(4.54933744650062e+18 -0 -0)
(4.61071623618399e+18 -0 -0)
(4.67235286952637e+18 -0 -0)
(4.73424296267086e+18 -0 -0)
(4.79638177278215e+18 -0 -0)
(4.85876419321991e+18 -0 -0)
(4.9213847494006e+18 -0 -0)
(4.98423759570065e+18 -0 -0)
(5.04731651270124e+18 -0 -0)
(5.11061490535945e+18 -0 -0)
(5.17412580181139e+18 -0 -0)
(5.23784185301153e+18 -0 -0)
(5.30175533312284e+18 -0 -0)
(5.36585814043027e+18 -0 -0)
(5.4301417992227e+18 -0 -0)
(5.49459746240746e+18 -0 -0)
(5.55921591456207e+18 -0 -0)
(5.6239875761575e+18 -0 -0)
(5.68890250803448e+18 -0 -0)
(5.75395041691914e+18 -0 -0)
(5.81912066138275e+18 -0 -0)
(5.88440225869379e+18 -0 -0)
(5.94978389206092e+18 -0 -0)
(6.01525391877385e+18 -0 -0)
(6.08080037869515e+18 -0 -0)
(6.14641100342636e+18 -0 -0)
(6.21207322607996e+18 -0 -0)
(6.27777419156377e+18 -0 -0)
(6.34350076704777e+18 -0 -0)
(6.40923955333919e+18 -0 -0)
(6.47497689614665e+18 -0 -0)
(6.5406988982082e+18 -0 -0)
(6.60639143112335e+18 -0 -0)
(6.67204014805539e+18 -0 -0)
(6.73763049609865e+18 -0 -0)
(6.80314772912543e+18 -0 -0)
(6.86857692055199e+18 -0 -0)
(6.93390297606536e+18 -0 -0)
(6.99911064647424e+18 -0 -0)
(7.0641845402032e+18 -0 -0)
(7.12910913589652e+18 -0 -0)
(7.19386879430705e+18 -0 -0)
(7.25844777043882e+18 -0 -0)
(7.32283022446158e+18 -0 -0)
(7.38700023329369e+18 -0 -0)
(7.45094180056795e+18 -0 -0)
(7.51463886424839e+18 -0 -0)
(7.57807531207632e+18 -0 -0)
(7.64123498138791e+18 -0 -0)
(7.70410166675226e+18 -0 -0)
(7.76665913128018e+18 -0 -0)
(7.82889114635599e+18 -0 -0)
(7.89078138696721e+18 -0 -0)
(7.95231342324551e+18 -0 -0)
(8.01347132072049e+18 -0 -0)
(8.07423869261499e+18 -0 -0)
(8.13459755788888e+18 -0 -0)
(8.19453370021996e+18 -0 -0)
(8.25403532200744e+18 -0 -0)
(8.31306941551663e+18 -0 -0)
(8.37162031676115e+18 -0 -0)
(8.42973566125098e+18 -0 -0)
(8.48741085167451e+18 -0 -0)
(8.54463089652169e+18 -0 -0)
(8.60137922956167e+18 -0 -0)
(8.65763634806163e+18 -0 -0)
(8.7133947638696e+18 -0 -0)
(8.76861394360998e+18 -0 -0)
(8.82332549269535e+18 -0 -0)
(8.87742692547809e+18 -0 -0)
(8.93103284138419e+18 -0 -0)
(8.98395067518519e+18 -0 -0)
(9.03636465433042e+18 -0 -0)
(9.08809526817672e+18 -0 -0)
(9.13908815603274e+18 -0 -0)
(9.18997333544726e+18 -0 -0)
(9.23843586918912e+18 -0 -0)
(9.28978355027533e+18 -0 -0)
(9.33797296641487e+18 -0 -0)
(9.38579528069643e+18 -0 -0)
(9.43353268117048e+18 -0 -0)
(9.47958459870948e+18 -0 -0)
(9.52637641225403e+18 -0 -0)
(9.57179698425445e+18 -0 -0)
(9.61649541443409e+18 -0 -0)
(9.66225497582561e+18 -0 -0)
(9.70377151547607e+18 -0 -0)
(9.74346170948438e+18 -0 -0)
(9.78888525103955e+18 -0 -0)
(9.82840524712802e+18 -0 -0)
(9.86693913279435e+18 -0 -0)
(9.90573505648748e+18 -0 -0)
(9.94448285660591e+18 -0 -0)
(9.97404107336848e+18 -0 -0)
(1.00122479099734e+19 -0 -0)
(1.00462792148418e+19 -0 -0)
(1.00700066194407e+19 -0 -0)
(1.01041610908825e+19 -0 -0)
(1.0125785859731e+19 -0 -0)
(1.01518666927144e+19 -0 -0)
(1.01731579429975e+19 -0 -0)
(1.02005256907666e+19 -0 -0)
(1.02144492834638e+19 -0 -0)
(1.02450895300363e+19 -0 -0)
(1.02612151054341e+19 -0 -0)
(1.02989573664687e+19 -0 -0)
(1.03150173280012e+19 -0 -0)
(1.03670353746019e+19 -0 -0)
(1.03952020397797e+19 -0 -0)
(1.04743788009776e+19 -0 -0)
(1.05346195555524e+19 -0 -0)
(1.06805207756132e+19 -0 -0)
(1.08327188783174e+19 -0 -0)
(1.10774401071562e+19 -0 -0)
(1.13320697756455e+19 -0 -0)
(1.16174904344169e+19 -0 -0)
(1.18436775268049e+19 -0 -0)
(1.2036677847648e+19 -0 -0)
(1.22054753976807e+19 -0 -0)
(1.23177901912678e+19 -0 -0)
(1.24037719773728e+19 -0 -0)
(1.24725106854025e+19 -0 -0)
(1.25310931452664e+19 -0 -0)
(1.25830531588711e+19 -0 -0)
(1.26316350864727e+19 -0 -0)
(1.26775351645511e+19 -0 -0)
(1.27209025197776e+19 -0 -0)
(1.27666805357809e+19 -0 -0)
(1.28090084801443e+19 -0 -0)
(1.28548569689346e+19 -0 -0)
(1.28974378546758e+19 -0 -0)
(1.29439375039136e+19 -0 -0)
(1.29869299230227e+19 -0 -0)
(1.30340572554695e+19 -0 -0)
(1.30773424688083e+19 -0 -0)
(1.31248513914618e+19 -0 -0)
(1.31681259113026e+19 -0 -0)
(1.32158096784561e+19 -0 -0)
(1.32580268555942e+19 -0 -0)
(1.33062761310745e+19 -0 -0)
(1.33476702238643e+19 -0 -0)
(1.33954251760033e+19 -0 -0)
(1.34357255432739e+19 -0 -0)
(1.34826762743108e+19 -0 -0)
(1.35216200078499e+19 -0 -0)
(1.35676056078821e+19 -0 -0)
(1.36050584883406e+19 -0 -0)
(1.36499485929018e+19 -0 -0)
(1.36857488485481e+19 -0 -0)
(1.37293657857765e+19 -0 -0)
(1.37633652897464e+19 -0 -0)
(1.38055504563702e+19 -0 -0)
(1.38376404793539e+19 -0 -0)
(1.38783073980113e+19 -0 -0)
(1.3908480161717e+19 -0 -0)
(1.39473672563442e+19 -0 -0)
(1.39759325928428e+19 -0 -0)
(1.4013167286442e+19 -0 -0)
(1.40397419323967e+19 -0 -0)
(1.40754059890877e+19 -0 -0)
(1.41000755959035e+19 -0 -0)
(1.41341902696101e+19 -0 -0)
(1.41570890976096e+19 -0 -0)
(1.41897082052533e+19 -0 -0)
(1.42109009187157e+19 -0 -0)
(1.42421472149817e+19 -0 -0)
(1.42615466927117e+19 -0 -0)
(1.42915312704859e+19 -0 -0)
(1.43091489973103e+19 -0 -0)
(1.43378550426639e+19 -0 -0)
(1.43538708382849e+19 -0 -0)
(1.4381351833662e+19 -0 -0)
(1.43957803553342e+19 -0 -0)
(1.44222374553699e+19 -0 -0)
(1.44352441009328e+19 -0 -0)
(1.44606899922784e+19 -0 -0)
(1.44724380564796e+19 -0 -0)
(1.4497057712374e+19 -0 -0)
(1.45075883961397e+19 -0 -0)
(1.45314913987078e+19 -0 -0)
(1.45410954394044e+19 -0 -0)
(1.45643271306764e+19 -0 -0)
(1.45727397681634e+19 -0 -0)
(1.45952812137638e+19 -0 -0)
(1.46025079284083e+19 -0 -0)
(1.46244747758456e+19 -0 -0)
(1.46305810233158e+19 -0 -0)
(1.46519695734467e+19 -0 -0)
(1.46569413223691e+19 -0 -0)
(1.46778140626304e+19 -0 -0)
(1.46817468628929e+19 -0 -0)
(1.47021981258406e+19 -0 -0)
(1.47051094004989e+19 -0 -0)
(1.47251139532934e+19 -0 -0)
(1.47269526781837e+19 -0 -0)
(1.47464827786451e+19 -0 -0)
(1.4747267704671e+19 -0 -0)
(1.4766328791781e+19 -0 -0)
(1.47661186395553e+19 -0 -0)
(1.47848187066683e+19 -0 -0)
(1.47837240037153e+19 -0 -0)
(1.48021708568092e+19 -0 -0)
(1.48002673759896e+19 -0 -0)
(1.48184882927054e+19 -0 -0)
(1.48157098504789e+19 -0 -0)
(1.48336555881418e+19 -0 -0)
(1.48300187679055e+19 -0 -0)
(1.48475965123474e+19 -0 -0)
(1.484296926095e+19 -0 -0)
(1.48600820081846e+19 -0 -0)
(1.48542542949395e+19 -0 -0)
(1.48705988886032e+19 -0 -0)
(1.48486345594554e+19 -0 -0)
)
;

boundaryField
{
    electrode
    {
        type            calculated;
        value           uniform (-10787749702.7537 -0 -0);
    }
    ground
    {
        type            calculated;
        value           uniform (1.48707121297855e+19 -0 -0);
    }
    otherfaces
    {
        type            empty;
    }
}


// ************************************************************************* //
