/*--------------------------------*- C++ -*----------------------------------*\
| =========                 |                                                 |
| \\      /  F ield         | foam-extend: Open Source CFD                    |
|  \\    /   O peration     | Version:     4.0                                |
|   \\  /    A nd           | Web:         http://www.foam-extend.org         |
|    \\/     M anipulation  |                                                 |
\*---------------------------------------------------------------------------*/
FoamFile
{
    version     2.0;
    format      ascii;
    class       volVectorField;
    location    "5.8e-06";
    object      J_electron;
}
// * * * * * * * * * * * * * * * * * * * * * * * * * * * * * * * * * * * * * //

dimensions      [1 -1 -1 0 0 0 0];

internalField   nonuniform List<vector> 
300
(
(-1.3072324786287e+19 0 0)
(-1.34139236455569e+19 0 0)
(-1.58424250927417e+19 0 0)
(-1.53659580910972e+19 0 0)
(-1.53672082090049e+19 0 0)
(-1.53539141632695e+19 0 0)
(-1.5292821727852e+19 0 0)
(-1.52471213784331e+19 0 0)
(-1.51990569890216e+19 0 0)
(-1.51503902166539e+19 0 0)
(-1.51020515571483e+19 0 0)
(-1.50535831041643e+19 0 0)
(-1.50050735494805e+19 0 0)
(-1.49565248350816e+19 0 0)
(-1.49079241616736e+19 0 0)
(-1.48592708716828e+19 0 0)
(-1.48105610763871e+19 0 0)
(-1.47617909945215e+19 0 0)
(-1.4712957046578e+19 0 0)
(-1.46640554969232e+19 0 0)
(-1.46150826057965e+19 0 0)
(-1.45660346327991e+19 0 0)
(-1.45169077865729e+19 0 0)
(-1.44676981546683e+19 0 0)
(-1.44184019634588e+19 0 0)
(-1.4369015288733e+19 0 0)
(-1.43195341360453e+19 0 0)
(-1.42699546057776e+19 0 0)
(-1.42202726703289e+19 0 0)
(-1.41704842979667e+19 0 0)
(-1.41205854491552e+19 0 0)
(-1.40705720421813e+19 0 0)
(-1.40204399370749e+19 0 0)
(-1.39701849996932e+19 0 0)
(-1.39198031200171e+19 0 0)
(-1.38692900477393e+19 0 0)
(-1.38186417044214e+19 0 0)
(-1.37678537762807e+19 0 0)
(-1.37169221094888e+19 0 0)
(-1.36658424708858e+19 0 0)
(-1.36146106668388e+19 0 0)
(-1.35632224348281e+19 0 0)
(-1.35116736055297e+19 0 0)
(-1.34599599661819e+19 0 0)
(-1.34080773582543e+19 0 0)
(-1.3356021598529e+19 0 0)
(-1.33037885948567e+19 0 0)
(-1.32513742210324e+19 0 0)
(-1.31987743922617e+19 0 0)
(-1.31459849982433e+19 0 0)
(-1.30930021705297e+19 0 0)
(-1.30398225312716e+19 0 0)
(-1.29864428015599e+19 0 0)
(-1.29328589336179e+19 0 0)
(-1.28790627752715e+19 0 0)
(-1.282504184685e+19 0 0)
(-1.27707952152235e+19 0 0)
(-1.27163709031221e+19 0 0)
(-1.26618648919828e+19 0 0)
(-1.2607222371292e+19 0 0)
(-1.25518259776887e+19 0 0)
(-1.24945963510593e+19 0 0)
(-1.24362310052623e+19 0 0)
(-1.23788657310389e+19 0 0)
(-1.23225010723907e+19 0 0)
(-1.22661131038501e+19 0 0)
(-1.22095003315512e+19 0 0)
(-1.21526056288211e+19 0 0)
(-1.20954114141863e+19 0 0)
(-1.20379126690187e+19 0 0)
(-1.19801077220825e+19 0 0)
(-1.1921996021646e+19 0 0)
(-1.18635772571757e+19 0 0)
(-1.18048513091465e+19 0 0)
(-1.17458181493786e+19 0 0)
(-1.1686477850988e+19 0 0)
(-1.16268305561464e+19 0 0)
(-1.15668765413778e+19 0 0)
(-1.15066161669244e+19 0 0)
(-1.14460498979463e+19 0 0)
(-1.13851782777778e+19 0 0)
(-1.13240020411246e+19 0 0)
(-1.12625219401951e+19 0 0)
(-1.12007388816317e+19 0 0)
(-1.11386538653919e+19 0 0)
(-1.10762680653154e+19 0 0)
(-1.10135826403274e+19 0 0)
(-1.0950599000064e+19 0 0)
(-1.08873185375342e+19 0 0)
(-1.08237428262149e+19 0 0)
(-1.07598734763261e+19 0 0)
(-1.06957122163148e+19 0 0)
(-1.0631260849424e+19 0 0)
(-1.05665211983394e+19 0 0)
(-1.05014951936792e+19 0 0)
(-1.04361847812837e+19 0 0)
(-1.03705919308091e+19 0 0)
(-1.03047186039125e+19 0 0)
(-1.02385667548622e+19 0 0)
(-1.01721383276087e+19 0 0)
(-1.01054351669618e+19 0 0)
(-1.00384590324611e+19 0 0)
(-9.97121161472036e+18 0 0)
(-9.9036943857101e+18 0 0)
(-9.83590869576398e+18 0 0)
(-9.76785562775323e+18 0 0)
(-9.69953603996772e+18 0 0)
(-9.63095043702155e+18 0 0)
(-9.56209901040671e+18 0 0)
(-9.49298149175958e+18 0 0)
(-9.42359717665047e+18 0 0)
(-9.35394481934015e+18 0 0)
(-9.28402254233181e+18 0 0)
(-9.21382778294816e+18 0 0)
(-9.14335726643393e+18 0 0)
(-9.07260677901097e+18 0 0)
(-9.00157121913579e+18 0 0)
(-8.93024434703355e+18 0 0)
(-8.85861880508868e+18 0 0)
(-8.78668583679033e+18 0 0)
(-8.7144352937442e+18 0 0)
(-8.64185533780879e+18 0 0)
(-8.56893235603125e+18 0 0)
(-8.49565074817653e+18 0 0)
(-8.42199266955572e+18 0 0)
(-8.3479378421062e+18 0 0)
(-8.27346327244951e+18 0 0)
(-8.19854294969169e+18 0 0)
(-8.12314752471322e+18 0 0)
(-8.04724395751244e+18 0 0)
(-7.97079506456307e+18 0 0)
(-7.89375911208839e+18 0 0)
(-7.81608944365208e+18 0 0)
(-7.73773327375532e+18 0 0)
(-7.65863212855329e+18 0 0)
(-7.57872057644797e+18 0 0)
(-7.49792440479855e+18 0 0)
(-7.41615966139187e+18 0 0)
(-7.33333921889098e+18 0 0)
(-7.24936241406594e+18 0 0)
(-7.1640833319722e+18 0 0)
(-7.07740824154407e+18 0 0)
(-6.9892737406746e+18 0 0)
(-6.89925991041178e+18 0 0)
(-6.80712870892038e+18 0 0)
(-6.71382404367752e+18 0 0)
(-6.61750000176962e+18 0 0)
(-6.51376103648867e+18 0 0)
(-6.40701831388227e+18 0 0)
(-6.30076470970653e+18 0 0)
(-6.19165690507035e+18 0 0)
(-6.07865989186663e+18 0 0)
(-5.96072799068907e+18 0 0)
(-5.83856416027155e+18 0 0)
(-5.70915724672578e+18 0 0)
(-5.5758400845324e+18 0 0)
(-5.43229052962787e+18 0 0)
(-5.28401965319927e+18 0 0)
(-5.12432789007525e+18 0 0)
(-4.95294534275144e+18 0 0)
(-4.77450243435764e+18 0 0)
(-4.54152770219095e+18 0 0)
(-4.30543246997324e+18 0 0)
(-3.68639000587639e+18 0 0)
(-2.77724339615302e+18 0 0)
(-2.49084688299406e+18 0 0)
(-2.51725379040025e+18 0 0)
(-2.30797375257969e+18 0 0)
(-1.84500533322685e+18 0 0)
(-1.18199169752079e+18 0 0)
(-6.25796543551635e+17 0 0)
(-1.80585044431077e+17 0 0)
(-1.68960706329182e+17 0 0)
(-1.05882609738108e+18 0 0)
(-1.08687402656072e+18 0 0)
(-1.81393378839101e+17 0 0)
(-1.64685744190154e+18 0 0)
(-2.87689273790326e+18 0 0)
(-2.52430173664077e+18 0 0)
(-3.75748091944475e+18 0 0)
(-4.77236323506402e+18 0 0)
(-4.06897207525088e+18 0 0)
(-4.45180400027514e+18 0 0)
(-4.04987822463255e+18 0 0)
(-1.98707954327119e+18 0 0)
(-3.9320212628675e+17 0 0)
(1.77463206762565e+18 0 0)
(4.80236445251509e+18 0 0)
(7.29755765663387e+18 0 0)
(9.35570059268771e+18 0 0)
(1.10845400567566e+19 0 0)
(1.17728158549114e+19 0 0)
(1.28247171783501e+19 0 0)
(1.08369168905082e+19 0 0)
(9.32979316058266e+18 0 0)
(8.1322601227885e+18 0 0)
(5.7644810794059e+18 0 0)
(7.30231149612696e+18 0 0)
(6.19724505827213e+17 0 0)
(-1.90010125920846e+18 0 0)
(1.22314325100367e+18 0 0)
(-1.89126454106982e+18 0 0)
(-2.26625073253693e+18 0 0)
(-2.17811569431926e+18 0 0)
(-2.16396470977338e+18 0 0)
(-2.34612476374177e+18 0 0)
(-2.60671547483166e+18 0 0)
(-2.82338481920507e+18 0 0)
(-2.9432491754646e+18 0 0)
(-2.99374380217268e+18 0 0)
(-3.0025877140394e+18 0 0)
(-2.98583365661262e+18 0 0)
(-2.95885254000484e+18 0 0)
(-2.921053562374e+18 0 0)
(-2.88396294369941e+18 0 0)
(-2.84264236274599e+18 0 0)
(-2.7978834462119e+18 0 0)
(-2.75102117641708e+18 0 0)
(-2.70419367215277e+18 0 0)
(-2.65610715282171e+18 0 0)
(-2.60910889820289e+18 0 0)
(-2.56135412266992e+18 0 0)
(-2.51319238687142e+18 0 0)
(-2.46493152867063e+18 0 0)
(-2.41670925611906e+18 0 0)
(-2.36862423404867e+18 0 0)
(-2.32076438578204e+18 0 0)
(-2.27323443013345e+18 0 0)
(-2.2261173474419e+18 0 0)
(-2.1794900918751e+18 0 0)
(-2.13342211112024e+18 0 0)
(-2.08797550217641e+18 0 0)
(-2.04320581231683e+18 0 0)
(-1.99916138310113e+18 0 0)
(-1.9558843546604e+18 0 0)
(-1.91341021203304e+18 0 0)
(-1.87176826595682e+18 0 0)
(-1.83098358808824e+18 0 0)
(-1.79106630336133e+18 0 0)
(-1.75205508482454e+18 0 0)
(-1.71379918599341e+18 0 0)
(-1.67671730210595e+18 0 0)
(-1.64041199816445e+18 0 0)
(-1.60500096965019e+18 0 0)
(-1.57048082065103e+18 0 0)
(-1.53685035636146e+18 0 0)
(-1.50409942161558e+18 0 0)
(-1.47221568366093e+18 0 0)
(-1.44118465757232e+18 0 0)
(-1.41099013674107e+18 0 0)
(-1.38161472225543e+18 0 0)
(-1.3530396600884e+18 0 0)
(-1.3252467476261e+18 0 0)
(-1.2982136327234e+18 0 0)
(-1.2719411313682e+18 0 0)
(-1.24631625159369e+18 0 0)
(-1.22145563842379e+18 0 0)
(-1.19730343667459e+18 0 0)
(-1.17373748187195e+18 0 0)
(-1.15083777676569e+18 0 0)
(-1.12855072733923e+18 0 0)
(-1.1068620203557e+18 0 0)
(-1.08575030429491e+18 0 0)
(-1.06519689902855e+18 0 0)
(-1.04518334171335e+18 0 0)
(-1.02569313077502e+18 0 0)
(-1.006706480252e+18 0 0)
(-9.88201728843761e+17 0 0)
(-9.70169535284138e+17 0 0)
(-9.52534723340177e+17 0 0)
(-9.35389585560284e+17 0 0)
(-9.18751066520213e+17 0 0)
(-9.02453342735477e+17 0 0)
(-8.86556859040128e+17 0 0)
(-8.71042811455123e+17 0 0)
(-8.55903459703152e+17 0 0)
(-8.4112688686263e+17 0 0)
(-8.26701937095175e+17 0 0)
(-8.12617717276064e+17 0 0)
(-7.98862827300378e+17 0 0)
(-7.8542760337997e+17 0 0)
(-7.72289168087438e+17 0 0)
(-7.59448364477296e+17 0 0)
(-7.46669092517975e+17 0 0)
(-7.34767240541116e+17 0 0)
(-7.22847403401604e+17 0 0)
(-7.11225118034376e+17 0 0)
(-6.99857510124401e+17 0 0)
(-6.88666314657712e+17 0 0)
(-6.77680732561972e+17 0 0)
(-6.67547830606076e+17 0 0)
(-6.57352842572914e+17 0 0)
(-6.4704100314409e+17 0 0)
(-6.37827281853671e+17 0 0)
(-6.2850772427366e+17 0 0)
(-6.19728249647816e+17 0 0)
(-6.11568708128615e+17 0 0)
(-6.04626024469823e+17 0 0)
(-5.98345483118982e+17 0 0)
(-5.87815092588924e+17 0 0)
)
;

boundaryField
{
    electrode
    {
        type            calculated;
        value           uniform (-1.56113978981709e+19 0 0);
    }
    ground
    {
        type            calculated;
        value           uniform (-5.85207463121231e+17 0 0);
    }
    otherfaces
    {
        type            empty;
    }
}


// ************************************************************************* //
