/*--------------------------------*- C++ -*----------------------------------*\
| =========                 |                                                 |
| \\      /  F ield         | foam-extend: Open Source CFD                    |
|  \\    /   O peration     | Version:     4.0                                |
|   \\  /    A nd           | Web:         http://www.foam-extend.org         |
|    \\/     M anipulation  |                                                 |
\*---------------------------------------------------------------------------*/
FoamFile
{
    version     2.0;
    format      ascii;
    class       volScalarField;
    location    "5.8e-06";
    object      N_electronMean;
}
// * * * * * * * * * * * * * * * * * * * * * * * * * * * * * * * * * * * * * //

dimensions      [0 0 0 1 0 0 0];

internalField   nonuniform List<scalar> 
300
(
6.02602719825032e+16
6.0258793302687e+16
6.02547035054719e+16
6.02475248619516e+16
6.02372925652632e+16
6.02239693792987e+16
6.02075339071324e+16
6.01879740961116e+16
6.01652787117237e+16
6.0139439486312e+16
6.01104505135199e+16
6.00783080075354e+16
6.0043010156293e+16
6.00045569498588e+16
5.99629500639194e+16
5.99181927438535e+16
5.98702897059922e+16
5.98192470527907e+16
5.97650721903435e+16
5.97077737502961e+16
5.96473615207805e+16
5.95838463810096e+16
5.9517240238146e+16
5.94475559626646e+16
5.93748073410591e+16
5.92990090386789e+16
5.92201765319322e+16
5.91383260408196e+16
5.90534744738266e+16
5.89656393537508e+16
5.88748387695109e+16
5.87810913628034e+16
5.8684416260444e+16
5.85848329658415e+16
5.84823612807943e+16
5.83770212427549e+16
5.82688330630252e+16
5.81578170700341e+16
5.80439936473642e+16
5.79273831707911e+16
5.78080059564573e+16
5.76858822080638e+16
5.75610319542516e+16
5.74334749912673e+16
5.73032308333077e+16
5.71703186641097e+16
5.70347572917609e+16
5.68965651083593e+16
5.67557600586992e+16
5.66123596177353e+16
5.64663807892701e+16
5.6317840105618e+16
5.61667535933647e+16
5.6013136710591e+16
5.58570042574418e+16
5.56983702841157e+16
5.55372480117977e+16
5.53736497704045e+16
5.52075869506314e+16
5.50390699572454e+16
5.48681081665537e+16
5.46947098866962e+16
5.45188823159588e+16
5.43406315384817e+16
5.41599625617524e+16
5.39768792814287e+16
5.3791384376915e+16
5.36034792476434e+16
5.34131639811294e+16
5.32204373202361e+16
5.30252966300607e+16
5.28277378821285e+16
5.26277556713566e+16
5.24253431983831e+16
5.22204922118509e+16
5.20131930094281e+16
5.18034344608336e+16
5.15912039787877e+16
5.13764874407919e+16
5.1159269140707e+16
5.09395317823878e+16
5.07172563992586e+16
5.0492422277104e+16
5.02650069281811e+16
5.00349860800554e+16
4.98023336892536e+16
4.95670219067337e+16
4.93290210037219e+16
4.90882993392793e+16
4.88448233585569e+16
4.85985575647522e+16
4.8349464537653e+16
4.80975049652692e+16
4.78426375532651e+16
4.75848189401838e+16
4.73240036780638e+16
4.70601442124694e+16
4.6793190863468e+16
4.65230918072016e+16
4.62497930707844e+16
4.59732385264092e+16
4.56933698605193e+16
4.54101265813586e+16
4.51234460507878e+16
4.483326344619e+16
4.45395117381923e+16
4.42421216954999e+16
4.39410218752338e+16
4.36361386341272e+16
4.33273961084544e+16
4.30147161829735e+16
4.26980184884761e+16
4.23772204132906e+16
4.20522371360094e+16
4.1722981638716e+16
4.13893647208754e+16
4.10512950712026e+16
4.07086793055392e+16
4.03614219304761e+16
4.00094253184956e+16
3.96525897518648e+16
3.92908134896914e+16
3.89239928257952e+16
3.85520221592428e+16
3.81747939948396e+16
3.77921988947252e+16
3.74041255069178e+16
3.70104606261533e+16
3.66110892116237e+16
3.6205894417894e+16
3.57947576594337e+16
3.53775586750844e+16
3.49541755815733e+16
3.45244849251641e+16
3.40883618100494e+16
3.36456800491697e+16
3.31963121961237e+16
3.27401295256347e+16
3.22770020768974e+16
3.18067987415491e+16
3.13293873169667e+16
3.08446345540055e+16
3.03524062324365e+16
2.98525672541773e+16
2.93449818079166e+16
2.8829513520391e+16
2.83060255023739e+16
2.77743803729944e+16
2.723444029885e+16
2.66860671514086e+16
2.61291227491468e+16
2.55634689669819e+16
2.49889678509143e+16
2.44054818223319e+16
2.38128737820605e+16
2.32110073425025e+16
2.25997471260137e+16
2.19789591668345e+16
2.13485109755558e+16
2.07082710320699e+16
2.00581057463526e+16
1.93978614331435e+16
1.87273383372748e+16
1.80462815944084e+16
1.73543875401493e+16
1.66513263328342e+16
1.59367702372592e+16
1.52103988303437e+16
1.44718940873334e+16
1.37209591355646e+16
1.29573899520891e+16
1.21812159019316e+16
1.13928772842596e+16
1.05934118990374e+16
9.78468821931874e+15
8.96961726981098e+15
8.15232465257594e+15
7.33838505446327e+15
6.53487856756105e+15
5.750187227416e+15
4.99372715202949e+15
4.27544611053922e+15
3.60504399478842e+15
2.99118194239522e+15
2.44069004432119e+15
1.95784744401872e+15
1.54401310176715e+15
1.19760351526465e+15
914384301594838
688095975575560
511211765517424
375707742316108
273761317321980
198271514748465
142721844285172
101996826654424
72306989293615.4
50731401591485.6
35077906166542.9
23952980351146.7
16229072625889.6
10906478033712.8
7342009865305.97
5078774508086.94
3719514660886.45
2933019359991.82
2480293317705.47
2213335220685.93
2049221262256.23
1943272863364.7
1871283477320.97
1819635856969.36
1780384177641.7
1748705030754.26
1721542323451.9
1696906913981.61
1673478936102.62
1650377250398.57
1627063658430.78
1603184494767.8
1578505701899.56
1552871920317.39
1526224966415.62
1498579450922.17
1469992967864.19
1440552423733.82
1410363992885.99
1379544322397.11
1348215207476.44
1316499408592.78
1284517572024.62
1252386758111.72
1220217959598.73
1188115333121.44
1156175712949.26
1124487681328.62
1093131223654.27
1062178330223.52
1031692264491.12
1001728142539.29
972333599359.292
943548080636.61
915403813363.675
887927157025.882
861139552015.654
835057415564.732
809691288803.741
785046985869.828
761126157510.795
737927027105.488
715446034323.619
693677472568.107
672613062875.641
652242141967.056
632552360468.094
613530821726.604
595162422713.948
577428641530.132
560311613916.638
543795124659.009
527862201260.721
512494703544.326
497674364700.622
483382689976.894
469601311485.999
456312295013.246
443496852648.699
431135868062.677
419210851047.23
407703478327.137
396595222961.189
385869609206.151
375512848444.02
365512645752.947
355857467154.165
346536497331.969
337539550386.286
328856969211.205
320479903402.673
312400335111.088
304610935253.348
297104155648.471
289871622947.485
282891985037.39
276139789326.406
269609362985.198
263307970880.059
257244515589.251
251428214063.276
245842631473.717
240464908820.423
235312129178.465
230423722715.228
225797130963.479
221461586818.262
217496030059.07
214021930710.14
211290704754.245
209704174040.805
209992158047.946
)
;

boundaryField
{
    electrode
    {
        type            calculated;
        value           uniform 6.02602719827069e+16;
    }
    ground
    {
        type            calculated;
        value           uniform 211594214180.744;
    }
    otherfaces
    {
        type            empty;
    }
}


// ************************************************************************* //
