/*--------------------------------*- C++ -*----------------------------------*\
| =========                 |                                                 |
| \\      /  F ield         | foam-extend: Open Source CFD                    |
|  \\    /   O peration     | Version:     4.0                                |
|   \\  /    A nd           | Web:         http://www.foam-extend.org         |
|    \\/     M anipulation  |                                                 |
\*---------------------------------------------------------------------------*/
FoamFile
{
    version     2.0;
    format      ascii;
    class       volScalarField;
    location    "5.8e-06";
    object      PhiMean;
}
// * * * * * * * * * * * * * * * * * * * * * * * * * * * * * * * * * * * * * //

dimensions      [0 0 0 1 0 0 0];

internalField   nonuniform List<scalar> 
300
(
699.987302910993
699.986031669202
699.984492038416
699.982706631906
699.980684831086
699.978419834101
699.975911027543
699.973157270027
699.97015743563
699.966910683069
699.9634162805
699.959673634745
699.955682259143
699.951441763616
699.946951844341
699.942212273147
699.937222888878
699.931983591635
699.926494335484
699.920755121581
699.914765993284
699.908527031074
699.902038347772
699.895300083804
699.888312401718
699.881075491687
699.873589560546
699.865854827392
699.857871522319
699.849639878011
699.841160123483
699.832432495311
699.82345722952
699.814234546515
699.804764647411
699.795047709717
699.785083882234
699.774873282541
699.764415991828
699.753712048962
699.742761447523
699.73156413299
699.720119995514
699.708428865972
699.696490511758
699.684304632903
699.671870857763
699.659188740031
699.64625775541
699.633077301728
699.619646697715
699.605965191973
699.592031952934
699.577846069055
699.563406531587
699.54871222714
699.533761925135
699.518554271998
699.503087785779
699.487360849914
699.471371708112
699.455118458504
699.438599047108
699.42181126178
699.404752747496
699.387420999739
699.369813338336
699.351926901883
699.333758641787
699.315305315487
699.296563479347
699.277529480466
699.258199461185
699.238569355491
699.21863486731
699.198391471369
699.177834418596
699.156958721503
699.135759143723
699.114230172038
699.09236603705
699.07016067462
699.047607713033
699.024700465537
699.001431915223
698.977794719787
698.953781194173
698.929383285782
698.904592560124
698.879400196214
698.853796967307
698.827773224147
698.801318915652
698.774423534218
698.747076095084
698.719265120421
698.690978618575
698.662204065992
698.632928382489
698.603137913617
698.572818409418
698.541954995012
698.510532139994
698.478533658683
698.445942657352
698.412741506245
698.378911816355
698.3444343915
698.309289209331
698.273455371758
698.23691105763
698.199633482063
698.161598847349
698.122782302471
698.083157892468
698.042698492361
698.001375769613
697.959160128049
697.916020619026
697.871924862104
697.82683896567
697.780727464671
697.733553215556
697.68527732707
697.635859038662
697.585255585156
697.533422070926
697.480311353604
697.425873877313
697.370057516741
697.31280740446
697.254065746407
697.193771611818
697.131860700768
697.068265102288
697.002913065532
696.935728668265
696.866631474914
696.795536149851
696.722352070808
696.646982860584
696.569325877535
696.489271654027
696.406703260825
696.321495622858
696.233514758773
696.142616855952
696.048647259277
695.951439302623
695.85081301284
695.746573703258
695.638510245571
695.526393118019
695.409972206346
695.288974189659
695.163099481927
695.032018886917
694.895369281594
694.752749206089
694.603712349794
694.447761982001
694.284337877607
694.112787329261
693.932350080911
693.742141346953
693.541134850589
693.328157597583
693.10185044162
692.860617050529
692.602565138567
692.325453443113
692.026675419812
691.703248488639
691.351727663618
690.968191733031
690.548290607772
690.087105396035
689.579246306145
689.019085393599
688.400541261361
687.717340519349
686.96334217614
686.132438331182
685.21877589969
684.217263531416
683.123307150094
681.9330403447
680.643623600644
679.252999746014
677.759841367265
676.163569265974
674.464175185259
672.662172169901
670.75851038945
668.754175432458
666.650004621108
664.446642274025
662.144513995322
659.743978352153
657.245392197529
654.648964985055
651.954805671965
649.163126163868
646.274363034077
643.289302454417
640.208839393571
637.0339501868
633.765590636039
630.404684807539
626.952078585685
623.408564833471
619.774848981238
616.051675031462
612.239912974109
608.340445833564
604.354072331907
600.281546834534
596.123548592349
591.880723283241
587.553649354738
583.142881023773
578.648911907091
574.0722195913
569.413227226693
564.672350210502
559.850053512126
554.946936751369
549.963545212775
544.900422507945
539.758060930189
534.536956235133
529.237554997516
523.860312714123
518.405639805871
512.873960005581
507.26565155507
501.581109163145
495.820682436566
489.984740622386
484.073608163858
478.087632299378
472.027116112854
465.892392587701
459.683857927818
453.401978218366
447.047167443729
440.619868925827
434.120473268641
427.549402983384
420.907026998256
414.193748716727
407.409916806645
400.5559170525
393.632079038117
386.638772218857
379.57630812689
372.445040972811
365.245265173366
357.977320608662
350.641485455136
343.238086033006
335.767385071282
328.229696074681
320.625266877676
312.954398862545
305.217329126446
297.414357374745
289.545737950687
281.611828085276
273.612937679536
265.549448315065
257.421656298163
249.229932175772
240.97455807542
232.655894193439
224.27420898602
215.829852932612
207.323081330486
198.754235520975
190.123558139189
181.431381928197
172.677937273114
163.863548854039
154.988435199334
146.052913565404
137.057191101008
128.001578179188
118.886270893239
109.711573199607
100.477670437589
91.1848605479807
81.8333186418354
72.4233373594324
62.9550819239164
53.4288400152975
43.8447676349791
34.2031483838163
24.5041295521561
14.7479918090439
4.93487472438247
)
;

boundaryField
{
    electrode
    {
        type            calculated;
        value           uniform 699.999999999921;
    }
    ground
    {
        type            calculated;
        value           uniform 0;
    }
    otherfaces
    {
        type            empty;
    }
}


// ************************************************************************* //
