/*--------------------------------*- C++ -*----------------------------------*\
| =========                 |                                                 |
| \\      /  F ield         | foam-extend: Open Source CFD                    |
|  \\    /   O peration     | Version:     4.0                                |
|   \\  /    A nd           | Web:         http://www.foam-extend.org         |
|    \\/     M anipulation  |                                                 |
\*---------------------------------------------------------------------------*/
FoamFile
{
    version     2.0;
    format      ascii;
    class       volScalarField;
    location    "7.3e-06";
    object      Ar;
}
// * * * * * * * * * * * * * * * * * * * * * * * * * * * * * * * * * * * * * //

dimensions      [0 0 0 1 0 0 0];

internalField   nonuniform List<scalar> 
300
(
3.21880228884259e+22
3.21880228456127e+22
3.21880228746007e+22
3.2188022886122e+22
3.21880229058178e+22
3.21880229331369e+22
3.21880229664177e+22
3.2188023006313e+22
3.21880230527002e+22
3.21880231055464e+22
3.21880231648567e+22
3.21880232306196e+22
3.21880233028302e+22
3.21880233814854e+22
3.21880234665835e+22
3.2188023558124e+22
3.21880236561108e+22
3.21880237605442e+22
3.21880238714253e+22
3.21880239887574e+22
3.21880241125447e+22
3.21880242427918e+22
3.21880243795042e+22
3.21880245226879e+22
3.21880246723654e+22
3.21880248285313e+22
3.21880249911947e+22
3.21880251603666e+22
3.2188025336047e+22
3.21880255182448e+22
3.21880257069882e+22
3.21880259022804e+22
3.21880261041184e+22
3.21880263125124e+22
3.21880265274731e+22
3.21880267490119e+22
3.21880269771453e+22
3.21880272118836e+22
3.21880274532372e+22
3.21880277012201e+22
3.2188027955847e+22
3.2188028217131e+22
3.21880284850869e+22
3.218802875973e+22
3.21880290410762e+22
3.21880293291421e+22
3.21880296239466e+22
3.21880299255087e+22
3.21880302338568e+22
3.21880305490131e+22
3.21880308710115e+22
3.2188031199861e+22
3.21880315355886e+22
3.21880318781988e+22
3.21880322277055e+22
3.21880325841148e+22
3.21880329474463e+22
3.21880333177198e+22
3.2188033694956e+22
3.21880340791776e+22
3.2188034470404e+22
3.21880348686565e+22
3.21880352739625e+22
3.21880356863638e+22
3.21880361058804e+22
3.21880365325111e+22
3.2188036966278e+22
3.21880374072038e+22
3.21880378553112e+22
3.21880383106235e+22
3.21880387731661e+22
3.21880392429708e+22
3.21880397200637e+22
3.21880402044621e+22
3.21880406962041e+22
3.21880411953133e+22
3.2188041701808e+22
3.21880422157166e+22
3.21880427370439e+22
3.21880432658445e+22
3.21880438021083e+22
3.21880443458572e+22
3.21880448971183e+22
3.21880454559133e+22
3.21880460222808e+22
3.21880465962363e+22
3.21880471777905e+22
3.21880477669671e+22
3.21880483638061e+22
3.21880489683257e+22
3.21880495805349e+22
3.21880502004807e+22
3.21880508281762e+22
3.21880514636445e+22
3.21880521069126e+22
3.2188052758009e+22
3.21880534169619e+22
3.21880540837996e+22
3.21880547585602e+22
3.21880554412704e+22
3.21880561319502e+22
3.2188056830624e+22
3.21880575373486e+22
3.21880582521197e+22
3.21880589749704e+22
3.21880597059337e+22
3.21880604450179e+22
3.2188061192265e+22
3.21880619476869e+22
3.21880627112995e+22
3.2188063483126e+22
3.21880642631891e+22
3.21880650515168e+22
3.21880658481308e+22
3.21880666530527e+22
3.21880674663186e+22
3.21880682879657e+22
3.21880691179869e+22
3.21880699563988e+22
3.21880708032263e+22
3.21880716585121e+22
3.21880725222596e+22
3.21880733945131e+22
3.21880742752778e+22
3.21880751645571e+22
3.21880760623678e+22
3.21880769687522e+22
3.21880778837069e+22
3.21880788072564e+22
3.2188079739416e+22
3.21880806802145e+22
3.21880816296688e+22
3.21880825877964e+22
3.2188083554636e+22
3.21880845302361e+22
3.21880855145903e+22
3.21880865077063e+22
3.21880875096211e+22
3.21880885203651e+22
3.21880895399406e+22
3.21880905683748e+22
3.21880916056953e+22
3.21880926519449e+22
3.2188093707166e+22
3.2188094771393e+22
3.21880958446155e+22
3.21880969268565e+22
3.218809801814e+22
3.21880991185022e+22
3.2188100227997e+22
3.21881013466132e+22
3.21881024743759e+22
3.21881036113394e+22
3.21881047575095e+22
3.21881059128604e+22
3.21881070774509e+22
3.21881082513024e+22
3.21881094343221e+22
3.21881106264183e+22
3.21881118276634e+22
3.21881130380357e+22
3.21881142571543e+22
3.21881154857866e+22
3.21881167216951e+22
3.21881179696615e+22
3.21881192168098e+22
3.21881204629947e+22
3.21881217256108e+22
3.21881229973367e+22
3.21881242774834e+22
3.21881255600217e+22
3.21881268430328e+22
3.21881281280042e+22
3.21881294086194e+22
3.21881306963275e+22
3.21881320100779e+22
3.21881332863023e+22
3.21881345404377e+22
3.21881358402735e+22
3.21881370875666e+22
3.21881382807714e+22
3.21881395178548e+22
3.21881406678464e+22
3.21881417524767e+22
3.21881428571278e+22
3.21881438493909e+22
3.21881447576837e+22
3.21881456547201e+22
3.21881464352558e+22
3.21881471132742e+22
3.21881477626872e+22
3.21881483186735e+22
3.2188148782429e+22
3.21881491579774e+22
3.21881494918018e+22
3.21881497035873e+22
3.21881498549373e+22
3.21881499518218e+22
3.21881500398208e+22
3.218815009449e+22
3.21881501231836e+22
3.21881501014626e+22
3.21881500926743e+22
3.21881500898521e+22
3.21881501444967e+22
3.2188150218515e+22
3.21881503065194e+22
3.21881503910117e+22
3.21881504662062e+22
3.21881505316388e+22
3.21881505883406e+22
3.21881506372477e+22
3.21881506788931e+22
3.21881507330752e+22
3.21881507877213e+22
3.21881508383438e+22
3.21881508836175e+22
3.21881509258531e+22
3.21881509638138e+22
3.21881509996625e+22
3.21881510319353e+22
3.2188151063039e+22
3.21881510913912e+22
3.21881511188527e+22
3.21881511436397e+22
3.21881511827313e+22
3.21881512197708e+22
3.21881512566945e+22
3.21881512906263e+22
3.21881513246642e+22
3.21881513558405e+22
3.2188151387312e+22
3.21881514159976e+22
3.2188151445122e+22
3.21881514715306e+22
3.21881514984844e+22
3.21881515227586e+22
3.21881515476707e+22
3.21881515699145e+22
3.21881515928819e+22
3.21881516131831e+22
3.21881516367152e+22
3.21881516657337e+22
3.2188151695447e+22
3.21881517226332e+22
3.2188151750577e+22
3.2188151776015e+22
3.21881518022922e+22
3.21881518260697e+22
3.21881518507678e+22
3.2188151872984e+22
3.21881518961911e+22
3.21881519169398e+22
3.21881519387418e+22
3.21881519580984e+22
3.21881519785729e+22
3.21881519966154e+22
3.21881520158389e+22
3.21881520326414e+22
3.21881520506679e+22
3.21881520662795e+22
3.21881520831562e+22
3.21881520976292e+22
3.21881521134054e+22
3.21881521267921e+22
3.21881521459394e+22
3.21881521650244e+22
3.21881521855487e+22
3.21881522036091e+22
3.21881522231613e+22
3.21881522402474e+22
3.21881522588769e+22
3.2188152275043e+22
3.21881522928094e+22
3.21881523081116e+22
3.21881523250725e+22
3.21881523395667e+22
3.21881523557608e+22
3.21881523694805e+22
3.21881523849378e+22
3.21881523979244e+22
3.21881524127202e+22
3.21881524252255e+22
3.21881524396977e+22
3.21881524517224e+22
3.21881524656015e+22
3.21881524770234e+22
3.21881524903158e+22
3.21881525011471e+22
3.21881525142699e+22
3.21881525251498e+22
3.21881525379664e+22
3.21881525482746e+22
3.21881525611531e+22
3.21881525717277e+22
3.21881525845062e+22
3.2188152595531e+22
3.21881526091857e+22
3.21881526212128e+22
3.21881526456776e+22
)
;

boundaryField
{
    electrode
    {
        type            zeroGradient;
    }
    ground
    {
        type            zeroGradient;
    }
    otherfaces
    {
        type            empty;
    }
}


// ************************************************************************* //
