/*--------------------------------*- C++ -*----------------------------------*\
| =========                 |                                                 |
| \\      /  F ield         | foam-extend: Open Source CFD                    |
|  \\    /   O peration     | Version:     4.0                                |
|   \\  /    A nd           | Web:         http://www.foam-extend.org         |
|    \\/     M anipulation  |                                                 |
\*---------------------------------------------------------------------------*/
FoamFile
{
    version     2.0;
    format      ascii;
    class       volVectorField;
    location    "7.3e-06";
    object      J_electron;
}
// * * * * * * * * * * * * * * * * * * * * * * * * * * * * * * * * * * * * * //

dimensions      [1 -1 -1 0 0 0 0];

internalField   nonuniform List<vector> 
300
(
(-1.32829288725655e+19 0 0)
(-1.36327421022498e+19 0 0)
(-1.61095090649509e+19 0 0)
(-1.56169249313598e+19 0 0)
(-1.56153121108921e+19 0 0)
(-1.56011000117181e+19 0 0)
(-1.55365333308133e+19 0 0)
(-1.5488020560563e+19 0 0)
(-1.54370888789867e+19 0 0)
(-1.5385504623399e+19 0 0)
(-1.53342650910642e+19 0 0)
(-1.52828877068741e+19 0 0)
(-1.5231464387863e+19 0 0)
(-1.51799978877587e+19 0 0)
(-1.51284746227943e+19 0 0)
(-1.50768940925384e+19 0 0)
(-1.50252523342101e+19 0 0)
(-1.49735456256714e+19 0 0)
(-1.49217704570997e+19 0 0)
(-1.48699232560487e+19 0 0)
(-1.48180004223806e+19 0 0)
(-1.4765998526009e+19 0 0)
(-1.47139140046197e+19 0 0)
(-1.46617434225892e+19 0 0)
(-1.46094833351178e+19 0 0)
(-1.45571303473788e+19 0 0)
(-1.45046810771625e+19 0 0)
(-1.44521321493409e+19 0 0)
(-1.43994803104975e+19 0 0)
(-1.43467222112633e+19 0 0)
(-1.42938546846617e+19 0 0)
(-1.42408744692563e+19 0 0)
(-1.4187778421462e+19 0 0)
(-1.41345634569616e+19 0 0)
(-1.40812264449953e+19 0 0)
(-1.40277643822025e+19 0 0)
(-1.39741742918871e+19 0 0)
(-1.39204532161192e+19 0 0)
(-1.3866598274322e+19 0 0)
(-1.38126066141777e+19 0 0)
(-1.37584754933535e+19 0 0)
(-1.37042021574242e+19 0 0)
(-1.36497839263315e+19 0 0)
(-1.35952182136899e+19 0 0)
(-1.35405024440665e+19 0 0)
(-1.34856341475345e+19 0 0)
(-1.34306108838862e+19 0 0)
(-1.33754303237781e+19 0 0)
(-1.33200901356042e+19 0 0)
(-1.32645881277155e+19 0 0)
(-1.32089221132368e+19 0 0)
(-1.3153090037283e+19 0 0)
(-1.30970898695119e+19 0 0)
(-1.3040919689737e+19 0 0)
(-1.29845775926186e+19 0 0)
(-1.29280618869364e+19 0 0)
(-1.28713707989295e+19 0 0)
(-1.28145027103919e+19 0 0)
(-1.27574560971518e+19 0 0)
(-1.27002294814363e+19 0 0)
(-1.26428214924786e+19 0 0)
(-1.25852308169663e+19 0 0)
(-1.25274562362912e+19 0 0)
(-1.24694966435512e+19 0 0)
(-1.24113509712464e+19 0 0)
(-1.23530182455554e+19 0 0)
(-1.22944976073825e+19 0 0)
(-1.22357882439548e+19 0 0)
(-1.21768894397421e+19 0 0)
(-1.21178005567426e+19 0 0)
(-1.2058521048524e+19 0 0)
(-1.19990504187442e+19 0 0)
(-1.19393883158772e+19 0 0)
(-1.18795343859986e+19 0 0)
(-1.18194883705462e+19 0 0)
(-1.17592501498804e+19 0 0)
(-1.1698819579003e+19 0 0)
(-1.16381967127355e+19 0 0)
(-1.15773814837252e+19 0 0)
(-1.15163734224378e+19 0 0)
(-1.14551727192901e+19 0 0)
(-1.13937820587021e+19 0 0)
(-1.13322047209519e+19 0 0)
(-1.12704342308102e+19 0 0)
(-1.12084441628929e+19 0 0)
(-1.11462277965074e+19 0 0)
(-1.10839226949372e+19 0 0)
(-1.10217582253986e+19 0 0)
(-1.09593285067229e+19 0 0)
(-1.08948217360784e+19 0 0)
(-1.0827412222648e+19 0 0)
(-1.07608072511926e+19 0 0)
(-1.06965861672299e+19 0 0)
(-1.06327169286217e+19 0 0)
(-1.05687261677444e+19 0 0)
(-1.05045165743061e+19 0 0)
(-1.04400576473281e+19 0 0)
(-1.03753424206587e+19 0 0)
(-1.03103698882941e+19 0 0)
(-1.02451405875199e+19 0 0)
(-1.01796551647004e+19 0 0)
(-1.01139142022623e+19 0 0)
(-1.00479180425454e+19 0 0)
(-9.98166663204753e+18 0 0)
(-9.91515963798323e+18 0 0)
(-9.84839630215709e+18 0 0)
(-9.78137549629922e+18 0 0)
(-9.71409554180093e+18 0 0)
(-9.6465543882788e+18 0 0)
(-9.578749322155e+18 0 0)
(-9.51067711380914e+18 0 0)
(-9.44233388791667e+18 0 0)
(-9.37371503394397e+18 0 0)
(-9.30481521000867e+18 0 0)
(-9.23562820455472e+18 0 0)
(-9.16614693386872e+18 0 0)
(-9.09636325481854e+18 0 0)
(-9.02626802425345e+18 0 0)
(-8.95585080119971e+18 0 0)
(-8.88509988361627e+18 0 0)
(-8.81400213332558e+18 0 0)
(-8.7425428102185e+18 0 0)
(-8.67070544627001e+18 0 0)
(-8.59847167533698e+18 0 0)
(-8.52582099229501e+18 0 0)
(-8.45273060210482e+18 0 0)
(-8.3791751515367e+18 0 0)
(-8.30512646990804e+18 0 0)
(-8.23055321495922e+18 0 0)
(-8.15542065374586e+18 0 0)
(-8.07969018144935e+18 0 0)
(-8.00331894966347e+18 0 0)
(-7.92625939732759e+18 0 0)
(-7.84845871366695e+18 0 0)
(-7.76985823122031e+18 0 0)
(-7.69039275704032e+18 0 0)
(-7.60998984059034e+18 0 0)
(-7.52856884207262e+18 0 0)
(-7.44604006438352e+18 0 0)
(-7.36230357581326e+18 0 0)
(-7.27724792615535e+18 0 0)
(-7.1907488888311e+18 0 0)
(-7.10266764662827e+18 0 0)
(-7.0128491196108e+18 0 0)
(-6.9211194350245e+18 0 0)
(-6.82728499415666e+18 0 0)
(-6.7311295649693e+18 0 0)
(-6.63239870108402e+18 0 0)
(-6.53084007385478e+18 0 0)
(-6.42612724241741e+18 0 0)
(-6.31791051753495e+18 0 0)
(-6.20575163388894e+18 0 0)
(-6.08956246363262e+18 0 0)
(-5.96799535029263e+18 0 0)
(-5.84120991786992e+18 0 0)
(-5.70940779541404e+18 0 0)
(-5.56840466325281e+18 0 0)
(-5.41564693476855e+18 0 0)
(-5.25629427118034e+18 0 0)
(-5.09197195900512e+18 0 0)
(-4.9099101188674e+18 0 0)
(-4.72778109828465e+18 0 0)
(-4.48253455032962e+18 0 0)
(-4.23792351346531e+18 0 0)
(-3.6346496092702e+18 0 0)
(-2.66114938819523e+18 0 0)
(-2.31205157474402e+18 0 0)
(-2.34245785814932e+18 0 0)
(-2.12398553388234e+18 0 0)
(-1.63811555267104e+18 0 0)
(-9.38942141888987e+17 0 0)
(-3.32628135977681e+17 0 0)
(1.51749022736974e+17 0 0)
(1.68754224155329e+17 0 0)
(-7.19221484967428e+17 0 0)
(-6.95630896056762e+17 0 0)
(-4.7869113324798e+16 0 0)
(-1.57512870178744e+18 0 0)
(-2.67368633111203e+18 0 0)
(-2.04254835462321e+18 0 0)
(-3.58977037008267e+18 0 0)
(-4.65776135419357e+18 0 0)
(-3.89703279365115e+18 0 0)
(-4.47196249430845e+18 0 0)
(-3.80894955676946e+18 0 0)
(-1.57458152964594e+18 0 0)
(6.51636209205903e+16 0 0)
(2.56618015382884e+18 0 0)
(5.84093354950394e+18 0 0)
(8.38529300274191e+18 0 0)
(1.05907275276395e+19 0 0)
(1.24139226069635e+19 0 0)
(1.30453693065768e+19 0 0)
(1.37431925836661e+19 0 0)
(1.19491039667762e+19 0 0)
(1.00672502106727e+19 0 0)
(8.58356750226214e+18 0 0)
(6.3275154447167e+18 0 0)
(8.41414875780756e+18 0 0)
(-1.66875373829164e+18 0 0)
(-2.76241161497969e+16 0 0)
(8.2301498044298e+17 0 0)
(-2.0420006635918e+18 0 0)
(-2.1431332897757e+18 0 0)
(-2.07038143351783e+18 0 0)
(-2.11995414721709e+18 0 0)
(-2.35679223871e+18 0 0)
(-2.64206822790877e+18 0 0)
(-2.84218101849722e+18 0 0)
(-2.94940907556381e+18 0 0)
(-2.99123073361581e+18 0 0)
(-2.98891494398083e+18 0 0)
(-2.97411774101744e+18 0 0)
(-2.94198692259704e+18 0 0)
(-2.90676761301332e+18 0 0)
(-2.86933982239569e+18 0 0)
(-2.82684497191116e+18 0 0)
(-2.78121758717437e+18 0 0)
(-2.73489361356627e+18 0 0)
(-2.68801690303964e+18 0 0)
(-2.64148882647355e+18 0 0)
(-2.59409947797864e+18 0 0)
(-2.54700086949771e+18 0 0)
(-2.49922656744841e+18 0 0)
(-2.45143867959595e+18 0 0)
(-2.40366820479601e+18 0 0)
(-2.35603598291763e+18 0 0)
(-2.30864733055222e+18 0 0)
(-2.26159318245317e+18 0 0)
(-2.21495565439075e+18 0 0)
(-2.16880962660697e+18 0 0)
(-2.12322275298283e+18 0 0)
(-2.07825587160951e+18 0 0)
(-2.03396282961088e+18 0 0)
(-1.99039081146299e+18 0 0)
(-1.94758060310672e+18 0 0)
(-1.90556478626567e+18 0 0)
(-1.86437399966315e+18 0 0)
(-1.82399338957562e+18 0 0)
(-1.78445715011777e+18 0 0)
(-1.74598977369192e+18 0 0)
(-1.70828273558337e+18 0 0)
(-1.67147955725341e+18 0 0)
(-1.6355580780659e+18 0 0)
(-1.60053070458737e+18 0 0)
(-1.56639069907541e+18 0 0)
(-1.53313067961546e+18 0 0)
(-1.50073976927157e+18 0 0)
(-1.46920515412886e+18 0 0)
(-1.43851203959414e+18 0 0)
(-1.40864427698429e+18 0 0)
(-1.37958409832644e+18 0 0)
(-1.35131444681334e+18 0 0)
(-1.32381228450642e+18 0 0)
(-1.29708468475524e+18 0 0)
(-1.27100896920063e+18 0 0)
(-1.24571025316804e+18 0 0)
(-1.22113551877336e+18 0 0)
(-1.19715241619569e+18 0 0)
(-1.17384725866384e+18 0 0)
(-1.15116459541618e+18 0 0)
(-1.12909088846428e+18 0 0)
(-1.1076047461901e+18 0 0)
(-1.08668728579514e+18 0 0)
(-1.0663212108557e+18 0 0)
(-1.04648725482977e+18 0 0)
(-1.02716511452422e+18 0 0)
(-1.00833895716809e+18 0 0)
(-9.89989018705075e+17 0 0)
(-9.72105867276154e+17 0 0)
(-9.54598814705866e+17 0 0)
(-9.37605417190677e+17 0 0)
(-9.21094913867234e+17 0 0)
(-9.04921481425294e+17 0 0)
(-8.89142565366977e+17 0 0)
(-8.73740828918241e+17 0 0)
(-8.58708679075099e+17 0 0)
(-8.44034356684987e+17 0 0)
(-8.29707067323784e+17 0 0)
(-8.15715287130789e+17 0 0)
(-8.02049844724463e+17 0 0)
(-7.88687853328981e+17 0 0)
(-7.75643455887889e+17 0 0)
(-7.62665283435442e+17 0 0)
(-7.50420093723218e+17 0 0)
(-7.38376496161975e+17 0 0)
(-7.2655154283513e+17 0 0)
(-7.14983726443605e+17 0 0)
(-7.03680114896608e+17 0 0)
(-6.92301059384645e+17 0 0)
(-6.8209461711009e+17 0 0)
(-6.7170895092786e+17 0 0)
(-6.61282888416241e+17 0 0)
(-6.51734469567303e+17 0 0)
(-6.4238846561099e+17 0 0)
(-6.3329403602239e+17 0 0)
(-6.25100916553381e+17 0 0)
(-6.17945676685386e+17 0 0)
(-6.11583952998314e+17 0 0)
(-6.00759048928176e+17 0 0)
)
;

boundaryField
{
    electrode
    {
        type            calculated;
        value           uniform (-1.58741701047821e+19 0 0);
    }
    ground
    {
        type            calculated;
        value           uniform (-5.98117952826039e+17 0 0);
    }
    otherfaces
    {
        type            empty;
    }
}


// ************************************************************************* //
