/*--------------------------------*- C++ -*----------------------------------*\
| =========                 |                                                 |
| \\      /  F ield         | foam-extend: Open Source CFD                    |
|  \\    /   O peration     | Version:     4.0                                |
|   \\  /    A nd           | Web:         http://www.foam-extend.org         |
|    \\/     M anipulation  |                                                 |
\*---------------------------------------------------------------------------*/
FoamFile
{
    version     2.0;
    format      ascii;
    class       volScalarField;
    location    "7.3e-06";
    object      Phi;
}
// * * * * * * * * * * * * * * * * * * * * * * * * * * * * * * * * * * * * * //

dimensions      [0 0 0 1 0 0 0];

internalField   nonuniform List<scalar> 
300
(
699.999927517388
699.999711283611
699.999201310299
699.998430624884
699.997407622454
699.996126934649
699.994589435309
699.992794688005
699.990742128223
699.988431263496
699.985861504633
699.983032210055
699.979942683334
699.976592169934
699.97297985803
699.969104877893
699.964966301405
699.960563141609
699.955894352185
699.950958826914
699.945755399101
699.940282840976
699.934539863054
699.928525113468
699.922237177272
699.915674575703
699.908835765415
699.901719137679
699.894323017541
699.886645662953
699.878685263862
699.870439941259
699.861907746198
699.853086658765
699.843974587018
699.834569365874
699.824868755962
699.814870442429
699.804572033698
699.793971060188
699.783064972976
699.771851142414
699.760326856695
699.748489320371
699.736335652803
699.723862886568
699.7110679658
699.697947744471
699.68449898461
699.670718354456
699.656602426537
699.64214767569
699.627350476993
699.612207103628
699.596713724659
699.58086640273
699.564661091668
699.548093634001
699.531159758378
699.51385507688
699.496175082239
699.478115144936
699.459670510185
699.4408362948
699.421607483927
699.401978927648
699.381945337442
699.361501282497
699.340641185868
699.31935932047
699.297649804901
699.27550659908
699.252923499699
699.22989413547
699.206411962161
699.182470257411
699.158062115302
699.133180440695
699.107817943289
699.081967131424
699.055620305565
699.028769551431
699.001406732831
698.9735234844
698.94511120418
698.916161044967
698.886663902608
698.856610404467
698.825990913108
698.794795547835
698.763014150541
698.730636096214
698.697650160737
698.664044733668
698.629807862512
698.594927236912
698.559390173902
698.523183602005
698.486294044173
698.448707599743
698.410409925377
698.371386214919
698.331621178093
698.291099017984
698.249803407181
698.207717462512
698.16482371826
698.121104097738
698.076539883114
698.031111683344
697.984799400069
697.937582191319
697.889438432855
697.840345676951
697.790280608421
697.739218997657
697.687135650433
697.634004354209
697.579797820624
697.524487623865
697.46804413454
697.410436448654
697.351632311258
697.291598034276
697.23029840796
697.167696605397
697.103754079373
697.038430450867
696.971683388349
696.903468476938
696.83373907641
696.762446166869
696.689538180793
696.614960819979
696.53865685574
696.460565910475
696.380624218501
696.298764363741
696.214914991553
696.129000491572
696.040940648021
695.950650253445
695.858038681164
695.763009411137
695.665459503011
695.565279009224
695.462350319798
695.356547429594
695.247735116235
695.135768014319
695.020489577894
694.901730898682
694.779309370911
694.653027170389
694.522669592785
694.388002877478
694.248772201181
694.104699106717
693.955477846087
693.800771370926
693.640208263923
693.473377979798
693.299824128239
693.119041956683
692.930458057419
692.733442933429
692.52715971936
692.310553159395
692.082523104218
691.841857909001
691.587179020096
691.316840724672
691.028874754603
690.720975414753
690.390429524451
690.03429399671
689.649577538468
689.232458621053
688.778540228275
688.283786462066
687.743324027598
687.151523479129
686.503513812363
685.79355856002
685.015522966125
684.164455813006
683.234810609384
682.221062742527
681.119197811624
679.925111941938
678.634904089839
677.246293602552
675.757419656108
674.166758151097
672.473077778249
670.676689070723
668.777834173362
666.776990949563
664.674450744947
662.47051019505
660.165715315885
657.760641070138
655.254527645416
652.646731176574
649.936362824454
647.123331117808
644.207934006715
641.190924359761
638.073245116392
634.855887014632
631.539824840661
628.125971114078
624.615160632072
621.008133398317
617.305918979742
613.509561747829
609.620032142855
605.638198031976
601.564865025213
597.400747250399
593.146507805644
588.802727693797
584.369947032041
579.848632461592
575.239218200924
570.542071798461
565.757838740872
560.887114573101
555.930484419207
550.888466135147
545.761573688756
540.550258169748
535.25497221667
529.876109144271
524.414068450261
518.869193139989
513.241836299456
507.532296594992
501.740885930417
495.867863294513
489.913503624711
483.878030099316
477.761732885474
471.565015105661
465.288296502079
458.931949041466
452.496363462301
445.981883570524
439.388873770759
432.717652106651
425.968558928389
419.14188870033
412.237959764134
405.257044973826
398.199442396434
391.065404855747
383.855211503134
376.569096489439
369.207321255291
361.770102337172
354.257684418764
346.670267298174
339.008079596003
331.27130504767
323.460156826511
315.57480324551
307.615531502125
299.582630443646
291.476420652701
283.297175745548
275.045201981612
266.720758514907
258.324138053173
249.855586015989
241.315382320098
232.70375941737
224.020985128463
215.267279666618
206.442899380798
197.548052873444
188.582985525294
179.547894868489
170.443015792342
161.268535260931
152.024678178756
142.711621623474
133.329581227098
123.878724676819
114.359258766399
104.771342141045
95.1151730975327
85.3909015521722
75.5987179789
65.7387641732433
55.8112230233709
45.8162287843091
35.753957723324
25.6245372790711
15.4281383786599
5.16488268348802
)
;

boundaryField
{
    electrode
    {
        type            fixedValue;
        value           uniform 700;
    }
    ground
    {
        type            fixedValue;
        value           uniform 0;
    }
    otherfaces
    {
        type            empty;
    }
}


// ************************************************************************* //
