/*--------------------------------*- C++ -*----------------------------------*\
| =========                 |                                                 |
| \\      /  F ield         | foam-extend: Open Source CFD                    |
|  \\    /   O peration     | Version:     4.0                                |
|   \\  /    A nd           | Web:         http://www.foam-extend.org         |
|    \\/     M anipulation  |                                                 |
\*---------------------------------------------------------------------------*/
FoamFile
{
    version     2.0;
    format      ascii;
    class       volScalarField;
    location    "7.3e-06";
    object      PhiMean;
}
// * * * * * * * * * * * * * * * * * * * * * * * * * * * * * * * * * * * * * //

dimensions      [0 0 0 1 0 0 0];

internalField   nonuniform List<scalar> 
300
(
699.989896755191
699.988842832797
699.987515694833
699.985940156023
699.984125406354
699.982064941422
699.979758456712
699.977204957499
699.974403436257
699.971353126428
699.968053328914
699.964503444322
699.960702946867
699.956651375809
699.952348327453
699.947793446489
699.942986419089
699.937926968136
699.932614847369
699.927049835738
699.921231733436
699.915160357597
699.908835538489
699.902257115409
699.895424932364
699.888338842
699.880998696958
699.873404345999
699.865555632841
699.857452389331
699.849094430127
699.840481561464
699.831613574496
699.822490232984
699.813111270191
699.80347638515
699.793585238342
699.783437449426
699.773032592822
699.762370192683
699.751449720255
699.7402705913
699.728832159986
699.717133715456
699.705174478106
699.69295359613
699.680470141705
699.667723108244
699.654711407321
699.641433868403
699.627889237362
699.614076183209
699.599993289649
699.585639054788
699.571011876872
699.556110047957
699.540931743398
699.525475016647
699.509737794459
699.493717871325
699.477412904873
699.460820410714
699.443937756617
699.426762156524
699.409290680884
699.391520250186
699.373447613461
699.355069342967
699.336381828697
699.317381272157
699.298063679865
699.278424856049
699.25846040521
699.23816572825
699.217536004189
699.196566189736
699.175251022363
699.153585007494
699.131562408842
699.109177224779
699.086423203312
699.06329380988
699.039782215504
699.015881289196
698.991583584093
698.966881339351
698.9417664644
698.916230517173
698.890264690637
698.863859806718
698.837006298181
698.8096941934
698.781913132399
698.753652322094
698.724900517365
698.695646005336
698.665876585752
698.635579553358
698.604741674671
698.573349170313
698.541387694201
698.508842306075
698.475697442718
698.441936913578
698.407543853938
698.372500697414
698.336789151945
698.300390155895
698.263283856647
698.225449564611
698.186865708439
698.147509795239
698.107358363511
698.066386942289
698.024570001793
697.981880891065
697.938291797708
697.893773691912
697.848296243963
697.801827748145
697.754335045783
697.705783460875
697.656136700467
697.605356782284
697.553403919538
697.50023639308
697.445810429681
697.390080086025
697.33299709053
697.274510691836
697.214567491337
697.153111263807
697.090082754773
697.025419456863
696.95905537505
696.890920798236
696.820941984827
696.749040835029
696.675134521999
696.599135116831
696.520949141609
696.440477081843
696.357612848584
696.272243171617
696.18424694279
696.093494485591
695.999846678255
695.903153994013
695.803255398277
695.699977106016
695.59313122618
695.482514132585
695.367904622266
695.249061839315
695.125722814102
694.997599602911
694.864376133263
694.725704174351
694.581199245178
694.430434499116
694.27293585306
694.108169650965
693.935520131866
693.754272700357
693.563604180981
693.362552106944
693.149989642541
692.924617673432
692.684934347145
692.429173809561
692.155252081788
691.860730684399
691.5428122978
691.198248129209
690.823345845352
690.414056239034
689.965796989618
689.473450109992
688.931675850281
688.334769777455
687.676687599334
686.951453317114
686.153181757485
685.276012483159
684.314758988939
683.264711475488
682.121679853407
680.882396501251
679.544433291299
678.105903132158
676.565673762092
674.923322593018
673.178928502086
671.332940112689
669.386019188254
667.338879949457
665.19212109079
662.946138632823
660.601303539887
658.157923124667
655.616315111741
652.9765723996
650.238692337339
647.402893778468
644.46964309809
641.439653389113
638.313783764058
635.092964548508
631.778126630555
628.370144984087
624.869845080471
621.277969614011
617.595274897481
613.822599757171
609.960865055908
606.0109128423
601.973536093854
597.849446690607
593.639318526395
589.343752764067
584.963322323345
580.498534468905
575.949876843958
571.317777932474
566.602654984796
561.804951105376
556.925276296058
551.964182570562
546.92222045347
541.799884322742
536.597672606268
531.31603004652
525.955411009144
520.516220001545
514.998875692793
509.40374696874
503.731220282998
497.981632890313
492.155342910301
486.252659671243
480.273916547811
474.219398722493
468.089429202066
461.884403697071
455.604779614323
449.250960468682
442.823379825568
436.322416912295
429.748483558196
423.101936562436
416.383167831171
409.592513278601
402.730346453938
395.796983670913
388.792781467095
381.718037673522
374.573092945381
367.35822763087
360.073767462511
352.719976210056
345.297165497088
337.805583334155
330.245527995216
322.617232333446
314.920981972749
307.156998052408
299.325573407747
291.426967277343
283.461531420753
275.429566041192
267.331439391721
259.167437871677
250.937918276972
242.64315290001
234.283487775216
225.859181639015
217.370570407497
208.817899805088
200.201496215896
191.521592870745
182.778507165052
173.972460276815
165.103761142456
156.172619304661
147.179335846098
138.124109187962
129.007233121391
119.828895300041
110.589382677415
101.288872463437
91.9276451667624
82.5058680614629
73.023815931968
63.481646521031
53.8796292160597
44.217912884014
34.4967624100253
24.7163183247976
14.8768421750379
4.97846715661747
)
;

boundaryField
{
    electrode
    {
        type            calculated;
        value           uniform 699.999999999621;
    }
    ground
    {
        type            calculated;
        value           uniform 0;
    }
    otherfaces
    {
        type            empty;
    }
}


// ************************************************************************* //
