/*--------------------------------*- C++ -*----------------------------------*\
| =========                 |                                                 |
| \\      /  F ield         | foam-extend: Open Source CFD                    |
|  \\    /   O peration     | Version:     4.0                                |
|   \\  /    A nd           | Web:         http://www.foam-extend.org         |
|    \\/     M anipulation  |                                                 |
\*---------------------------------------------------------------------------*/
FoamFile
{
    version     2.0;
    format      ascii;
    class       volScalarField;
    location    "7.3e-06";
    object      Sy_electron;
}
// * * * * * * * * * * * * * * * * * * * * * * * * * * * * * * * * * * * * * //

dimensions      [1 -3 -1 0 0 0 0];

internalField   nonuniform List<scalar> 
300
(
3.2566219748969e-09
3.25735177381318e-09
3.25762443081452e-09
3.25754517008833e-09
3.25748457094824e-09
3.25737029198711e-09
3.25721122666555e-09
3.25701225892355e-09
3.25677102486858e-09
3.25648765714715e-09
3.25616186174351e-09
3.25579324913145e-09
3.25538147183753e-09
3.25492615118786e-09
3.25442689294896e-09
3.25388328772966e-09
3.25329490939603e-09
3.25266131543516e-09
3.25198204674485e-09
3.25125662747052e-09
3.25048456487341e-09
3.24966534917076e-09
3.24879845338423e-09
3.24788333317681e-09
3.24691942666856e-09
3.24590615434606e-09
3.24484291881781e-09
3.24372910466457e-09
3.24256407829009e-09
3.24134718771139e-09
3.24007776234818e-09
3.23875511292212e-09
3.23737853124001e-09
3.23594728996756e-09
3.23446064245595e-09
3.2329178225498e-09
3.23131804437811e-09
3.22966050216798e-09
3.22794437003772e-09
3.22616880178022e-09
3.2243329306541e-09
3.22243586917721e-09
3.22047670890242e-09
3.21845452020253e-09
3.21636835205269e-09
3.21421723179337e-09
3.21200016490452e-09
3.20971613478411e-09
3.20736410248348e-09
3.20494300649869e-09
3.202451762502e-09
3.19988926314919e-09
3.19725437775578e-09
3.19454595210785e-09
3.19176280815187e-09
3.18890374374909e-09
3.18596753237513e-09
3.18295292285922e-09
3.17985863909666e-09
3.17668337975611e-09
3.17342581799113e-09
3.17008460111979e-09
3.16665835030473e-09
3.16314566021831e-09
3.15954509875856e-09
3.15585520670778e-09
3.15207449730196e-09
3.14820145589557e-09
3.14423453958939e-09
3.14017217682556e-09
3.13601276697322e-09
3.13175467989799e-09
3.12739625553436e-09
3.1229358034288e-09
3.11837160221484e-09
3.11370189914865e-09
3.10892490957454e-09
3.10403881634296e-09
3.09904176929585e-09
3.0939318846572e-09
3.08870724453646e-09
3.08336589559559e-09
3.07790584789602e-09
3.07232507581366e-09
3.06662152234459e-09
3.06079309809094e-09
3.05483765159453e-09
3.04875292843519e-09
3.04253666849253e-09
3.03618696167399e-09
3.02970230035265e-09
3.02442836527504e-09
3.01955300590502e-09
3.01455658566278e-09
3.00943631462518e-09
3.00418946596908e-09
2.99881328674775e-09
2.99330497817035e-09
2.98766168751941e-09
2.98188050436944e-09
2.97595845778778e-09
2.96989251370049e-09
2.96367957221039e-09
2.95731646496796e-09
2.95079995213558e-09
2.94412671937839e-09
2.93729337468149e-09
2.93029644488105e-09
2.92313237214898e-09
2.91579751015801e-09
2.90828812006545e-09
2.90060036627036e-09
2.89273031190642e-09
2.88467391408705e-09
2.87642701884248e-09
2.86798535572507e-09
2.85934453212686e-09
2.85050002727736e-09
2.84144718571206e-09
2.83218121043904e-09
2.82269715561562e-09
2.81298991885153e-09
2.80305423280684e-09
2.79288465643991e-09
2.78247556551915e-09
2.77182114250201e-09
2.76091536571757e-09
2.74975199792006e-09
2.73832457382128e-09
2.72662638688019e-09
2.7146504750724e-09
2.70238960567373e-09
2.68983625885669e-09
2.67698261007104e-09
2.66382051113309e-09
2.65034146991557e-09
2.63653662831385e-09
2.62239673856904e-09
2.60791213777755e-09
2.59307272035327e-09
2.57786790819044e-09
2.56228661848796e-09
2.54631722889341e-09
2.52994753980967e-09
2.51316473366542e-09
2.49595533046996e-09
2.47830513912903e-09
2.46019920874784e-09
2.4416217658142e-09
2.42255615517929e-09
2.40298478180966e-09
2.38288904811769e-09
2.36224915978367e-09
2.34104430486569e-09
2.3192524482928e-09
2.29684964633819e-09
2.27381138166673e-09
2.25071497323785e-09
2.22821376127737e-09
2.20501342035936e-09
2.18108272358769e-09
2.15638543888958e-09
2.13090010553789e-09
2.10460194990289e-09
2.077585900982e-09
2.05010653935076e-09
2.02197670665931e-09
1.99262553713215e-09
1.96185030020566e-09
1.92976033334451e-09
1.89646096721445e-09
1.86187836090874e-09
1.82574551197658e-09
1.7875689336904e-09
1.74638318257523e-09
1.70196825489768e-09
1.65190855223337e-09
1.59769280850435e-09
1.53889432642254e-09
1.47694065600039e-09
1.41188077111348e-09
1.34283967158511e-09
1.27209166390105e-09
1.2011096578508e-09
1.12422901229118e-09
1.05038190118354e-09
9.84935174383942e-10
9.31557707200507e-10
8.80227894605181e-10
8.50125140335998e-10
8.3254946169999e-10
8.40824723937108e-10
8.75248690938141e-10
9.43295167842182e-10
1.06232658075555e-09
1.25447779619997e-09
1.56919983702736e-09
2.0922675348014e-09
3.0282781631484e-09
4.31012911548766e-09
5.53702563061112e-09
6.83967563140153e-09
7.48469006152102e-09
7.00673810759118e-09
5.86607670108602e-09
4.55709914532452e-09
3.41860734438724e-09
2.62181630429508e-09
2.09711175559547e-09
1.76319958201718e-09
1.55775288138567e-09
1.43842755260992e-09
1.36260492068473e-09
1.3229302655961e-09
1.3030378190648e-09
1.29300751318569e-09
1.29167068354643e-09
1.29509139732276e-09
1.3007382126843e-09
1.30713143346148e-09
1.31307954288389e-09
1.31647193478218e-09
1.31767399922272e-09
1.31696861748448e-09
1.31416591855642e-09
1.30918182370277e-09
1.30201384246903e-09
1.29271611308198e-09
1.28138281848504e-09
1.26813648265151e-09
1.2531191102794e-09
1.23648529037249e-09
1.2183967594923e-09
1.19901809789166e-09
1.17851332533572e-09
1.15704321490611e-09
1.13476320760943e-09
1.11182161697978e-09
1.08835831983123e-09
1.06449993325733e-09
1.04035297746205e-09
1.01602219647884e-09
9.91616228683118e-10
9.67234710970491e-10
9.42968158127425e-10
9.18896884804049e-10
8.95091444083585e-10
8.71613071646403e-10
8.4851425859453e-10
8.25839352279246e-10
8.03625176041601e-10
7.8190166019157e-10
7.60692451073212e-10
7.40015638515461e-10
7.19884188091639e-10
7.0026879683423e-10
6.81230211943522e-10
6.62772912409313e-10
6.44894601522811e-10
6.2757019294914e-10
6.10759593379412e-10
5.94484617968586e-10
5.78734790015815e-10
5.63498422937161e-10
5.4876287598886e-10
5.34514960491263e-10
5.20741354718818e-10
5.07428616358465e-10
4.94563063035514e-10
4.82130454625833e-10
4.7011616110952e-10
4.58497917895339e-10
4.47247002875103e-10
4.3634380436723e-10
4.25777065197356e-10
4.1553667712186e-10
4.0561351562383e-10
3.95999068932098e-10
3.86685496852216e-10
3.77665695537629e-10
3.68933331461463e-10
3.60482994337592e-10
3.52309009910309e-10
3.43885289795854e-10
3.35562732796812e-10
3.27434590803135e-10
3.19501323992137e-10
3.11777845086824e-10
3.04280643438692e-10
2.96804583115507e-10
2.88463866861897e-10
2.80291024697986e-10
2.72343021075299e-10
2.63728208188629e-10
2.54086734338242e-10
2.44741582493793e-10
2.32434771727033e-10
2.18927015235439e-10
2.01777417023486e-10
1.77152002838233e-10
)
;

boundaryField
{
    electrode
    {
        type            zeroGradient;
    }
    ground
    {
        type            zeroGradient;
    }
    otherfaces
    {
        type            empty;
    }
}


// ************************************************************************* //
