/*--------------------------------*- C++ -*----------------------------------*\
| =========                 |                                                 |
| \\      /  F ield         | foam-extend: Open Source CFD                    |
|  \\    /   O peration     | Version:     4.0                                |
|   \\  /    A nd           | Web:         http://www.foam-extend.org         |
|    \\/     M anipulation  |                                                 |
\*---------------------------------------------------------------------------*/
FoamFile
{
    version     2.0;
    format      ascii;
    class       volScalarField;
    location    "7.3e-06";
    object      Te;
}
// * * * * * * * * * * * * * * * * * * * * * * * * * * * * * * * * * * * * * //

dimensions      [0 0 0 1 0 0 0];

internalField   nonuniform List<scalar> 
300
(
40158.8813367837
40159.172279304
40159.3482949078
40159.4539562932
40159.6205679712
40159.8227446637
40160.0637956419
40160.3455185386
40160.6671740295
40161.0289140367
40161.4307490912
40161.8726675565
40162.3546837222
40162.8768120415
40163.4390727487
40164.0414920501
40164.6841016345
40165.3669388685
40166.0900468011
40166.853474187
40167.6572755262
40168.5015110955
40169.3862469888
40170.3115551628
40171.2775134805
40172.2842057633
40173.3317218436
40174.4201576252
40175.5496151419
40176.7202026258
40177.9320345744
40179.1852318247
40180.4799216337
40181.8162377555
40183.1943205311
40184.6143169795
40186.0763808904
40187.5806729264
40189.1273607288
40190.7166190267
40192.3486297514
40194.0235821568
40195.7416729479
40197.5031064102
40199.3080945481
40201.1568572278
40203.0496223273
40204.9866258925
40206.9681122998
40208.9943344267
40211.0655538283
40213.1820409218
40215.3440751778
40217.5519453214
40219.8059495414
40222.1063957042
40224.4536015805
40226.8478950852
40229.2896145175
40231.7791088177
40234.3167378334
40236.9028725964
40239.5378956115
40242.2222011558
40244.9561955913
40247.7402976937
40250.5749389894
40253.4605641102
40256.3976311638
40259.386612118
40262.4279932013
40265.5222753231
40268.6699745087
40271.871622355
40275.1277665102
40278.4389711648
40281.8058175722
40285.2289045879
40288.7088492399
40292.24628736
40295.8418741953
40299.4962848627
40303.2102148323
40306.9843812191
40310.81952545
40314.716414116
40318.6758291739
40322.6985531242
40326.7854050278
40330.9373769179
40335.155666908
40339.4413155724
40343.7950512083
40348.2176635107
40352.7101416486
40357.2735472154
40361.9089860698
40366.6176037519
40371.4005850214
40376.25915496
40381.1945805558
40386.2081724898
40391.3012870506
40396.4753281769
40401.7317496187
40407.0720572237
40412.4978113634
40418.0106295094
40423.6121889621
40429.3042297521
40435.0885577284
40440.967047835
40446.9416476091
40453.0143809061
40459.1873518745
40465.4627491994
40471.8428506402
40478.3300278825
40484.926751737
40491.6355977174
40498.4592520183
40505.400517946
40512.462322835
40519.647725495
40526.959924246
40534.4022655926
40541.9782535998
40549.6915600465
40557.546035437
40565.5457209526
40573.6948614478
40581.9979196101
40590.4595914013
40599.0848229332
40607.8788289409
40616.8471130408
40625.9954899852
40635.3301101647
40644.8574866318
40654.5845249675
40664.5185563773
40674.6673744212
40685.039275892
40695.6431064194
40706.4883115046
40717.5849936196
40728.9439762494
40740.5768776774
40752.4961904319
40764.715375034
40777.2489689637
40790.112711494
40803.3236336503
40816.9003251059
40830.8630737727
40845.2338274697
40860.0370491174
40875.3004625966
40891.0539774082
40907.3292811139
40924.1630964902
40941.5951305236
40959.6774572885
40978.4681231787
40998.0886155112
41018.7512853913
41040.4940728738
41063.1942288316
41086.9069749964
41111.8505014742
41138.270245013
41166.3616906229
41196.2632780051
41228.0326746603
41261.496706316
41296.8721019235
41334.9688657206
41375.6594788033
41418.6212346169
41465.1397104925
41515.6902943165
41570.0545510938
41630.2574334026
41697.9682573623
41774.7887140106
41865.5246164434
41975.4669960217
42111.163198789
42284.2678628138
42509.7148619303
42806.7907127904
43204.4972607629
43742.6267141206
44480.529904598
45497.0449618657
46893.5220876271
48847.5425235992
51619.0330914222
55682.9659850925
61153.7347698125
68108.4698308385
78652.7231190321
94011.4593629167
114850.702572726
143885.713280321
183460.679865837
234576.789722455
295331.622841856
361279.68369996
427444.752219055
489973.957372485
546787.298975393
597093.019921295
641009.730593406
679195.066020922
712313.002643212
741125.537863408
766382.543503579
788690.513835109
808532.698348269
826289.355011484
842283.383962689
856793.893669598
870049.948227423
882246.869977959
893540.304801076
904059.511545549
913911.177258667
923183.583013424
931949.874914927
940270.605537331
948195.756089157
955766.363108537
963015.836112707
969971.034066906
976653.145977216
983078.447955279
989258.882612333
995203.121556945
1000916.53558168
1006397.24418327
1011642.71555379
1016651.84157901
1021419.24681819
1025937.68921829
1030197.84664105
1034188.75108723
1037897.93149677
1041311.58040994
1044414.69026575
1047191.178676
1049624.00668029
1051695.25334191
1053386.28628054
1054677.25430362
1055548.60862931
1055969.45752735
1055940.96575459
1055429.4981975
1054414.64689341
1052873.63565125
1050784.1058782
1048123.23422893
1044867.91387366
1040994.64639999
1036479.55862155
1031298.51978576
1025427.05705809
1018840.3315175
1011512.89843666
1003421.17696189
994539.549258416
984837.859349031
974289.450128833
962867.811997779
950542.529117158
937281.762571204
923051.84155778
907817.194780689
891540.094796771
874180.293749442
855695.16849664
836038.244659959
815169.09254111
793034.16082904
769569.604419451
744715.81153441
718396.64751593
690523.224143453
661012.884893618
629755.626026532
596616.565574588
561460.244644088
524097.086568304
484293.648867016
441762.365955885
396105.883097666
346758.418065521
292900.634688398
233458.6814198
)
;

boundaryField
{
    electrode
    {
        type            electronTemperature;
        seec            0.05;
        Tse             1000;
        Edepend         1;
        TFN             1000;
        field_emission  0;
        field_enhancement_factor 55;
        work_function   5;
        value           uniform 40158.8813367837;
    }
    ground
    {
        type            electronTemperature;
        seec            0.05;
        Tse             1000;
        Edepend         1;
        TFN             1000;
        field_emission  0;
        field_enhancement_factor 55;
        work_function   5;
        value           uniform 199748.818678418;
    }
    otherfaces
    {
        type            empty;
    }
}


// ************************************************************************* //
