/*--------------------------------*- C++ -*----------------------------------*\
| =========                 |                                                 |
| \\      /  F ield         | foam-extend: Open Source CFD                    |
|  \\    /   O peration     | Version:     4.0                                |
|   \\  /    A nd           | Web:         http://www.foam-extend.org         |
|    \\/     M anipulation  |                                                 |
\*---------------------------------------------------------------------------*/
FoamFile
{
    version     2.0;
    format      ascii;
    class       volScalarField;
    location    "7.3e-06";
    object      TeMean;
}
// * * * * * * * * * * * * * * * * * * * * * * * * * * * * * * * * * * * * * //

dimensions      [0 0 0 1 0 0 0];

internalField   nonuniform List<scalar> 
300
(
35866.4644078641
35866.7572905572
35866.8910214703
35866.9009813477
35866.9345821072
35866.9706116689
35867.0120133906
35867.0614734083
35867.1189319039
35867.1849832335
35867.260124285
35867.3448195207
35867.439530369
35867.5446902197
35867.6607201366
35867.7880276158
35867.927005349
35868.0780354309
35868.2414889583
35868.4177258722
35868.6070974035
35868.8099442383
35869.0265986249
35869.2573837458
35869.5026133764
35869.7626015368
35870.0376561101
35870.3280765378
35870.6341613681
35870.9561980887
35871.2944620152
35871.6492378012
35872.0208173188
35872.4094824915
35872.8155102359
35873.2391689679
35873.6807256658
35874.1404536606
35874.6186250331
35875.1155066969
35875.6313621669
35876.166461533
35876.7210743597
35877.2954672703
35877.8899070798
35878.5046606057
35879.1399943226
35879.7961736041
35880.4734599612
35881.1721110195
35881.8923807688
35882.6345325061
35883.3988461839
35884.1856024097
35884.9950867506
35885.8275950422
35886.683419608
35887.5628510946
35888.4661899225
35889.3937408637
35890.3458117719
35891.3227216437
35892.3247795054
35893.3522934979
35894.4056019409
35895.4850604545
35896.5910258321
35897.7238579338
35898.8839231031
35900.0715986225
35901.2872658198
35902.5313025873
35903.8041063275
35905.1060908594
35906.4376678803
35907.7992493749
35909.1912722843
35910.6142053632
35912.0685158179
35913.554674842
35915.0731879893
35916.624577653
35918.2093642051
35919.8280728886
35921.4812427292
35923.1694467439
35924.8932883558
35926.6533776927
35928.4503342366
35930.2848037591
35932.1574377271
35934.0689037661
35936.019931256
35938.0112597168
35940.0436419209
35942.1178737254
35944.2347691193
35946.395170146
35948.5999429273
35950.8499861081
35953.1462448873
35955.4896722359
35957.8812527118
35960.3220369486
35962.8131087165
35965.3555851719
35967.9506208148
35970.5994157541
35973.3032274842
35976.063359805
35978.8811678803
35981.7580586091
35984.6954878912
35987.6949893603
35990.7581502009
35993.8866113946
35997.0820796037
36000.3463540878
36003.6813310611
36007.088954151
36010.5712481052
36014.1303409285
36017.7684532401
36021.4879245983
36025.2912256491
36029.1809292282
36033.1597109918
36037.2303965268
36041.3959669928
36045.6595345902
36050.0243697678
36054.4939334211
36059.0718842452
36063.7620438118
36068.5684398239
36073.4953919392
36078.5474900957
36083.7295868174
36089.0468334221
36094.504716198
36100.1090858287
36105.8661812756
36111.7826639279
36117.8656511364
36124.1227990299
36130.562384443
36137.193344925
36144.0253550476
36151.0688472006
36158.3351407819
36165.836635846
36173.5868611726
36181.6006302518
36189.8943129507
36198.4859048374
36207.3953880016
36216.6449504821
36226.2597101063
36236.2681973133
36246.7047965558
36257.6192156933
36269.0756491309
36281.1344655712
36293.856411982
36307.3195024471
36321.5982731317
36336.7574870248
36352.8962571894
36370.1567896136
36388.6797242633
36408.560418189
36429.8861316059
36452.7769925415
36477.2647667507
36503.3993512956
36531.4583345051
36561.6186789427
36594.0182385814
36629.3605958946
36668.7234528145
36713.5664247092
36766.7182647945
36832.5915411716
36917.5367226783
37031.5880710256
37189.5524680755
37412.6905922925
37732.7435716818
38196.8970883848
38875.8512865199
39878.203916966
41374.8551999
43640.9762193989
47201.9621069375
52590.9046777858
60183.6445570859
71216.3032621216
86309.5861206276
106618.037824874
132498.653656908
164055.169875979
200863.175155171
241900.361685864
286331.892752169
333567.254948144
382912.460785617
433258.528717633
482959.385286819
530289.105074284
573953.722456919
613283.909100166
648182.428590492
678915.505085724
705939.40927977
729749.018595777
750811.956040621
769579.272809409
786439.066684864
801704.351870683
815631.165185521
828422.966033236
840247.168997655
851253.599259633
861565.70111031
871284.416626832
880492.209706205
889257.123748545
897635.027293281
905671.597206375
913404.0041325
920862.206396722
928070.008875403
935045.923604625
941803.812896086
948353.514987041
954701.390604574
960850.685382769
966801.909146617
972553.119002725
978100.443462728
983437.589618391
988556.086170643
993446.424360519
998097.97532794
1002498.95577172
1006636.50204265
1010496.56188284
1014064.20954122
1017323.86525634
1020259.06463915
1022853.14646524
1025089.11672672
1026949.28581416
1028415.58217147
1029469.31418995
1030091.52989986
1030257.8761853
1029959.11813631
1029174.82553277
1027882.81965524
1026063.06418323
1023695.40534164
1020759.63224553
1017235.32011281
1013101.79044743
1008338.40215279
1002923.87611042
996836.403352607
990054.422415329
982555.84074199
974318.026754594
965316.980807032
955528.31783632
944927.438396081
933487.88475686
921181.768208877
907979.724893655
893850.74919832
878762.01753124
862678.615026967
845563.395579112
827376.78332691
808079.985657703
787629.408292899
765971.049008072
743050.07547524
718805.218498123
693161.341489559
666042.554805381
637362.992769206
607014.551458487
574874.48920976
540806.634346988
504628.112294062
466117.467542769
424996.005035619
380871.813420495
333204.370587522
281204.883528263
223833.312057085
)
;

boundaryField
{
    electrode
    {
        type            calculated;
        value           uniform 35866.4644078658;
    }
    ground
    {
        type            calculated;
        value           uniform 191298.582575185;
    }
    otherfaces
    {
        type            empty;
    }
}


// ************************************************************************* //
