/*--------------------------------*- C++ -*----------------------------------*\
| =========                 |                                                 |
| \\      /  F ield         | foam-extend: Open Source CFD                    |
|  \\    /   O peration     | Version:     4.0                                |
|   \\  /    A nd           | Web:         http://www.foam-extend.org         |
|    \\/     M anipulation  |                                                 |
\*---------------------------------------------------------------------------*/
FoamFile
{
    version     2.0;
    format      ascii;
    class       volScalarField;
    location    "8.9e-06";
    object      Arm;
}
// * * * * * * * * * * * * * * * * * * * * * * * * * * * * * * * * * * * * * //

dimensions      [0 0 0 1 0 0 0];

internalField   nonuniform List<scalar> 
300
(
3.57410558863965e+15
3.57597886109978e+15
3.57792606382569e+15
3.57923235916165e+15
3.58004868786601e+15
3.58042730678475e+15
3.58041241234655e+15
3.58003545686699e+15
3.57932210285629e+15
3.5782943290603e+15
3.57696791841298e+15
3.57535695627119e+15
3.57347349683898e+15
3.57132814323852e+15
3.56893035293189e+15
3.56628866517154e+15
3.56340791761291e+15
3.56029668921024e+15
3.55696331821034e+15
3.55341428706611e+15
3.54965579722923e+15
3.54569377034269e+15
3.54153389637891e+15
3.5371815920796e+15
3.53262626782044e+15
3.52788557928836e+15
3.52296325358446e+15
3.51786133153148e+15
3.51259336657442e+15
3.5071642208201e+15
3.50156021962386e+15
3.49579270197807e+15
3.48987973691303e+15
3.48382673136219e+15
3.47763877159556e+15
3.47132065073718e+15
3.46487256376666e+15
3.45830101570466e+15
3.45161306761929e+15
3.4448122616559e+15
3.43790210488404e+15
3.43088786738211e+15
3.42377343235655e+15
3.41656249131733e+15
3.40925854434392e+15
3.4018648511082e+15
3.39438236162015e+15
3.38681250553404e+15
3.37914754928478e+15
3.371386049288e+15
3.36351547178475e+15
3.35554823968584e+15
3.34747903797903e+15
3.33932552317622e+15
3.3310958625684e+15
3.3228063862342e+15
3.31446041933033e+15
3.30606087803855e+15
3.29761033095023e+15
3.28910920757976e+15
3.28056181165525e+15
3.27197024805884e+15
3.26333115443706e+15
3.25462663741957e+15
3.24586067459499e+15
3.23705876602118e+15
3.22822304909173e+15
3.21935536358341e+15
3.21045729535237e+15
3.20153020015708e+15
3.19257322471072e+15
3.18357924040278e+15
3.17454671664503e+15
3.16548304287882e+15
3.15637474355676e+15
3.14722285994886e+15
3.13803370591156e+15
3.12880321616379e+15
3.11955123060069e+15
3.11024740549218e+15
3.10092614491691e+15
3.09158962596087e+15
3.08223478429375e+15
3.0728638385914e+15
3.06346204340719e+15
3.05403710584627e+15
3.04460070268859e+15
3.03515315271124e+15
3.02568260492055e+15
3.0161967511859e+15
3.00668952975372e+15
2.99711614559521e+15
2.98753158446064e+15
2.97793758144461e+15
2.9683341685591e+15
2.95872137150154e+15
2.94909897198274e+15
2.93946651827844e+15
2.92981311408248e+15
2.92013868988322e+15
2.91044948769594e+15
2.90074673531867e+15
2.89099884219974e+15
2.88123485077972e+15
2.87144561278993e+15
2.86162182857338e+15
2.8517784119483e+15
2.84189586959533e+15
2.8319845609995e+15
2.82204993340522e+15
2.81209012951175e+15
2.80210285350398e+15
2.79208038522298e+15
2.78202050217057e+15
2.77192095516629e+15
2.76176411849064e+15
2.75153118877688e+15
2.74124684054225e+15
2.73091197476775e+15
2.72051849453422e+15
2.71004011812815e+15
2.69948965744361e+15
2.68883827449258e+15
2.67809629257227e+15
2.66727511527951e+15
2.6563725192342e+15
2.64536052532918e+15
2.63425643199689e+15
2.62304948001489e+15
2.61173758698274e+15
2.60030515665129e+15
2.58874829517442e+15
2.57706196767475e+15
2.56522010719738e+15
2.55318637168514e+15
2.54097948601781e+15
2.52860334742255e+15
2.51603297803574e+15
2.50324956002222e+15
2.49026211603877e+15
2.47705470446141e+15
2.46361064281056e+15
2.44989781493302e+15
2.43588413620495e+15
2.42154506229129e+15
2.40690024651342e+15
2.39193488300062e+15
2.37663258444961e+15
2.36096280601274e+15
2.34487680559218e+15
2.32838682997182e+15
2.3114681304159e+15
2.29405862234163e+15
2.27615697295706e+15
2.25774489912362e+15
2.23877274223876e+15
2.2191973191809e+15
2.19901796452955e+15
2.17821551928079e+15
2.15674508873725e+15
2.13457108738576e+15
2.11167834310476e+15
2.08802874055986e+15
2.06363468150342e+15
2.03848314153473e+15
2.01251976856171e+15
1.98576528794563e+15
1.95826419526593e+15
1.9300455112039e+15
1.90115123010846e+15
1.87164983889779e+15
1.84157483942371e+15
1.81101865157227e+15
1.78015268085263e+15
1.74917078801663e+15
1.71824288265974e+15
1.68754816957334e+15
1.65728568484491e+15
1.62769400202156e+15
1.59892884336203e+15
1.57114447572086e+15
1.54448783681194e+15
1.51904047115962e+15
1.49491690287614e+15
1.47211705759915e+15
1.45055113573928e+15
1.43025858445714e+15
1.41118903076876e+15
1.39325674935859e+15
1.37638124707002e+15
1.36046911850071e+15
1.3455724623936e+15
1.33218690716964e+15
1.32540133707445e+15
1.35138887087483e+15
1.41736993928698e+15
1.49743517838314e+15
1.56399334312811e+15
1.62556203443884e+15
1.69417393035681e+15
1.76964666616794e+15
1.84677938433394e+15
1.90193038828766e+15
1.90589959187098e+15
1.86646516872355e+15
1.80413258112733e+15
1.74054293373642e+15
1.68746947169093e+15
1.64905627308142e+15
1.62314728483479e+15
1.60616997308434e+15
1.59593266212795e+15
1.58925635933032e+15
1.58601267692871e+15
1.58391183519652e+15
1.58209612633777e+15
1.58094471685844e+15
1.57993624592699e+15
1.57870178539217e+15
1.57703154026347e+15
1.57477109856976e+15
1.57129903348455e+15
1.56670025830329e+15
1.56122669794402e+15
1.55495119016338e+15
1.54803081045706e+15
1.54051425115059e+15
1.53243623587294e+15
1.52385157930757e+15
1.51482390273927e+15
1.50539594717874e+15
1.49562670382872e+15
1.48557961111673e+15
1.47530031948619e+15
1.4648362755636e+15
1.45424933856892e+15
1.44356617718218e+15
1.43284497211687e+15
1.42211067796821e+15
1.41140563252448e+15
1.40075817174464e+15
1.39018613273031e+15
1.37972766973918e+15
1.36939005475049e+15
1.35919824730523e+15
1.34918382153913e+15
1.3393467010131e+15
1.32970578426294e+15
1.32027268993905e+15
1.31104673493833e+15
1.30204061812008e+15
1.29325466225175e+15
1.28467957569829e+15
1.27631938288203e+15
1.26818132714123e+15
1.26027156270454e+15
1.25259263225856e+15
1.24513077982057e+15
1.23789395085671e+15
1.23087202520145e+15
1.22406517159724e+15
1.21745131529165e+15
1.21102133557637e+15
1.20477920543257e+15
1.19872287692991e+15
1.19284670437977e+15
1.18714114965683e+15
1.18160110563127e+15
1.1762140088341e+15
1.17098360499144e+15
1.16589983712216e+15
1.16096485304007e+15
1.15616202432376e+15
1.15149463120663e+15
1.14694936493266e+15
1.1425235366673e+15
1.1382142988703e+15
1.13402057342618e+15
1.12994328646335e+15
1.12597511717468e+15
1.12211390858196e+15
1.11831840968723e+15
1.11444512935161e+15
1.11043758328523e+15
1.10648033973405e+15
1.10259881515401e+15
1.09880190400377e+15
1.09509337608098e+15
1.09146440932346e+15
1.0875139151562e+15
1.08326143964033e+15
1.07910525413695e+15
1.07505550185868e+15
1.07041366967747e+15
1.06553966470269e+15
1.06058749162812e+15
1.05470817769309e+15
1.04829874170736e+15
1.04087951996118e+15
1.03180766221463e+15
)
;

boundaryField
{
    electrode
    {
        type            zeroGradient;
    }
    ground
    {
        type            zeroGradient;
    }
    otherfaces
    {
        type            empty;
    }
}


// ************************************************************************* //
