/*--------------------------------*- C++ -*----------------------------------*\
| =========                 |                                                 |
| \\      /  F ield         | foam-extend: Open Source CFD                    |
|  \\    /   O peration     | Version:     4.0                                |
|   \\  /    A nd           | Web:         http://www.foam-extend.org         |
|    \\/     M anipulation  |                                                 |
\*---------------------------------------------------------------------------*/
FoamFile
{
    version     2.0;
    format      ascii;
    class       volScalarField;
    location    "8.9e-06";
    object      Arp1;
}
// * * * * * * * * * * * * * * * * * * * * * * * * * * * * * * * * * * * * * //

dimensions      [0 0 0 1 0 0 0];

internalField   nonuniform List<scalar> 
300
(
6.77459236617409e+16
6.77885179069256e+16
6.77613636445739e+16
6.77554962007359e+16
6.77448264275737e+16
6.77297732781047e+16
6.7712056394866e+16
6.76909635696289e+16
6.76665966900824e+16
6.76389715277931e+16
6.76080694330429e+16
6.75738914062138e+16
6.75364340499638e+16
6.74956936862798e+16
6.74516668462063e+16
6.740434975394e+16
6.735373847136e+16
6.72998288898717e+16
6.72426167233441e+16
6.71820975131893e+16
6.71182666285853e+16
6.70511192683379e+16
6.6980650462414e+16
6.69068550732171e+16
6.6829727797639e+16
6.67492631689903e+16
6.6665455558316e+16
6.65782991769355e+16
6.64877880784685e+16
6.63939161606943e+16
6.62966771679064e+16
6.61960646936679e+16
6.60920721826926e+16
6.59846929335278e+16
6.58739201015453e+16
6.57597467010286e+16
6.56421656083166e+16
6.55211695648681e+16
6.53967511796273e+16
6.52689029324812e+16
6.51376171775504e+16
6.50028861458033e+16
6.48647019487836e+16
6.47230565820564e+16
6.4577941928182e+16
6.44293497605998e+16
6.42772717473795e+16
6.41216994543222e+16
6.39626243491634e+16
6.38000378055259e+16
6.36339311061703e+16
6.34642954475613e+16
6.32911219438194e+16
6.31144016304691e+16
6.29341254688253e+16
6.2750284350428e+16
6.25628691009717e+16
6.23718704846798e+16
6.2177279209152e+16
6.19790859291684e+16
6.17772812515635e+16
6.15718557399923e+16
6.13627999189781e+16
6.11501042789328e+16
6.09337592810021e+16
6.07137553612742e+16
6.04900829359498e+16
6.02627324062458e+16
6.0031694162761e+16
5.9796958590657e+16
5.9558516074735e+16
5.93163570038407e+16
5.90704717761302e+16
5.88208508041726e+16
5.85674845193882e+16
5.8310363377465e+16
5.8049477863319e+16
5.77848184957905e+16
5.7516375832734e+16
5.72441404762883e+16
5.69681030774699e+16
5.66882543411447e+16
5.64045850313687e+16
5.61170859758788e+16
5.58257480710832e+16
5.55305622872675e+16
5.52315196730346e+16
5.49286113602736e+16
5.46218285691728e+16
5.43111626125877e+16
5.39966049009219e+16
5.36781469469479e+16
5.33557803702503e+16
5.30294969016218e+16
5.2699288388067e+16
5.236514679677e+16
5.20270642196286e+16
5.16850328775747e+16
5.13390451254723e+16
5.09890934563875e+16
5.06351705030755e+16
5.0277269037697e+16
4.99153819906742e+16
4.95495024879055e+16
4.91796237876167e+16
4.88057390674196e+16
4.84278416698201e+16
4.80459264511687e+16
4.76599891035555e+16
4.72700183168247e+16
4.6875995768033e+16
4.64779345671907e+16
4.60758796913097e+16
4.56697627612431e+16
4.52595758351227e+16
4.48453133331196e+16
4.44269662279581e+16
4.40045255693436e+16
4.35779826129632e+16
4.31473288763808e+16
4.27125561661837e+16
4.22736565855712e+16
4.18306225392793e+16
4.13834467387756e+16
4.09321222083965e+16
4.04766422921731e+16
4.00170006623666e+16
3.95531913299224e+16
3.90852086563511e+16
3.86130473685495e+16
3.81367025763429e+16
3.76561697931514e+16
3.71714449608882e+16
3.66825244796686e+16
3.61894052428227e+16
3.56920846788813e+16
3.51905608015197e+16
3.46848322686602e+16
3.41748984532145e+16
3.3660759527092e+16
3.31424165613614e+16
3.26198716453676e+16
3.20931280299305e+16
3.15621902962844e+16
3.10270645608568e+16
3.04877587200068e+16
2.99442827310667e+16
2.93966490101084e+16
2.88448727009044e+16
2.82889726298697e+16
2.77289707402725e+16
2.7164895718113e+16
2.6596777358265e+16
2.60246615810547e+16
2.54485834996172e+16
2.48686246204923e+16
2.42848079547649e+16
2.36973018793449e+16
2.31060525453126e+16
2.2511450405628e+16
2.19131782209183e+16
2.13121913806925e+16
2.07073831817132e+16
2.01011063222349e+16
1.94901894445916e+16
1.88789091197019e+16
1.82771143015355e+16
1.76752159014527e+16
1.7066851383152e+16
1.64586746896808e+16
1.58509451385264e+16
1.52533521917267e+16
1.46597118814593e+16
1.40807924658681e+16
1.35103029419859e+16
1.29297618720976e+16
1.23579778848394e+16
1.18304855691313e+16
1.13021033510667e+16
1.0761881578037e+16
1.02831493773475e+16
9.81534346530118e+15
9.33390752796425e+15
8.9278933241998e+15
8.51647214747364e+15
8.12182373845092e+15
7.78487039080976e+15
7.45339624855761e+15
7.12819042362506e+15
6.86905045739326e+15
6.6149478088406e+15
6.3627667392122e+15
6.14821599813426e+15
5.98101207087924e+15
5.79348030864694e+15
5.62847775050807e+15
5.4838664299478e+15
5.37934378895688e+15
5.29322994625091e+15
5.20260345732531e+15
5.14280799341327e+15
5.12191926560511e+15
5.13045652195463e+15
5.1594817665101e+15
5.16845899420218e+15
5.15519857064568e+15
5.12298799475814e+15
5.07597875362922e+15
5.02589476224413e+15
4.97572491421668e+15
4.92873713598932e+15
4.88514494466174e+15
4.8465907589985e+15
4.79866396398727e+15
4.74437543810876e+15
4.69417588499001e+15
4.64902078673452e+15
4.60734543573137e+15
4.57019892316736e+15
4.53591108999628e+15
4.50568586402579e+15
4.47777137934548e+15
4.4534946109366e+15
4.43105507313448e+15
4.41194278655353e+15
4.38043584955989e+15
4.34980771938712e+15
4.31995969986084e+15
4.29337095836974e+15
4.26721513074345e+15
4.24407891202276e+15
4.22109259789215e+15
4.20093983351052e+15
4.18069483261757e+15
4.16314827049048e+15
4.14529725959241e+15
4.13004472032212e+15
4.1143118762958e+15
4.10110263727533e+15
4.08726458427081e+15
4.07590240001766e+15
4.06047464298632e+15
4.04002385640172e+15
4.01885582511932e+15
4.0000116459473e+15
3.980331742373e+15
3.96293488297906e+15
3.944599063892e+15
3.92851768914078e+15
3.91140807124669e+15
3.89653415918386e+15
3.88054615504951e+15
3.86678767719554e+15
3.85183264186768e+15
3.83910828553689e+15
3.8251145796034e+15
3.8133616567388e+15
3.80027498935996e+15
3.78944087372531e+15
3.77721588063682e+15
3.76725789163743e+15
3.75585465680707e+15
3.74673352672396e+15
3.73611198594476e+15
3.72778967124721e+15
3.71086204683629e+15
3.69705749442768e+15
3.68032286599976e+15
3.66733964410916e+15
3.65128729130515e+15
3.63908218114762e+15
3.62367106396275e+15
3.61220607428282e+15
3.59740083074976e+15
3.58664172773805e+15
3.57240894427261e+15
3.562323071305e+15
3.54863034079527e+15
3.53918724860212e+15
3.52600238161228e+15
3.5171727161267e+15
3.50446452932916e+15
3.49622178108984e+15
3.48396347970834e+15
3.47627729707677e+15
3.46443699599248e+15
3.45727845523699e+15
3.44584223817455e+15
3.43918540611827e+15
3.42814551852157e+15
3.42196986308721e+15
3.41129088911007e+15
3.40556585316054e+15
3.3952286156249e+15
3.38993084691422e+15
3.37988983800947e+15
3.37498684907674e+15
3.36513221462595e+15
3.35807385109172e+15
3.33963852885405e+15
)
;

boundaryField
{
    electrode
    {
        type            driftDiffusionPositiveIonDensity;
        seec            0;
        fieldName       Arp1;
        value           uniform 6.75623302689283e+16;
    }
    ground
    {
        type            driftDiffusionPositiveIonDensity;
        seec            0;
        fieldName       Arp1;
        value           uniform 3.33963852885405e+15;
    }
    otherfaces
    {
        type            empty;
    }
}


// ************************************************************************* //
