/*--------------------------------*- C++ -*----------------------------------*\
| =========                 |                                                 |
| \\      /  F ield         | foam-extend: Open Source CFD                    |
|  \\    /   O peration     | Version:     4.0                                |
|   \\  /    A nd           | Web:         http://www.foam-extend.org         |
|    \\/     M anipulation  |                                                 |
\*---------------------------------------------------------------------------*/
FoamFile
{
    version     2.0;
    format      ascii;
    class       volVectorField;
    location    "8.9e-06";
    object      E;
}
// * * * * * * * * * * * * * * * * * * * * * * * * * * * * * * * * * * * * * //

dimensions      [0 0 0 1 0 0 0];

internalField   nonuniform List<vector> 
300
(
(5.45226364473406 -0 -0)
(11.170941043026 -0 -0)
(19.6485420850268 -0 -0)
(27.5159573501219 -0 -0)
(35.3395202309918 -0 -0)
(43.2312117770732 -0 -0)
(51.1162790553526 -0 -0)
(59.0161361446727 -0 -0)
(66.9317130760912 -0 -0)
(74.8632956126823 -0 -0)
(82.8130848770631 -0 -0)
(90.7826480739402 -0 -0)
(98.7736340052346 -0 -0)
(106.787728247624 -0 -0)
(114.826611335995 -0 -0)
(122.891978668328 -0 -0)
(130.985537907799 -0 -0)
(139.109009415774 -0 -0)
(147.264127467463 -0 -0)
(155.452640955564 -0 -0)
(163.676314227092 -0 -0)
(171.936927961804 -0 -0)
(180.236280034048 -0 -0)
(188.57618639956 -0 -0)
(196.958482082124 -0 -0)
(205.38502203959 -0 -0)
(213.8576821506 -0 -0)
(222.378360267841 -0 -0)
(230.948977188167 -0 -0)
(239.571477718417 -0 -0)
(248.247831782814 -0 -0)
(256.980035546976 -0 -0)
(265.77011250503 -0 -0)
(274.620114769392 -0 -0)
(283.532124241368 -0 -0)
(292.508253864373 -0 -0)
(301.550649046997 -0 -0)
(310.661488858658 -0 -0)
(319.842987595054 -0 -0)
(329.097396126221 -0 -0)
(338.427003458639 -0 -0)
(347.834138267369 -0 -0)
(357.321170577109 -0 -0)
(366.890513366009 -0 -0)
(376.544624372568 -0 -0)
(386.286007914057 -0 -0)
(396.11721674013 -0 -0)
(406.040854022999 -0 -0)
(416.059575379699 -0 -0)
(426.176091021439 -0 -0)
(436.393167956063 -0 -0)
(446.713632276705 -0 -0)
(457.140371594353 -0 -0)
(467.676337531689 -0 -0)
(478.324548319799 -0 -0)
(489.088091551364 -0 -0)
(499.970126990927 -0 -0)
(510.973889608686 -0 -0)
(522.102692579359 -0 -0)
(533.359930658724 -0 -0)
(544.749083446259 -0 -0)
(556.273719046095 -0 -0)
(567.93749771001 -0 -0)
(579.744175741082 -0 -0)
(591.697609562838 -0 -0)
(603.801760011627 -0 -0)
(616.060696781511 -0 -0)
(628.478603088718 -0 -0)
(641.059780651158 -0 -0)
(653.808654790871 -0 -0)
(666.729779898047 -0 -0)
(679.827845068223 -0 -0)
(693.107680133155 -0 -0)
(706.574261899319 -0 -0)
(720.232720805087 -0 -0)
(734.088347842456 -0 -0)
(748.146601890626 -0 -0)
(762.413117413945 -0 -0)
(776.893712599389 -0 -0)
(791.594397914045 -0 -0)
(806.521385114756 -0 -0)
(821.681096796562 -0 -0)
(837.080176449402 -0 -0)
(852.725499062095 -0 -0)
(868.624182352813 -0 -0)
(884.783598653444 -0 -0)
(901.211387424705 -0 -0)
(917.915468592967 -0 -0)
(934.904056549923 -0 -0)
(952.185675140531 -0 -0)
(969.769173389632 -0 -0)
(987.663742324316 -0 -0)
(1005.87893274727 -0 -0)
(1024.42467412738 -0 -0)
(1043.31129474868 -0 -0)
(1062.54954298512 -0 -0)
(1082.15061012119 -0 -0)
(1102.1261544728 -0 -0)
(1122.48832728351 -0 -0)
(1143.24980033675 -0 -0)
(1164.42379491077 -0 -0)
(1186.02411254983 -0 -0)
(1208.0651698333 -0 -0)
(1230.56203865493 -0 -0)
(1253.53047980848 -0 -0)
(1276.98695634877 -0 -0)
(1300.94868794732 -0 -0)
(1325.43385785595 -0 -0)
(1350.46169037908 -0 -0)
(1376.05163601617 -0 -0)
(1402.22283965832 -0 -0)
(1428.99831996213 -0 -0)
(1456.41015398515 -0 -0)
(1484.49123032899 -0 -0)
(1513.26907080628 -0 -0)
(1542.77092340835 -0 -0)
(1573.0255829115 -0 -0)
(1604.06344166545 -0 -0)
(1635.916598906 -0 -0)
(1668.61899209992 -0 -0)
(1702.20653138727 -0 -0)
(1736.71724516926 -0 -0)
(1772.19143865661 -0 -0)
(1808.67186675587 -0 -0)
(1846.20392300984 -0 -0)
(1884.83584639985 -0 -0)
(1924.61894802531 -0 -0)
(1965.60785981865 -0 -0)
(2007.86080798036 -0 -0)
(2051.43991398338 -0 -0)
(2096.41152630016 -0 -0)
(2142.84658678916 -0 -0)
(2190.82103584843 -0 -0)
(2240.41626128251 -0 -0)
(2291.71959644251 -0 -0)
(2344.82487399702 -0 -0)
(2399.83304276222 -0 -0)
(2456.8528559965 -0 -0)
(2516.00164095811 -0 -0)
(2577.40616117583 -0 -0)
(2641.20358437503 -0 -0)
(2707.54257165359 -0 -0)
(2776.58450551859 -0 -0)
(2848.50487786873 -0 -0)
(2923.49486232829 -0 -0)
(3001.76309977274 -0 -0)
(3083.537730782 -0 -0)
(3169.06871680485 -0 -0)
(3258.63049128817 -0 -0)
(3352.5250178346 -0 -0)
(3451.08526444048 -0 -0)
(3554.67932552292 -0 -0)
(3663.71493425755 -0 -0)
(3778.64524567128 -0 -0)
(3899.97447905113 -0 -0)
(4028.26664097119 -0 -0)
(4164.15160403618 -0 -0)
(4308.34018754545 -0 -0)
(4461.62718698618 -0 -0)
(4624.92134818744 -0 -0)
(4799.23539447494 -0 -0)
(4985.75247877465 -0 -0)
(5185.77295048531 -0 -0)
(5400.88789175605 -0 -0)
(5632.79038177717 -0 -0)
(5884.011471737 -0 -0)
(6159.82291082715 -0 -0)
(6465.79446208711 -0 -0)
(6804.99814105298 -0 -0)
(7180.53834409399 -0 -0)
(7597.4493688741 -0 -0)
(8063.40510745947 -0 -0)
(8587.63625142221 -0 -0)
(9180.92753583409 -0 -0)
(9854.60382338885 -0 -0)
(10615.2604505546 -0 -0)
(11470.1812543206 -0 -0)
(12437.3385648592 -0 -0)
(13532.0468268407 -0 -0)
(14757.6699284653 -0 -0)
(16128.5767819698 -0 -0)
(17661.7357937901 -0 -0)
(19356.0583186676 -0 -0)
(21220.6232552089 -0 -0)
(23262.5565733748 -0 -0)
(25471.6752893137 -0 -0)
(27847.852328612 -0 -0)
(30384.3235035078 -0 -0)
(33057.4244284074 -0 -0)
(35855.904859912 -0 -0)
(38766.3250222133 -0 -0)
(41756.8308395341 -0 -0)
(44804.8443255915 -0 -0)
(47901.8092336285 -0 -0)
(51026.1755286147 -0 -0)
(54152.0378652052 -0 -0)
(57267.5687259763 -0 -0)
(60372.1922055717 -0 -0)
(63465.6605849504 -0 -0)
(66545.5117518719 -0 -0)
(69606.934386807 -0 -0)
(72656.2944579349 -0 -0)
(75719.0220274359 -0 -0)
(78805.7907541832 -0 -0)
(81908.8805353543 -0 -0)
(85014.9129035355 -0 -0)
(88110.1639565646 -0 -0)
(91183.3782397766 -0 -0)
(94228.3401650532 -0 -0)
(97243.5418884386 -0 -0)
(100229.657481193 -0 -0)
(103188.565100845 -0 -0)
(106122.760750533 -0 -0)
(109030.911641827 -0 -0)
(111908.257431429 -0 -0)
(114754.104860439 -0 -0)
(117571.203649325 -0 -0)
(120362.122784038 -0 -0)
(123129.270912416 -0 -0)
(125874.872267549 -0 -0)
(128601.017351535 -0 -0)
(131309.627166035 -0 -0)
(134002.495127738 -0 -0)
(136681.274318102 -0 -0)
(139347.523593231 -0 -0)
(141998.508920023 -0 -0)
(144630.758424657 -0 -0)
(147244.773375337 -0 -0)
(149841.773019556 -0 -0)
(152422.871856018 -0 -0)
(154989.11204438 -0 -0)
(157541.450325391 -0 -0)
(160080.787252089 -0 -0)
(162607.95027128 -0 -0)
(165123.726001895 -0 -0)
(167628.83698316 -0 -0)
(170123.975532823 -0 -0)
(172609.780798654 -0 -0)
(175086.869364597 -0 -0)
(177555.812996616 -0 -0)
(180017.168801751 -0 -0)
(182470.457467471 -0 -0)
(184912.938175967 -0 -0)
(187342.879742152 -0 -0)
(189760.766646921 -0 -0)
(192167.047610671 -0 -0)
(194562.159006401 -0 -0)
(196946.50603963 -0 -0)
(199320.485258793 -0 -0)
(201684.466261172 -0 -0)
(204038.812971881 -0 -0)
(206383.863406828 -0 -0)
(208719.953702234 -0 -0)
(211047.395123906 -0 -0)
(213366.499212664 -0 -0)
(215677.555794502 -0 -0)
(217980.857299232 -0 -0)
(220276.67699728 -0 -0)
(222565.291927908 -0 -0)
(224846.961467974 -0 -0)
(227121.949618017 -0 -0)
(229390.503912448 -0 -0)
(231652.876460153 -0 -0)
(233909.302737214 -0 -0)
(236160.02388593 -0 -0)
(238403.136811046 -0 -0)
(240636.987896155 -0 -0)
(242861.636133609 -0 -0)
(245077.328463297 -0 -0)
(247284.270435482 -0 -0)
(249482.696451444 -0 -0)
(251672.799690834 -0 -0)
(253854.803216823 -0 -0)
(256028.889491523 -0 -0)
(258195.271210943 -0 -0)
(260354.120888713 -0 -0)
(262505.641371263 -0 -0)
(264649.99536902 -0 -0)
(266787.376571048 -0 -0)
(268917.937987317 -0 -0)
(271041.864461419 -0 -0)
(273159.299621114 -0 -0)
(275270.420297391 -0 -0)
(277375.36199861 -0 -0)
(279474.292493659 -0 -0)
(281567.337705904 -0 -0)
(283654.656599509 -0 -0)
(285736.371017791 -0 -0)
(287812.632078015 -0 -0)
(289883.5591207 -0 -0)
(291949.297257963 -0 -0)
(294009.955108856 -0 -0)
(296065.668406588 -0 -0)
(298116.540155346 -0 -0)
(300162.698911584 -0 -0)
(302204.233677868 -0 -0)
(304241.262835865 -0 -0)
(306273.841679373 -0 -0)
(308301.328347797 -0 -0)
(310321.125444031 -0 -0)
)
;

boundaryField
{
    electrode
    {
        type            calculated;
        value           uniform (4.21499888261679 -0 -0);
    }
    ground
    {
        type            calculated;
        value           uniform (311328.239339459 -0 -0);
    }
    otherfaces
    {
        type            empty;
    }
}


// ************************************************************************* //
