/*--------------------------------*- C++ -*----------------------------------*\
| =========                 |                                                 |
| \\      /  F ield         | foam-extend: Open Source CFD                    |
|  \\    /   O peration     | Version:     4.0                                |
|   \\  /    A nd           | Web:         http://www.foam-extend.org         |
|    \\/     M anipulation  |                                                 |
\*---------------------------------------------------------------------------*/
FoamFile
{
    version     2.0;
    format      ascii;
    class       volScalarField;
    location    "8.9e-06";
    object      electron;
}
// * * * * * * * * * * * * * * * * * * * * * * * * * * * * * * * * * * * * * //

dimensions      [0 0 0 1 0 0 0];

internalField   nonuniform List<scalar> 
300
(
6.77574522630501e+16
6.77555759195992e+16
6.77507923093732e+16
6.77427099364797e+16
6.77313913251746e+16
6.77168118669224e+16
6.76989656859612e+16
6.76778522191497e+16
6.765346830119e+16
6.76258112596302e+16
6.75948782508934e+16
6.75606662016623e+16
6.75231718761875e+16
6.74823918557334e+16
6.74383225410177e+16
6.73909601541398e+16
6.73403007390065e+16
6.72863401624888e+16
6.72290741155706e+16
6.71684981145706e+16
6.7104607502469e+16
6.70373974503205e+16
6.69668629587554e+16
6.68929988595752e+16
6.68157998174277e+16
6.67352603315736e+16
6.66513747377512e+16
6.65641372101173e+16
6.64735417632757e+16
6.63795822544001e+16
6.62822523854381e+16
6.61815457053974e+16
6.60774556127281e+16
6.59699753577843e+16
6.58590980453637e+16
6.57448166373437e+16
6.5627123955385e+16
6.55060126837254e+16
6.53814753720561e+16
6.52535044384691e+16
6.51220921724932e+16
6.49872307382035e+16
6.48489121774046e+16
6.47071284128914e+16
6.45618712517885e+16
6.44131323889521e+16
6.42609034104481e+16
6.41051757971008e+16
6.39459409281082e+16
6.37831900847221e+16
6.36169144539906e+16
6.34471051325675e+16
6.32737531305773e+16
6.30968493755376e+16
6.29163847163392e+16
6.27323499272777e+16
6.25447357121373e+16
6.23535327083175e+16
6.21587314910116e+16
6.19603225774243e+16
6.17582964310263e+16
6.15526434658494e+16
6.13433540508067e+16
6.11304185140507e+16
6.09138271473549e+16
6.06935702105139e+16
6.04696379357611e+16
6.02420205322079e+16
6.00107081902873e+16
5.97756910862024e+16
5.95369593863781e+16
5.929450325191e+16
5.90483128430056e+16
5.87983783234099e+16
5.85446898648144e+16
5.82872376512382e+16
5.80260118833826e+16
5.77610027829501e+16
5.74922005969201e+16
5.72195956017756e+16
5.69431781076772e+16
5.66629384625753e+16
5.63788670562484e+16
5.60909543242682e+16
5.57991907518795e+16
5.55035668777829e+16
5.52040732978185e+16
5.49007006685346e+16
5.45934397106371e+16
5.42822812123061e+16
5.39672160323684e+16
5.3648235103318e+16
5.33253294341664e+16
5.29984901131176e+16
5.26677083100421e+16
5.23329752787496e+16
5.19942823590363e+16
5.16516209784933e+16
5.13049826540579e+16
5.0954358993268e+16
5.05997416952554e+16
5.02411225515218e+16
4.98784934462853e+16
4.95118463558918e+16
4.9141173347968e+16
4.87664665834188e+16
4.83877183191868e+16
4.8004920893347e+16
4.76180666934941e+16
4.72271482081368e+16
4.68321581990347e+16
4.64330894539438e+16
4.60299335138406e+16
4.56226798333328e+16
4.5211316663239e+16
4.47958320589078e+16
4.43762141241291e+16
4.39524510505469e+16
4.35245311202545e+16
4.3092442695272e+16
4.26561742026264e+16
4.22157141172758e+16
4.17710509433586e+16
4.13221731938044e+16
4.0869069368222e+16
4.04117279289184e+16
3.9950137274873e+16
3.94842857134847e+16
3.90141614298824e+16
3.85397524535631e+16
3.80610466221141e+16
3.75780315417477e+16
3.70906945443388e+16
3.6599022640641e+16
3.61030024693124e+16
3.56026202413517e+16
3.50978616795072e+16
3.45887119521732e+16
3.40751556012524e+16
3.35571764634024e+16
3.30347575840432e+16
3.25078811234434e+16
3.19765282541468e+16
3.14406790489537e+16
3.09003123586139e+16
3.03554056783405e+16
2.98059350022732e+16
2.92518746647997e+16
2.8693197168272e+16
2.81298729950804e+16
2.75618704062077e+16
2.69891552194039e+16
2.64116905797447e+16
2.58294366981111e+16
2.52423506048706e+16
2.46503858353721e+16
2.40534922096196e+16
2.34516154248888e+16
2.28446969658922e+16
2.22326735175783e+16
2.16154772086875e+16
2.09930344678903e+16
2.03652667600293e+16
1.97320866223452e+16
1.90933928245524e+16
1.84490462423841e+16
1.77987449134006e+16
1.71419565619193e+16
1.64780941627279e+16
1.5806681279126e+16
1.51273315581527e+16
1.44396518086654e+16
1.37431986571056e+16
1.3037523091052e+16
1.23222791805647e+16
1.15975228379037e+16
1.0863967768697e+16
1.01228112624031e+16
9.37571259609653e+15
8.62530818385753e+15
7.87528598513098e+15
7.13012155896784e+15
6.39534299960205e+15
5.67744645340664e+15
4.98339550936523e+15
4.32060528746441e+15
3.69652176369124e+15
3.11793860828604e+15
2.59064420571554e+15
2.11890411011824e+15
1.70503769704142e+15
1.34936204003962e+15
1.05022826514642e+15
804144509727240
606245336899592
450418587923581
330298785053395
239609858695552
172272651171206
122720882853718
85211414804147.5
57733358318201.6
38365093415921.5
24484908531746.3
14946183035654.3
8905629333889.42
5392584399430.13
3465015326386.6
2424253356202.64
1853755092759.2
1532254892504.94
1346433122247.67
1237457010845.26
1173704685446.94
1137434376948.5
1118133092256.08
1109196112994.3
1106314177330.11
1106592056743.06
1108474759801.24
1110706238636.38
1112378131269.44
1112976343238.83
1112196146647.56
1109786562970.36
1105631284740.96
1099693934758.1
1091995766786.89
1082597932497.75
1071590152747.47
1059082140942.67
1045197035620.5
1030066238264.02
1013825335524.32
996610869861.302
978557767489.356
959797310356.839
940455083662.16
920649036528.201
900477948375.551
880037383626.174
859429023939.376
838746900688.752
818078177651.08
797501606991.519
777087309679.204
756897030905.844
736984533091.037
717396057949.574
698170824091.51
679341545380.704
660934969521.999
642972446203.21
625470730237.264
608442067617.415
591896486503.705
575837549445.885
560262047358.255
545169130842.053
530557045993.681
516419789609.501
502749736334.717
489537790255.157
476773984962.077
464447669092.216
452547796885.385
441063213098.51
429982542535.332
419294092350.441
408986001212.218
399045713706.421
389460567796.692
380205206705.711
371255427485.396
362601089962.644
354233210439.296
346144090657.719
338326588463.823
330774188474.518
323481039353.855
316442010423.375
309652798000.453
303109228468.908
296807089734.513
290725067589.362
284831425625.941
279119751456.476
273604436196.225
268302331782.934
263231411539.292
258358589857.564
253664149389.535
249202362144.356
245001804295.756
241083144513.885
237537722883.404
234500005159.074
232245796738.655
231280400468.54
232440283007.681
)
;

boundaryField
{
    electrode
    {
        type            driftDiffusionElectronDensity;
        seec            0.05;
        Edepend         1;
        field_emission  0;
        field_enhancement_factor 55;
        work_function   5;
        value           uniform 6.77574522630501e+16;
    }
    ground
    {
        type            driftDiffusionElectronDensity;
        seec            0.05;
        Edepend         1;
        field_emission  0;
        field_enhancement_factor 55;
        work_function   5;
        value           uniform 234688320184.332;
    }
    otherfaces
    {
        type            empty;
    }
}


// ************************************************************************* //
