/*--------------------------------*- C++ -*----------------------------------*\
| =========                 |                                                 |
| \\      /  F ield         | foam-extend: Open Source CFD                    |
|  \\    /   O peration     | Version:     4.0                                |
|   \\  /    A nd           | Web:         http://www.foam-extend.org         |
|    \\/     M anipulation  |                                                 |
\*---------------------------------------------------------------------------*/
FoamFile
{
    version     2.0;
    format      ascii;
    class       volVectorField;
    location    "8.9e-06";
    object      J_Arp1;
}
// * * * * * * * * * * * * * * * * * * * * * * * * * * * * * * * * * * * * * //

dimensions      [1 -1 -1 0 0 0 0];

internalField   nonuniform List<vector> 
300
(
(2.12356601921743e+16 -0 -0)
(7.55242790605903e+16 -0 -0)
(1.34392289945641e+17 -0 -0)
(1.86962176806874e+17 -0 -0)
(2.40215122881863e+17 -0 -0)
(2.93791658874357e+17 -0 -0)
(3.47228281200961e+17 -0 -0)
(4.00721847227596e+17 -0 -0)
(4.54242949622426e+17 -0 -0)
(5.07790341773619e+17 -0 -0)
(5.61371315372809e+17 -0 -0)
(6.14987775501693e+17 -0 -0)
(6.68642838713265e+17 -0 -0)
(7.22339600595715e+17 -0 -0)
(7.7608103230887e+17 -0 -0)
(8.29870116486293e+17 -0 -0)
(8.83709804731535e+17 -0 -0)
(9.37603019506675e+17 -0 -0)
(9.91552654751011e+17 -0 -0)
(1.04556157332648e+18 -0 -0)
(1.09963260557796e+18 -0 -0)
(1.15376854788697e+18 -0 -0)
(1.2079721610453e+18 -0 -0)
(1.26224616860116e+18 -0 -0)
(1.31659325572187e+18 -0 -0)
(1.37101606714493e+18 -0 -0)
(1.42551720569564e+18 -0 -0)
(1.48009923108271e+18 -0 -0)
(1.5347646579985e+18 -0 -0)
(1.58951595460964e+18 -0 -0)
(1.64435554109959e+18 -0 -0)
(1.69928578816281e+18 -0 -0)
(1.75430901499116e+18 -0 -0)
(1.80942748831874e+18 -0 -0)
(1.86464342050597e+18 -0 -0)
(1.91995896784647e+18 -0 -0)
(1.97537622969387e+18 -0 -0)
(2.0308972458856e+18 -0 -0)
(2.08652399619304e+18 -0 -0)
(2.14225839805136e+18 -0 -0)
(2.19810230540182e+18 -0 -0)
(2.25405750691414e+18 -0 -0)
(2.31012572481521e+18 -0 -0)
(2.36630861288762e+18 -0 -0)
(2.42260775529797e+18 -0 -0)
(2.47902466508751e+18 -0 -0)
(2.53556078249705e+18 -0 -0)
(2.59221747361657e+18 -0 -0)
(2.64899602877167e+18 -0 -0)
(2.70589766125657e+18 -0 -0)
(2.76292350576897e+18 -0 -0)
(2.82007461686925e+18 -0 -0)
(2.8773519677769e+18 -0 -0)
(2.93475644886327e+18 -0 -0)
(2.99228886614612e+18 -0 -0)
(3.04994994011026e+18 -0 -0)
(3.10774030411676e+18 -0 -0)
(3.16566050340721e+18 -0 -0)
(3.22371099317673e+18 -0 -0)
(3.28189213803795e+18 -0 -0)
(3.34020420992235e+18 -0 -0)
(3.39864738753509e+18 -0 -0)
(3.45722175463768e+18 -0 -0)
(3.51592729890515e+18 -0 -0)
(3.57476391074384e+18 -0 -0)
(3.63373138221837e+18 -0 -0)
(3.69282940572298e+18 -0 -0)
(3.75205757273305e+18 -0 -0)
(3.8114153730023e+18 -0 -0)
(3.87090219310418e+18 -0 -0)
(3.93051731565564e+18 -0 -0)
(3.99025991790004e+18 -0 -0)
(4.05012907095278e+18 -0 -0)
(4.11012373854476e+18 -0 -0)
(4.1702427762342e+18 -0 -0)
(4.23048493023533e+18 -0 -0)
(4.29084883654499e+18 -0 -0)
(4.35133301989553e+18 -0 -0)
(4.41193589288388e+18 -0 -0)
(4.47265575506252e+18 -0 -0)
(4.53349079190411e+18 -0 -0)
(4.59443907399643e+18 -0 -0)
(4.65549855620616e+18 -0 -0)
(4.71666707668755e+18 -0 -0)
(4.7779423560334e+18 -0 -0)
(4.83932199656244e+18 -0 -0)
(4.90080348124096e+18 -0 -0)
(4.96238417309908e+18 -0 -0)
(5.02406131405949e+18 -0 -0)
(5.08583202448815e+18 -0 -0)
(5.14769330193294e+18 -0 -0)
(5.20964202059788e+18 -0 -0)
(5.27167493036236e+18 -0 -0)
(5.33378865581655e+18 -0 -0)
(5.3959796957504e+18 -0 -0)
(5.45824442177567e+18 -0 -0)
(5.52057907784624e+18 -0 -0)
(5.58297977886483e+18 -0 -0)
(5.64544251028325e+18 -0 -0)
(5.70796312774557e+18 -0 -0)
(5.77053735399401e+18 -0 -0)
(5.83316077393361e+18 -0 -0)
(5.89582883995092e+18 -0 -0)
(5.95853689869847e+18 -0 -0)
(6.0212801685195e+18 -0 -0)
(6.0840535717523e+18 -0 -0)
(6.14685175510249e+18 -0 -0)
(6.20967002188442e+18 -0 -0)
(6.27250469289057e+18 -0 -0)
(6.33534814735901e+18 -0 -0)
(6.39818454472887e+18 -0 -0)
(6.46101322949861e+18 -0 -0)
(6.52387752313763e+18 -0 -0)
(6.5868005546555e+18 -0 -0)
(6.64977954861422e+18 -0 -0)
(6.71280705359913e+18 -0 -0)
(6.77587526866963e+18 -0 -0)
(6.83897608216976e+18 -0 -0)
(6.90210120122489e+18 -0 -0)
(6.96524219516889e+18 -0 -0)
(7.0283905003213e+18 -0 -0)
(7.09153741757097e+18 -0 -0)
(7.15467410783936e+18 -0 -0)
(7.21779158638996e+18 -0 -0)
(7.28088071676034e+18 -0 -0)
(7.34393220435145e+18 -0 -0)
(7.40693658984158e+18 -0 -0)
(7.46988424209903e+18 -0 -0)
(7.53276535087551e+18 -0 -0)
(7.59556991928423e+18 -0 -0)
(7.65828775550262e+18 -0 -0)
(7.72090846431777e+18 -0 -0)
(7.78342143802884e+18 -0 -0)
(7.84581584695699e+18 -0 -0)
(7.90808062936109e+18 -0 -0)
(7.97020448072131e+18 -0 -0)
(8.03217584257442e+18 -0 -0)
(8.0939828905187e+18 -0 -0)
(8.15561352153183e+18 -0 -0)
(8.21705534079292e+18 -0 -0)
(8.27829564733904e+18 -0 -0)
(8.33932141923546e+18 -0 -0)
(8.40011929785907e+18 -0 -0)
(8.46067557094412e+18 -0 -0)
(8.52097615517549e+18 -0 -0)
(8.58100657831346e+18 -0 -0)
(8.6407519541073e+18 -0 -0)
(8.70019698311666e+18 -0 -0)
(8.75932586187246e+18 -0 -0)
(8.81812245973859e+18 -0 -0)
(8.87656976874493e+18 -0 -0)
(8.93465116042398e+18 -0 -0)
(8.99234746264967e+18 -0 -0)
(9.04964310759748e+18 -0 -0)
(9.10651350043283e+18 -0 -0)
(9.16295006304183e+18 -0 -0)
(9.21891125278046e+18 -0 -0)
(9.27441628426405e+18 -0 -0)
(9.32937011544212e+18 -0 -0)
(9.38388109581296e+18 -0 -0)
(9.43769790647136e+18 -0 -0)
(9.49119215281071e+18 -0 -0)
(9.54366209961766e+18 -0 -0)
(9.59621940931623e+18 -0 -0)
(9.64702794010428e+18 -0 -0)
(9.69819490505325e+18 -0 -0)
(9.7489658272268e+18 -0 -0)
(9.79832082441985e+18 -0 -0)
(9.84711726546554e+18 -0 -0)
(9.89580316120906e+18 -0 -0)
(9.94268750709111e+18 -0 -0)
(9.99089684025463e+18 -0 -0)
(1.00353781014425e+19 -0 -0)
(1.0083152424444e+19 -0 -0)
(1.01260944422462e+19 -0 -0)
(1.01698519407079e+19 -0 -0)
(1.02111384146578e+19 -0 -0)
(1.02576099667642e+19 -0 -0)
(1.02923553748192e+19 -0 -0)
(1.03325204814421e+19 -0 -0)
(1.03746705371253e+19 -0 -0)
(1.04062583987186e+19 -0 -0)
(1.04397832984195e+19 -0 -0)
(1.04800753222659e+19 -0 -0)
(1.05008889600326e+19 -0 -0)
(1.05379133216852e+19 -0 -0)
(1.05619582808861e+19 -0 -0)
(1.05896190005486e+19 -0 -0)
(1.06094746351367e+19 -0 -0)
(1.06419565709239e+19 -0 -0)
(1.06549065856949e+19 -0 -0)
(1.06848868430423e+19 -0 -0)
(1.07031356442044e+19 -0 -0)
(1.07364367544264e+19 -0 -0)
(1.07537093686181e+19 -0 -0)
(1.07969848101328e+19 -0 -0)
(1.08263588954672e+19 -0 -0)
(1.08883176227421e+19 -0 -0)
(1.09467995998128e+19 -0 -0)
(1.10550488939643e+19 -0 -0)
(1.12030591418472e+19 -0 -0)
(1.14107101007682e+19 -0 -0)
(1.16647976639794e+19 -0 -0)
(1.19493817691265e+19 -0 -0)
(1.21702391601721e+19 -0 -0)
(1.23851610820553e+19 -0 -0)
(1.25600585809896e+19 -0 -0)
(1.26793136307885e+19 -0 -0)
(1.27709681890209e+19 -0 -0)
(1.2843153582205e+19 -0 -0)
(1.29053086220255e+19 -0 -0)
(1.29592425880559e+19 -0 -0)
(1.30106808754838e+19 -0 -0)
(1.30571110163017e+19 -0 -0)
(1.31047858241864e+19 -0 -0)
(1.31499560125938e+19 -0 -0)
(1.31966348393814e+19 -0 -0)
(1.32415077685437e+19 -0 -0)
(1.32885466039595e+19 -0 -0)
(1.33337795742882e+19 -0 -0)
(1.33814861911351e+19 -0 -0)
(1.34271555136653e+19 -0 -0)
(1.34753347494458e+19 -0 -0)
(1.3521113442154e+19 -0 -0)
(1.35695920397723e+19 -0 -0)
(1.36145596035346e+19 -0 -0)
(1.36634190735898e+19 -0 -0)
(1.3707903852501e+19 -0 -0)
(1.37562950445314e+19 -0 -0)
(1.37999672609763e+19 -0 -0)
(1.38475977600479e+19 -0 -0)
(1.38901806831603e+19 -0 -0)
(1.3936797524456e+19 -0 -0)
(1.39780410185827e+19 -0 -0)
(1.40234439479929e+19 -0 -0)
(1.40631438475204e+19 -0 -0)
(1.41071523999134e+19 -0 -0)
(1.41451686215016e+19 -0 -0)
(1.41876525660858e+19 -0 -0)
(1.42238829594134e+19 -0 -0)
(1.42647970841235e+19 -0 -0)
(1.42991093611215e+19 -0 -0)
(1.43382314007683e+19 -0 -0)
(1.4370972378648e+19 -0 -0)
(1.44083786676213e+19 -0 -0)
(1.44392561524599e+19 -0 -0)
(1.44750164788221e+19 -0 -0)
(1.45040590820401e+19 -0 -0)
(1.45382085289338e+19 -0 -0)
(1.45654688541281e+19 -0 -0)
(1.45980646224785e+19 -0 -0)
(1.46235843450536e+19 -0 -0)
(1.46546877685622e+19 -0 -0)
(1.46785166960125e+19 -0 -0)
(1.47081819330492e+19 -0 -0)
(1.47303902740178e+19 -0 -0)
(1.47587019179329e+19 -0 -0)
(1.47793895071162e+19 -0 -0)
(1.48064366523328e+19 -0 -0)
(1.4825706337161e+19 -0 -0)
(1.4851586874825e+19 -0 -0)
(1.48695350261141e+19 -0 -0)
(1.48943337297117e+19 -0 -0)
(1.4911030866137e+19 -0 -0)
(1.49348593671362e+19 -0 -0)
(1.49489684062974e+19 -0 -0)
(1.49745376289434e+19 -0 -0)
(1.49861593408415e+19 -0 -0)
(1.50110379496141e+19 -0 -0)
(1.50213856738028e+19 -0 -0)
(1.50456454343007e+19 -0 -0)
(1.5054780792495e+19 -0 -0)
(1.5078490244005e+19 -0 -0)
(1.50864786741929e+19 -0 -0)
(1.51097030608209e+19 -0 -0)
(1.51166005123753e+19 -0 -0)
(1.51393944720132e+19 -0 -0)
(1.5145244906609e+19 -0 -0)
(1.51676565732383e+19 -0 -0)
(1.51724898596689e+19 -0 -0)
(1.51945574276385e+19 -0 -0)
(1.51983937757977e+19 -0 -0)
(1.52201542427408e+19 -0 -0)
(1.52230202043573e+19 -0 -0)
(1.52444815076261e+19 -0 -0)
(1.52463694987222e+19 -0 -0)
(1.52675336388423e+19 -0 -0)
(1.52685043295084e+19 -0 -0)
(1.52893760529741e+19 -0 -0)
(1.52895090302917e+19 -0 -0)
(1.53101079751668e+19 -0 -0)
(1.53093513186775e+19 -0 -0)
(1.53296425335073e+19 -0 -0)
(1.53280075528756e+19 -0 -0)
(1.53479798429088e+19 -0 -0)
(1.53453506842015e+19 -0 -0)
(1.53649429013288e+19 -0 -0)
(1.53609142366099e+19 -0 -0)
(1.53802751639504e+19 -0 -0)
(1.53544964016281e+19 -0 -0)
)
;

boundaryField
{
    electrode
    {
        type            calculated;
        value           uniform (-13935094355.2403 -0 -0);
    }
    ground
    {
        type            calculated;
        value           uniform (1.53834560615373e+19 -0 -0);
    }
    otherfaces
    {
        type            empty;
    }
}


// ************************************************************************* //
