/*--------------------------------*- C++ -*----------------------------------*\
| =========                 |                                                 |
| \\      /  F ield         | foam-extend: Open Source CFD                    |
|  \\    /   O peration     | Version:     4.0                                |
|   \\  /    A nd           | Web:         http://www.foam-extend.org         |
|    \\/     M anipulation  |                                                 |
\*---------------------------------------------------------------------------*/
FoamFile
{
    version     2.0;
    format      ascii;
    class       volVectorField;
    location    "8.9e-06";
    object      J_electron;
}
// * * * * * * * * * * * * * * * * * * * * * * * * * * * * * * * * * * * * * //

dimensions      [1 -1 -1 0 0 0 0];

internalField   nonuniform List<vector> 
300
(
(-1.34062347828608e+19 0 0)
(-1.3761139470473e+19 0 0)
(-1.62698812252023e+19 0 0)
(-1.57633166407029e+19 0 0)
(-1.57574308947976e+19 0 0)
(-1.57427504013249e+19 0 0)
(-1.56744804119526e+19 0 0)
(-1.56229701403263e+19 0 0)
(-1.55690290006974e+19 0 0)
(-1.55143734763154e+19 0 0)
(-1.54600927331182e+19 0 0)
(-1.54056763612529e+19 0 0)
(-1.53512198150744e+19 0 0)
(-1.52967279085727e+19 0 0)
(-1.52421869062894e+19 0 0)
(-1.51875970500334e+19 0 0)
(-1.51329550375324e+19 0 0)
(-1.50782577205678e+19 0 0)
(-1.5023502222478e+19 0 0)
(-1.49686856035672e+19 0 0)
(-1.49138049435752e+19 0 0)
(-1.48588573786666e+19 0 0)
(-1.48038400757191e+19 0 0)
(-1.47487501611805e+19 0 0)
(-1.4693584925074e+19 0 0)
(-1.46383416018344e+19 0 0)
(-1.45830174323043e+19 0 0)
(-1.45276097899194e+19 0 0)
(-1.44721160210321e+19 0 0)
(-1.44165335119088e+19 0 0)
(-1.43608596939375e+19 0 0)
(-1.43050921067621e+19 0 0)
(-1.42492281885538e+19 0 0)
(-1.41932655518189e+19 0 0)
(-1.413720181964e+19 0 0)
(-1.40810345496264e+19 0 0)
(-1.40247615861507e+19 0 0)
(-1.39683805366834e+19 0 0)
(-1.3911889292341e+19 0 0)
(-1.38552856433493e+19 0 0)
(-1.3798567518192e+19 0 0)
(-1.37417328065645e+19 0 0)
(-1.36847795750363e+19 0 0)
(-1.36277058174397e+19 0 0)
(-1.35705096297581e+19 0 0)
(-1.3513189193223e+19 0 0)
(-1.34557426926218e+19 0 0)
(-1.33981684106797e+19 0 0)
(-1.33404646426364e+19 0 0)
(-1.32826297663837e+19 0 0)
(-1.32246622262508e+19 0 0)
(-1.31665604809424e+19 0 0)
(-1.31083230822568e+19 0 0)
(-1.3049948644964e+19 0 0)
(-1.29914357996808e+19 0 0)
(-1.29327832957093e+19 0 0)
(-1.28739898518455e+19 0 0)
(-1.28150543859757e+19 0 0)
(-1.27559756705961e+19 0 0)
(-1.26967527582086e+19 0 0)
(-1.26373845540631e+19 0 0)
(-1.257787018297e+19 0 0)
(-1.25182087328681e+19 0 0)
(-1.2458399375813e+19 0 0)
(-1.23984413170939e+19 0 0)
(-1.23383338516257e+19 0 0)
(-1.22780763207707e+19 0 0)
(-1.22176680498081e+19 0 0)
(-1.21571085262649e+19 0 0)
(-1.20963971816274e+19 0 0)
(-1.20355335830828e+19 0 0)
(-1.19745172651728e+19 0 0)
(-1.19133478711067e+19 0 0)
(-1.18520250194471e+19 0 0)
(-1.17905484333242e+19 0 0)
(-1.17289178231325e+19 0 0)
(-1.1667132958119e+19 0 0)
(-1.16051936248495e+19 0 0)
(-1.15430996429798e+19 0 0)
(-1.14808508602091e+19 0 0)
(-1.14184471264074e+19 0 0)
(-1.13558883122324e+19 0 0)
(-1.12931743082632e+19 0 0)
(-1.12303049976819e+19 0 0)
(-1.11672802539036e+19 0 0)
(-1.11040999838392e+19 0 0)
(-1.10407640120972e+19 0 0)
(-1.09772722400757e+19 0 0)
(-1.09136244232107e+19 0 0)
(-1.08498203988674e+19 0 0)
(-1.0785859852588e+19 0 0)
(-1.07217424828837e+19 0 0)
(-1.06574679221024e+19 0 0)
(-1.05930356575694e+19 0 0)
(-1.05284452058519e+19 0 0)
(-1.04636958479698e+19 0 0)
(-1.03987868724138e+19 0 0)
(-1.03337173318018e+19 0 0)
(-1.02684861267701e+19 0 0)
(-1.02030922542046e+19 0 0)
(-1.0137534555504e+19 0 0)
(-1.00718107901789e+19 0 0)
(-1.00059171179672e+19 0 0)
(-9.93985401558453e+18 0 0)
(-9.87363166471481e+18 0 0)
(-9.80724065837043e+18 0 0)
(-9.74060524449772e+18 0 0)
(-9.67371860370312e+18 0 0)
(-9.60696600106998e+18 0 0)
(-9.54052265444429e+18 0 0)
(-9.47227419817227e+18 0 0)
(-9.39955067210957e+18 0 0)
(-9.32693724220464e+18 0 0)
(-9.2577124405016e+18 0 0)
(-9.189173499286e+18 0 0)
(-9.12049587365033e+18 0 0)
(-9.05155078812756e+18 0 0)
(-8.98228566074484e+18 0 0)
(-8.91267867137855e+18 0 0)
(-8.84271534541164e+18 0 0)
(-8.77238198375127e+18 0 0)
(-8.70166390583853e+18 0 0)
(-8.63054494982262e+18 0 0)
(-8.55900713476738e+18 0 0)
(-8.48703043492748e+18 0 0)
(-8.41459254587713e+18 0 0)
(-8.34166871034796e+18 0 0)
(-8.2682313912725e+18 0 0)
(-8.19424999753069e+18 0 0)
(-8.11969062712063e+18 0 0)
(-8.0445156106122e+18 0 0)
(-7.96868318242066e+18 0 0)
(-7.89214696905481e+18 0 0)
(-7.81485550139081e+18 0 0)
(-7.7367516489591e+18 0 0)
(-7.65777192114717e+18 0 0)
(-7.57784578119067e+18 0 0)
(-7.496894794702e+18 0 0)
(-7.41483163864741e+18 0 0)
(-7.33155913856293e+18 0 0)
(-7.24696891581373e+18 0 0)
(-7.16094013573903e+18 0 0)
(-7.07333784813017e+18 0 0)
(-6.98401127196944e+18 0 0)
(-6.89279168127435e+18 0 0)
(-6.79949041225905e+18 0 0)
(-6.70389499981935e+18 0 0)
(-6.6057701939898e+18 0 0)
(-6.50484315817142e+18 0 0)
(-6.40082930471377e+18 0 0)
(-6.29335672720091e+18 0 0)
(-6.18211930088669e+18 0 0)
(-6.06654374357552e+18 0 0)
(-5.94642838043807e+18 0 0)
(-5.82070316707401e+18 0 0)
(-5.68974290485091e+18 0 0)
(-5.55105672944733e+18 0 0)
(-5.40704958689522e+18 0 0)
(-5.25139937996256e+18 0 0)
(-5.09204960090731e+18 0 0)
(-4.91261338752385e+18 0 0)
(-4.73479342940855e+18 0 0)
(-4.51277800589073e+18 0 0)
(-4.28254427275277e+18 0 0)
(-3.91510429501961e+18 0 0)
(-3.06237370241489e+18 0 0)
(-2.29321617308123e+18 0 0)
(-2.14365160518189e+18 0 0)
(-2.06160798977989e+18 0 0)
(-1.74164679155358e+18 0 0)
(-1.10693166894757e+18 0 0)
(-4.31815889033101e+17 0 0)
(1.89817781888221e+17 0 0)
(5.90930595485319e+17 0 0)
(8.92056029762683e+16 0 0)
(-5.05298056283947e+17 0 0)
(-3.81979643189658e+16 0 0)
(-2.02649253854577e+17 0 0)
(-1.80395667795372e+18 0 0)
(-2.26654793192545e+18 0 0)
(-2.51531959363489e+18 0 0)
(-4.06291972651745e+18 0 0)
(-4.21617774783418e+18 0 0)
(-3.7261389716154e+18 0 0)
(-4.11709105974542e+18 0 0)
(-2.63909195859991e+18 0 0)
(-7.09968479944442e+17 0 0)
(1.42276542603146e+18 0 0)
(4.53990755124537e+18 0 0)
(7.65598526810725e+18 0 0)
(1.02063736348171e+19 0 0)
(1.23791740503269e+19 0 0)
(1.38976094803549e+19 0 0)
(1.38756359551454e+19 0 0)
(1.46530098509489e+19 0 0)
(1.15596657469445e+19 0 0)
(1.0389873756565e+19 0 0)
(8.01473463066657e+18 0 0)
(6.26093944248933e+18 0 0)
(7.6756642025682e+18 0 0)
(-4.5890726842447e+18 0 0)
(2.48408597701422e+18 0 0)
(-9.64866805168775e+17 0 0)
(-2.12095404653959e+18 0 0)
(-2.03024428525172e+18 0 0)
(-2.01297223952155e+18 0 0)
(-2.182983940577e+18 0 0)
(-2.48525881605598e+18 0 0)
(-2.74514831525933e+18 0 0)
(-2.89819868140116e+18 0 0)
(-2.96725824904202e+18 0 0)
(-2.98487150959085e+18 0 0)
(-2.97474347844951e+18 0 0)
(-2.94998297392579e+18 0 0)
(-2.91567919445367e+18 0 0)
(-2.88120506241956e+18 0 0)
(-2.84061154605247e+18 0 0)
(-2.79601441079856e+18 0 0)
(-2.74993580542094e+18 0 0)
(-2.70376568204602e+18 0 0)
(-2.65799287949432e+18 0 0)
(-2.61093014366898e+18 0 0)
(-2.56405347892559e+18 0 0)
(-2.51700250630471e+18 0 0)
(-2.46954581410584e+18 0 0)
(-2.42208082940024e+18 0 0)
(-2.37467881070632e+18 0 0)
(-2.32746720461024e+18 0 0)
(-2.28053859932179e+18 0 0)
(-2.23397940169323e+18 0 0)
(-2.18786761097792e+18 0 0)
(-2.14227419611148e+18 0 0)
(-2.0972632523807e+18 0 0)
(-2.0528918729734e+18 0 0)
(-2.00921029262324e+18 0 0)
(-1.96626244874751e+18 0 0)
(-1.92408042689863e+18 0 0)
(-1.88269786235895e+18 0 0)
(-1.84202562832405e+18 0 0)
(-1.80250111153548e+18 0 0)
(-1.7636639765164e+18 0 0)
(-1.72572940404188e+18 0 0)
(-1.68866616643317e+18 0 0)
(-1.65248734649577e+18 0 0)
(-1.61719637055657e+18 0 0)
(-1.58278993137555e+18 0 0)
(-1.54926143932896e+18 0 0)
(-1.51660136713784e+18 0 0)
(-1.4847979828606e+18 0 0)
(-1.45383749141304e+18 0 0)
(-1.42370466531287e+18 0 0)
(-1.3943829097188e+18 0 0)
(-1.36585705322871e+18 0 0)
(-1.33810551722043e+18 0 0)
(-1.3111369778369e+18 0 0)
(-1.28482490599602e+18 0 0)
(-1.25929601818753e+18 0 0)
(-1.23449747625703e+18 0 0)
(-1.21029404634011e+18 0 0)
(-1.18677366209841e+18 0 0)
(-1.16387933544121e+18 0 0)
(-1.14159678195413e+18 0 0)
(-1.11990491446894e+18 0 0)
(-1.09878590944773e+18 0 0)
(-1.0782244460423e+18 0 0)
(-1.05819910845381e+18 0 0)
(-1.03869075589886e+18 0 0)
(-1.01968367152453e+18 0 0)
(-1.00116245520056e+18 0 0)
(-9.83101763399002e+17 0 0)
(-9.65507407201539e+17 0 0)
(-9.48193801077277e+17 0 0)
(-9.31610718534876e+17 0 0)
(-9.15279767860826e+17 0 0)
(-8.99356350138418e+17 0 0)
(-8.83808455856798e+17 0 0)
(-8.68634310600655e+17 0 0)
(-8.53821227716898e+17 0 0)
(-8.39358723496293e+17 0 0)
(-8.25235268613649e+17 0 0)
(-8.11441148848989e+17 0 0)
(-7.9795676880534e+17 0 0)
(-7.8478617598946e+17 0 0)
(-7.71743401882144e+17 0 0)
(-7.59252670700813e+17 0 0)
(-7.47162519521206e+17 0 0)
(-7.35222193240606e+17 0 0)
(-7.23545793966329e+17 0 0)
(-7.1216308414333e+17 0 0)
(-7.00618798252298e+17 0 0)
(-6.90307772073449e+17 0 0)
(-6.79840108064914e+17 0 0)
(-6.69353540648642e+17 0 0)
(-6.59608730138499e+17 0 0)
(-6.50257696759796e+17 0 0)
(-6.40979056928728e+17 0 0)
(-6.32777691471529e+17 0 0)
(-6.25498469908714e+17 0 0)
(-6.19091763178752e+17 0 0)
(-6.08096340610801e+17 0 0)
)
;

boundaryField
{
    electrode
    {
        type            calculated;
        value           uniform (-1.60323747280217e+19 0 0);
    }
    ground
    {
        type            calculated;
        value           uniform (-6.05437625655548e+17 0 0);
    }
    otherfaces
    {
        type            empty;
    }
}


// ************************************************************************* //
