/*--------------------------------*- C++ -*----------------------------------*\
| =========                 |                                                 |
| \\      /  F ield         | foam-extend: Open Source CFD                    |
|  \\    /   O peration     | Version:     4.0                                |
|   \\  /    A nd           | Web:         http://www.foam-extend.org         |
|    \\/     M anipulation  |                                                 |
\*---------------------------------------------------------------------------*/
FoamFile
{
    version     2.0;
    format      ascii;
    class       volScalarField;
    location    "8.9e-06";
    object      Phi;
}
// * * * * * * * * * * * * * * * * * * * * * * * * * * * * * * * * * * * * * //

dimensions      [0 0 0 1 0 0 0];

internalField   nonuniform List<scalar> 
300
(
699.999929750019
699.999706765738
699.999185020616
699.998396862933
699.997350623459
699.996040894917
699.994468542674
699.99263314298
699.990534133598
699.988171028775
699.985543247223
699.982650156451
699.979491070685
699.976065247517
699.972371888802
699.968410140094
699.964179090224
699.959677770901
699.954905156263
699.949860162403
699.944541646866
699.938948408121
699.933079185002
699.926932656119
699.920507439241
699.913802090647
699.906815104439
699.899544911836
699.891989880421
699.884148313357
699.876018448573
699.867598457905
699.858886446204
699.849880450404
699.840578438552
699.830978308789
699.821077888294
699.810874932186
699.80036712237
699.789552066346
699.778427295962
699.766990266116
699.75523835341
699.743168854744
699.730778985853
699.718065879786
699.705026585325
699.691658065336
699.677957195057
699.663920760311
699.649545455655
699.634827882447
699.619764546837
699.604351857674
699.588586124335
699.572463554453
699.555980251565
699.539132212653
699.521915325591
699.504325366481
699.486357996881
699.468008760918
699.449273082278
699.430146261071
699.410623470562
699.390699753766
699.370370019894
699.349629040648
699.328471446355
699.306891721938
699.284884202702
699.262443069945
699.239562346364
699.216235891269
699.192457395571
699.168220376549
699.143518172381
699.118343936423
699.09269063122
699.06655102225
699.03991767136
699.012782929909
698.985138931573
698.956977584812
698.928290564969
698.899069305989
698.869304991726
698.838988546827
698.808110627153
698.776661609723
698.744631582144
698.712010331497
698.678787332655
698.644951735981
698.61049235438
698.575397649665
698.539655718181
698.503254275656
698.466180641216
698.428421720504
698.38996398786
698.35079346751
698.31089571369
698.270255789521
698.228858244447
698.186687090867
698.14372578069
698.099957178337
698.055363523499
698.009926398979
697.963626747765
697.916444876335
697.868360193101
697.819350866069
697.769394111079
697.718466261349
697.666542716185
697.613597889155
697.559605153408
697.504536782561
697.448363887267
697.391056347135
697.33258273759
697.272910251225
697.212004613139
697.149829989691
697.086348890046
697.021522059822
696.955308366058
696.887664672624
696.818545705126
696.747903904204
696.675689266007
696.60184916848
696.526328181921
696.449067862051
696.370006523655
696.289078992533
696.206216333255
696.121345549803
696.034389255843
695.945265310844
695.853886417733
695.760159677143
695.663986092542
695.565260019654
695.463868552557
695.359690837602
695.25259730477
695.14244880485
695.029095636914
694.912376453887
694.792117015213
694.668128791603
694.540207332168
694.408130493
694.27165622277
694.130520386064
693.9844335436
693.833078573598
693.676105453721
693.5131295473
693.343721955136
693.167411350601
692.983662762352
692.791891991816
692.591395330903
692.381237131094
692.160342366764
691.927570588357
691.681639810491
691.421073963766
691.144079469994
690.848564880337
690.532017634272
690.191591292111
689.824333604235
689.426912541823
688.995177699911
688.5247760867
688.011333038014
687.449537634569
686.833883985094
686.159133746658
685.41917576808
684.608296641766
683.721064082126
682.751773153192
681.695442515226
680.547944857965
679.305048857898
677.963523189817
676.521260135263
674.976533568111
673.327806186354
671.57478853287
669.717670328674
667.756950617804
665.69285751497
663.525906578808
661.256490064845
658.885444286353
656.412737100983
653.837509484524
651.159017717371
648.376917448834
645.491356857135
642.502906518396
639.412464974484
636.221017174059
632.92956218192
629.539040008646
626.050324508531
622.464189291945
618.781597065743
615.003638796516
611.131323408381
607.165558553227
603.107181889444
598.9569404924
594.715523738274
590.38353933563
585.961548593872
581.450039660448
576.849463639332
572.160204754233
567.382896377997
562.518154192588
557.566578152975
552.528702657951
547.405053362573
542.196095188327
536.902290007547
531.524042704853
526.061759989463
520.515794304726
514.886504190585
509.174195935871
503.379185470675
497.501737978231
491.542131270901
485.500593391448
479.377434106402
473.173064179718
466.887908790258
460.522346403255
454.076772282882
447.551535802828
440.947005213573
434.263503452243
427.501374129495
420.660915920783
413.742449902373
406.746252340635
399.672623560779
392.521819059789
385.294119841146
377.989761906507
370.609008041328
363.15207577798
355.619210610129
348.010612470114
340.326510349299
332.567087372769
324.732556833485
316.823085780375
308.839014379414
300.780619920631
292.648238637174
284.442131356411
276.162620608142
267.809951592981
259.384433962085
250.88629804519
242.315841329317
233.673279964463
224.958899936737
216.172903873045
207.315566912137
198.387078768309
189.387704379649
180.317621137547
171.177084404908
161.966259784388
152.685393605
143.334640284812
133.914237757939
124.424329844844
114.865146356755
105.236821039642
95.5395757487052
85.7735345557795
75.9389120747831
66.0358233286726
56.0644760644275
46.0249767345687
35.9175271525696
25.7422258788436
15.4992710406094
5.18880398898933
)
;

boundaryField
{
    electrode
    {
        type            fixedValue;
        value           uniform 700;
    }
    ground
    {
        type            fixedValue;
        value           uniform 0;
    }
    otherfaces
    {
        type            empty;
    }
}


// ************************************************************************* //
