/*--------------------------------*- C++ -*----------------------------------*\
| =========                 |                                                 |
| \\      /  F ield         | foam-extend: Open Source CFD                    |
|  \\    /   O peration     | Version:     4.0                                |
|   \\  /    A nd           | Web:         http://www.foam-extend.org         |
|    \\/     M anipulation  |                                                 |
\*---------------------------------------------------------------------------*/
FoamFile
{
    version     2.0;
    format      ascii;
    class       volScalarField;
    location    "8.9e-06";
    object      PhiMean;
}
// * * * * * * * * * * * * * * * * * * * * * * * * * * * * * * * * * * * * * //

dimensions      [0 0 0 1 0 0 0];

internalField   nonuniform List<scalar> 
300
(
699.991700219973
699.990796284619
699.989614992379
699.988182573552
699.986508069092
699.984585175278
699.982413798529
699.979993045389
699.977321987963
699.974399909298
699.971226130471
699.967800044977
699.964121096977
699.960188773607
699.956002598661
699.951562125247
699.946866930192
699.941916609996
699.936710775889
699.93124904921
699.925531057995
699.919556433355
699.913324806254
699.906835804063
699.900089046857
699.893084150511
699.885820719551
699.878298343747
699.870516597114
699.862475032069
699.854173175023
699.845610533317
699.836786589621
699.827700791739
699.818352549778
699.808741232896
699.7988661657
699.788726626005
699.778321841132
699.767650983519
699.756713168267
699.745507450909
699.73403282203
699.722288204278
699.710272449038
699.69798433325
699.685422556095
699.672585736356
699.659472409628
699.646081027774
699.632409957329
699.618457484741
699.604221809026
699.589701041161
699.574893192004
699.559796166678
699.544407755576
699.52872562956
699.512747335624
699.496470291906
699.479891783278
699.463008956732
699.445818815984
699.428318216013
699.410503870995
699.392372348345
699.37392005043
699.355143209614
699.336037883005
699.316599946621
699.296825089349
699.276708806138
699.256246399273
699.235432974383
699.214263424489
699.192732428738
699.170834453971
699.148563743153
699.125914306391
699.102879900428
699.079454039737
699.055629968889
699.031400651544
699.006758762865
698.981696676731
698.9562064658
698.930279887029
698.90390836217
698.877082964948
698.849794414424
698.822033058617
698.793788859439
698.765051401984
698.735809854225
698.706052948962
698.67576896828
698.644945724794
698.613570544171
698.581630243273
698.549111112359
698.515998894649
698.482278760185
698.447935278428
698.412952410555
698.377313466644
698.341001078661
698.303997175812
698.266282943347
698.227838799531
698.188644352108
698.148678355314
698.107918669803
698.06634221715
698.023924942114
697.980641767374
697.936466534455
697.891371961804
697.84532958946
697.798309701221
697.75028125141
697.701211790135
697.651067397984
697.599812590867
697.547410246328
697.493821493364
697.439005591004
697.382919810207
697.325519319275
697.266757032917
697.20658346513
697.144946566894
697.081791552164
697.01706070221
696.950693150238
696.882624653961
696.812787370048
696.741109554554
696.667515248389
696.591923924517
696.514250125131
696.434403034157
696.352286010173
696.26779607078
696.18082331256
696.091250280844
695.998951268753
695.903791484268
695.805626135831
695.704299385501
695.599643169468
695.491475906011
695.379600955531
695.263804879481
695.143855475375
695.01949946001
694.890459785204
694.756432649073
694.617083771189
694.472044456788
694.320906100227
694.163215190371
693.998462978886
693.826064849365
693.645347722056
693.455536364318
693.25573420096
693.044880380279
692.821728725254
692.584852284186
692.332592731966
692.063002531685
691.773804105301
691.462364318688
691.125627884731
690.760094061148
690.361918605405
689.92681790337
689.449955408924
688.926185670039
688.350072717789
687.715830727452
687.01757975987
686.249550972149
685.405958517687
684.481440352567
683.471173473649
682.370730423649
681.176414108762
679.885421615459
678.49547050971
677.004893196817
675.412845854625
673.7190277038
671.923521154078
670.026600991331
668.028867124099
665.930840451406
663.73294503027
661.43551790966
659.038901953401
656.543425229964
653.949308472234
651.256472910432
648.46495937705
645.574999083649
642.587139804422
639.502124011903
636.320830620535
633.044187946761
629.673091500144
626.208395691304
622.650876803785
619.001308764229
615.260516271646
611.429432620662
607.508941252799
603.499870491644
599.402964658716
595.218924116556
590.948374110288
586.591905965646
582.150043399058
577.623285157826
573.012069305423
568.316817357138
563.537961100933
558.676115291704
553.731842415669
548.705700196733
543.598189508895
538.40981225091
533.141016312062
527.79225621611
522.363936251591
516.856471935852
511.270229095019
505.605588314522
499.862881324886
494.042457947276
488.144619735796
482.169689479966
476.117942366216
469.989697231137
463.785352543657
457.505359156565
451.15011619918
444.720049678175
438.215533625538
431.636971443054
424.98471405656
418.259144175506
411.460591272099
404.589419002662
397.645936762347
390.630490557318
383.543370898788
376.384907320577
369.155372500405
361.855080499448
354.484287090493
347.043291712598
339.532334072944
331.951699765424
324.301613071832
316.582346456066
308.794111727457
300.937205499153
293.011892249114
285.018518748768
276.957380200456
268.828834375088
260.633162429005
252.370710358282
244.041745162011
235.646601772251
227.185533611208
218.658865203082
210.066836956745
201.409763588219
192.687873024156
183.901470726068
175.050772595697
166.136075372666
157.157583362869
148.115585170571
139.010274031264
129.841930997938
120.610738614596
111.316970834814
101.960799846596
92.5424928988137
83.0622123045048
73.5202193393509
63.9166668999635
54.2518106133847
44.5257945918508
34.7388697262731
24.8911719039705
14.9829484661593
5.01433246312092
)
;

boundaryField
{
    electrode
    {
        type            calculated;
        value           uniform 699.999999999418;
    }
    ground
    {
        type            calculated;
        value           uniform 0;
    }
    otherfaces
    {
        type            empty;
    }
}


// ************************************************************************* //
