/*--------------------------------*- C++ -*----------------------------------*\
| =========                 |                                                 |
| \\      /  F ield         | foam-extend: Open Source CFD                    |
|  \\    /   O peration     | Version:     4.0                                |
|   \\  /    A nd           | Web:         http://www.foam-extend.org         |
|    \\/     M anipulation  |                                                 |
\*---------------------------------------------------------------------------*/
FoamFile
{
    version     2.0;
    format      ascii;
    class       volScalarField;
    location    "8.9e-06";
    object      Sy_electron;
}
// * * * * * * * * * * * * * * * * * * * * * * * * * * * * * * * * * * * * * //

dimensions      [1 -3 -1 0 0 0 0];

internalField   nonuniform List<scalar> 
300
(
3.11952127729644e-09
3.12019105100472e-09
3.12042495018651e-09
3.12032210291445e-09
3.1202281888092e-09
3.12007482827584e-09
3.11987009565197e-09
3.11961882281145e-09
3.11931873393077e-09
3.11896995425072e-09
3.11857221172674e-09
3.11812513799246e-09
3.11762840712318e-09
3.1170816641996e-09
3.11648454020299e-09
3.11583665261874e-09
3.11513760389026e-09
3.11438698181578e-09
3.11358435939942e-09
3.11272929473013e-09
3.11182133090125e-09
3.11085999590802e-09
3.1098448025488e-09
3.10877524832665e-09
3.10765081531436e-09
3.10647097012145e-09
3.10523516372133e-09
3.10394283136129e-09
3.10259339246431e-09
3.10118625048609e-09
3.0997207927813e-09
3.09819639054778e-09
3.0966123986816e-09
3.09496815561802e-09
3.09326298321263e-09
3.09149618662212e-09
3.08966705415045e-09
3.08777485712986e-09
3.08581884977379e-09
3.08379826900935e-09
3.08171233434267e-09
3.07956024770309e-09
3.07734119327489e-09
3.07505433733422e-09
3.07269882808225e-09
3.07027379546364e-09
3.06777835098339e-09
3.06521158752684e-09
3.06257257915043e-09
3.05986038090643e-09
3.05707402860557e-09
3.05421253866782e-09
3.05127490782871e-09
3.04826011297814e-09
3.04516711086972e-09
3.04199483790424e-09
3.03874220984567e-09
3.03540812157083e-09
3.03199144680022e-09
3.02849103781236e-09
3.02490572515318e-09
3.02123431733044e-09
3.01747560048011e-09
3.01362833802182e-09
3.00969127038172e-09
3.00566311462562e-09
3.00154256401424e-09
2.99732828765213e-09
2.99301893008851e-09
2.98861311089428e-09
2.98410942420964e-09
2.97950643829278e-09
2.97480269505361e-09
2.96999670955756e-09
2.96508696946796e-09
2.96007193454669e-09
2.9549500360739e-09
2.94971967623301e-09
2.94437922754566e-09
2.93892703210009e-09
2.9333614010535e-09
2.92768061377919e-09
2.92188291715531e-09
2.91596652480835e-09
2.90992961626668e-09
2.90377033616617e-09
2.89748679332606e-09
2.89107705979214e-09
2.88453916985542e-09
2.87787111906592e-09
2.87107086310415e-09
2.86413631660995e-09
2.85706535220056e-09
2.84985579899737e-09
2.84250544138076e-09
2.83501201762279e-09
2.82737321842707e-09
2.8195866854157e-09
2.81165000952258e-09
2.8035607292906e-09
2.7953163290421e-09
2.78691423714161e-09
2.77835182436458e-09
2.76962640138373e-09
2.76073521397863e-09
2.75167544245737e-09
2.74244421388814e-09
2.73303859838463e-09
2.7234555262318e-09
2.71369175537831e-09
2.70374430719787e-09
2.69361094891753e-09
2.68463249689885e-09
2.67633252503894e-09
2.66785520965635e-09
2.65919638178517e-09
2.6503519491406e-09
2.64131773686287e-09
2.63208946059784e-09
2.62266271245744e-09
2.61303295245374e-09
2.60319550121792e-09
2.59314553250365e-09
2.58287806553569e-09
2.57238795674472e-09
2.56166989099635e-09
2.55071837223333e-09
2.53952771359939e-09
2.52809202669173e-09
2.51640521019738e-09
2.50446093765015e-09
2.49225264439087e-09
2.47977351350918e-09
2.46701646075644e-09
2.45397411838756e-09
2.44063881783742e-09
2.42700257091797e-09
2.41305704964455e-09
2.39879356454701e-09
2.3842030412658e-09
2.36927599518853e-09
2.35400250415115e-09
2.33837217887932e-09
2.32237413104211e-09
2.30599693867675e-09
2.28922860869551e-09
2.27205653637584e-09
2.25446746081389e-09
2.23644741858893e-09
2.21798168838551e-09
2.19905474272557e-09
2.17965017054817e-09
2.15975064220853e-09
2.13933777887578e-09
2.11839218426695e-09
2.09689315410567e-09
2.07481896072642e-09
2.0521460990963e-09
2.02885028186204e-09
2.00490457035063e-09
1.98028230447901e-09
1.9549525871355e-09
1.92888950264474e-09
1.90206762936593e-09
1.87448962329781e-09
1.84708662580865e-09
1.82037937553302e-09
1.7928573653629e-09
1.76413239952986e-09
1.73414817050704e-09
1.70301442227338e-09
1.67076520072309e-09
1.63726494120331e-09
1.60224167545943e-09
1.56500249007763e-09
1.52486952600636e-09
1.48216260985873e-09
1.43704330666557e-09
1.38834857672873e-09
1.33584914714788e-09
1.27785181528035e-09
1.21559964357325e-09
1.15061324823073e-09
1.0849233062952e-09
1.019399261164e-09
9.55985484293231e-10
8.95879132192996e-10
8.38080358188748e-10
7.93333968118087e-10
7.62415663795138e-10
7.42643715337747e-10
7.4261112063248e-10
7.66744696925326e-10
8.17987465850118e-10
9.09011827355814e-10
1.06417208163053e-09
1.29916692857241e-09
1.69467785939436e-09
2.35785518802182e-09
3.53084282107922e-09
4.8841131001737e-09
6.05784693783272e-09
7.25463524801886e-09
7.30272913383924e-09
6.41323263846145e-09
5.11517592706189e-09
3.86491912060277e-09
2.91086490287793e-09
2.26892020245385e-09
1.86366467274545e-09
1.615291018905e-09
1.46554416594292e-09
1.37336429463287e-09
1.32200567302634e-09
1.29702089740673e-09
1.28278960797714e-09
1.27926369491784e-09
1.28182791563404e-09
1.28735557725442e-09
1.29418512732682e-09
1.30094799822069e-09
1.30531943980567e-09
1.30762872761275e-09
1.30817569232125e-09
1.3066815397119e-09
1.30302217150091e-09
1.29716455839949e-09
1.2891416486283e-09
1.27903196533892e-09
1.26694666988862e-09
1.25301971850454e-09
1.23740031357103e-09
1.22024695555296e-09
1.20172273690262e-09
1.18199160884666e-09
1.16121540379218e-09
1.13955149121952e-09
1.11715038063712e-09
1.09415358528153e-09
1.07067929911102e-09
1.04684196918918e-09
1.02276379799895e-09
9.98557651063695e-10
9.74328285086928e-10
9.50170452565771e-10
9.26168652913851e-10
9.02397437995624e-10
8.78921876523602e-10
8.55798098684698e-10
8.33073883141124e-10
8.10789267765678e-10
7.88977185081555e-10
7.67551818229959e-10
7.46659053713414e-10
7.26330999611526e-10
7.06579627096734e-10
6.87409188833489e-10
6.68815853963228e-10
6.50798608380777e-10
6.3335535836726e-10
6.16478937444384e-10
6.00160242820614e-10
5.84305760357171e-10
5.68920657555563e-10
5.54037716836724e-10
5.39644455549377e-10
5.25728225531879e-10
5.12276074325108e-10
4.99274623121377e-10
4.8671025873198e-10
4.74568479429227e-10
4.62834813967291e-10
4.51479371213606e-10
4.40473633361747e-10
4.29806087726028e-10
4.19466319842174e-10
4.09445396456909e-10
3.99734967498337e-10
3.90327356707852e-10
3.81215597069225e-10
3.72393487051256e-10
3.63855714974696e-10
3.5559700749177e-10
3.47217149683567e-10
3.38809848399433e-10
3.30604479112621e-10
3.22592791475085e-10
3.14790057489978e-10
3.07213185920495e-10
2.99807672059407e-10
2.91375202331963e-10
2.83110459434743e-10
2.75067935172917e-10
2.66516759235481e-10
2.56750754576884e-10
2.47306642035931e-10
2.3498516911595e-10
2.21475793690177e-10
2.042759779298e-10
1.79466260006543e-10
)
;

boundaryField
{
    electrode
    {
        type            zeroGradient;
    }
    ground
    {
        type            zeroGradient;
    }
    otherfaces
    {
        type            empty;
    }
}


// ************************************************************************* //
