/*--------------------------------*- C++ -*----------------------------------*\
| =========                 |                                                 |
| \\      /  F ield         | foam-extend: Open Source CFD                    |
|  \\    /   O peration     | Version:     4.0                                |
|   \\  /    A nd           | Web:         http://www.foam-extend.org         |
|    \\/     M anipulation  |                                                 |
\*---------------------------------------------------------------------------*/
FoamFile
{
    version     2.0;
    format      ascii;
    class       volScalarField;
    location    "8.9e-06";
    object      TeMean;
}
// * * * * * * * * * * * * * * * * * * * * * * * * * * * * * * * * * * * * * //

dimensions      [0 0 0 1 0 0 0];

internalField   nonuniform List<scalar> 
300
(
36629.5831492139
36629.874872095
36630.0155954927
36630.0422780822
36630.0991233539
36630.1641991707
36630.2404999872
36630.3305570603
36630.4341878121
36630.5519067402
36630.684123294
36630.8312161376
36630.9935661252
36631.1715311231
36631.3654598977
36631.5756911386
36631.8025523579
36632.0463633695
36632.3074359668
36632.5860737939
36632.8825743588
36633.1972275361
36633.5303172978
36633.8821212119
36634.2529101619
36634.6429562812
36635.052527722
36635.4818867774
36635.9312960805
36636.4010102812
36636.8912751418
36637.4023451918
36637.9344820129
36638.4879401582
36639.0629712278
36639.6598210217
36640.2787353407
36640.9199664039
36641.5837666218
36642.2703854089
36642.9800706486
36643.7130769007
36644.4696595939
36645.2500730711
36646.0545731787
36646.8834171415
36647.7368633012
36648.6151705213
36649.5185959545
36650.4473950495
36651.4018217869
36652.3821393306
36653.3886260794
36654.4215625924
36655.4812351414
36656.5679401099
36657.6819727308
36658.8236286268
36659.9932132505
36661.1910374771
36662.4174166122
36663.6726770491
36664.9571390032
36666.2711240142
36667.6149804835
36668.98907316
36670.3937699815
36671.8294436833
36673.29647466
36674.7952546981
36676.3261813829
36677.8896520391
36679.4860826243
36681.1159052733
36682.7795531726
36684.4774626262
36686.2100933768
36687.9779343252
36689.7814762634
36691.6212165202
36693.4976839794
36695.411424822
36697.3629871723
36699.3529268705
36701.3818149228
36703.4502542256
36705.5588767628
36707.7083241824
36709.8992500251
36712.1323342972
36714.4082681634
36716.7277628381
36719.0915849657
36721.500513321
36723.9553423999
36726.4569078255
36729.006066255
36731.603703826
36734.2507332203
36736.9481008752
36739.6967988326
36742.4978332886
36745.3522444437
36748.2611351001
36751.2256440022
36754.2469465091
36757.3262582656
36760.464842363
36763.6640195362
36766.925160043
36770.2496880735
36773.6390797425
36777.0948597645
36780.6186297711
36784.2120527005
36787.876852361
36791.6148221754
36795.4278477783
36799.3179114098
36803.2870522164
36807.3373949178
36811.4711690648
36815.6907014965
36819.9984392071
36824.3969606868
36828.8889537042
36833.4772174308
36838.1647028148
36842.9545190989
36847.8499157368
36852.8543069378
36857.9713004916
36863.20470644
36868.5585113146
36874.0369167685
36879.6444134329
36885.385766929
36891.2660157417
36897.290505524
36903.4649238567
36909.7953300235
36916.288180857
36922.9503657016
36929.7892416783
36936.8127102831
36944.0292943098
36951.4481815679
36959.0792998014
36966.9333476189
36975.0219162177
36983.3576661521
36991.9543870575
37000.8271496067
37009.9925522987
37019.4688175796
37029.2761056619
37039.4367689443
37049.9759398215
37060.9221273748
37072.3090045322
37084.1837434317
37096.6056349245
37109.6328543033
37123.3246055548
37137.7607432068
37153.0397361921
37169.2342513615
37186.4056058026
37204.6687765192
37224.1706451851
37245.0334817925
37267.3670401803
37291.2970963991
37316.8714590261
37344.0999555097
37373.2135294912
37404.4886647233
37438.0785771258
37474.4965337744
37514.7451625999
37560.1648918025
37613.0894205046
37677.3661634933
37758.5120003285
37865.020470021
38009.719746395
38210.9578982465
38495.8413935664
38904.8960382883
39498.6159726141
40369.2691404313
41661.682629614
43608.1630278027
46648.8715699422
51234.7912481965
57691.2155320552
67058.9044181062
79890.5863669394
97198.7147520995
119352.646080128
146422.952542517
178269.150536619
214477.032287885
254383.355326609
297943.114657149
345053.391704677
395079.325512264
446480.111900364
497116.230627784
544997.916763103
588811.090592843
628011.96663801
662624.58968974
693018.105299347
719701.821638492
743179.490750338
763957.088145463
782495.13433611
799166.885276029
814274.389231862
828056.218593596
840711.380372683
852415.935579785
863314.172836309
873525.800980431
883148.287242221
892261.931105345
900932.783995875
909215.028158353
917153.001073521
924782.742342821
932133.249587697
939227.494707728
946083.202322004
952713.568319436
959127.873023544
965331.935346218
971328.489820276
977117.881864439
982697.528550308
988062.075478218
993204.794053984
998117.506458764
1002790.63774572
1007213.26898769
1011373.23108961
1015257.07258148
1018850.34867935
1022137.83055575
1025103.3414646
1027730.34371291
1030001.84835396
1031900.12966012
1033407.00274674
1034503.53456607
1035170.62547247
1035382.7339332
1035132.47504261
1034397.03432342
1033154.53817966
1031384.45560961
1029066.25207717
1026179.25505251
1022702.54117865
1018614.89665029
1013895.07050086
1008521.24580424
1002471.10539929
995722.45174507
988252.582111525
980038.394001226
971055.992406268
961279.934091097
950684.753064203
939244.294933148
926930.164512377
913712.54586967
899559.923590679
884438.951105871
868314.175773316
851147.862355113
832899.841317611
813529.921673514
792994.8016768
771240.832074591
748211.565087196
723845.723688035
698068.27785138
670800.729057354
641957.858251692
611431.261776961
579095.853073008
544815.533103807
508406.227852512
469644.149330441
428248.876915718
383827.546885574
335834.804643579
283476.10152486
225704.937963786
)
;

boundaryField
{
    electrode
    {
        type            calculated;
        value           uniform 36629.5831492153;
    }
    ground
    {
        type            calculated;
        value           uniform 192943.902749316;
    }
    otherfaces
    {
        type            empty;
    }
}


// ************************************************************************* //
