/*--------------------------------*- C++ -*----------------------------------*\
| =========                 |                                                 |
| \\      /  F ield         | foam-extend: Open Source CFD                    |
|  \\    /   O peration     | Version:     4.0                                |
|   \\  /    A nd           | Web:         http://www.foam-extend.org         |
|    \\/     M anipulation  |                                                 |
\*---------------------------------------------------------------------------*/
FoamFile
{
    version     2.0;
    format      ascii;
    class       volScalarField;
    location    "7e-06";
    object      Ar;
}
// * * * * * * * * * * * * * * * * * * * * * * * * * * * * * * * * * * * * * //

dimensions      [0 0 0 1 0 0 0];

internalField   nonuniform List<scalar> 
300
(
3.21880238935657e+22
3.21880238507353e+22
3.21880238795209e+22
3.21880238908359e+22
3.21880239102542e+22
3.21880239372102e+22
3.21880239700592e+22
3.21880240094486e+22
3.21880240552562e+22
3.21880241074493e+22
3.21880241660328e+22
3.21880242309952e+22
3.21880243023316e+22
3.21880243800388e+22
3.2188024464115e+22
3.21880245545599e+22
3.2188024651377e+22
3.21880247545668e+22
3.21880248641304e+22
3.21880249800711e+22
3.21880251023929e+22
3.21880252311006e+22
3.21880253661995e+22
3.21880255076958e+22
3.21880256556119e+22
3.21880258099426e+22
3.21880259706968e+22
3.21880261378858e+22
3.21880263115096e+22
3.21880264915772e+22
3.21880266781168e+22
3.2188026871132e+22
3.21880270706198e+22
3.21880272765905e+22
3.2188027489055e+22
3.21880277080251e+22
3.21880279335173e+22
3.21880281655425e+22
3.2188028404111e+22
3.21880286492376e+22
3.21880289009369e+22
3.21880291592225e+22
3.21880294241097e+22
3.21880296956143e+22
3.21880299737526e+22
3.21880302585417e+22
3.2188030550001e+22
3.21880308481501e+22
3.2188031153018e+22
3.21880314646277e+22
3.21880317830136e+22
3.21880321081854e+22
3.2188032440171e+22
3.21880327789755e+22
3.21880331246138e+22
3.21880334770929e+22
3.21880338364331e+22
3.21880342026553e+22
3.2188034575781e+22
3.21880349558341e+22
3.21880353428349e+22
3.21880357368059e+22
3.21880361377755e+22
3.21880365457866e+22
3.21880369608606e+22
3.21880373829973e+22
3.21880378122202e+22
3.2188038248553e+22
3.21880386920201e+22
3.21880391426458e+22
3.2188039600457e+22
3.21880400654868e+22
3.21880405377627e+22
3.21880410173035e+22
3.21880415041487e+22
3.21880419983232e+22
3.21880424998468e+22
3.21880430087496e+22
3.21880435250377e+22
3.21880440487673e+22
3.21880445799295e+22
3.21880451185472e+22
3.21880456646492e+22
3.21880462182626e+22
3.21880467794316e+22
3.21880473481614e+22
3.21880479244379e+22
3.21880485083254e+22
3.21880490998683e+22
3.21880496990878e+22
3.21880503060206e+22
3.21880509207423e+22
3.21880515432279e+22
3.21880521735055e+22
3.21880528116043e+22
3.21880534575531e+22
3.21880541113804e+22
3.21880547731145e+22
3.21880554427934e+22
3.21880561204441e+22
3.21880568060866e+22
3.21880574997452e+22
3.21880582014769e+22
3.21880589112772e+22
3.21880596291795e+22
3.21880603552166e+22
3.21880610893965e+22
3.21880618317615e+22
3.21880625823231e+22
3.21880633410972e+22
3.21880641081067e+22
3.21880648833742e+22
3.21880656669272e+22
3.21880664587873e+22
3.21880672589754e+22
3.21880680675275e+22
3.21880688844802e+22
3.21880697098259e+22
3.21880705435804e+22
3.21880713857682e+22
3.21880722364313e+22
3.2188073095572e+22
3.21880739632343e+22
3.21880748394221e+22
3.2188075724138e+22
3.21880766173978e+22
3.21880775192427e+22
3.21880784296682e+22
3.21880793486975e+22
3.21880802763449e+22
3.21880812126377e+22
3.21880821575914e+22
3.21880831112223e+22
3.21880840735674e+22
3.21880850446739e+22
3.21880860245335e+22
3.21880870131525e+22
3.21880880105661e+22
3.21880890168029e+22
3.21880900318635e+22
3.21880910557733e+22
3.21880920885578e+22
3.2188093130258e+22
3.21880941809142e+22
3.21880952405589e+22
3.21880963091792e+22
3.21880973867962e+22
3.21880984734315e+22
3.21880995691195e+22
3.21881006739102e+22
3.21881017877902e+22
3.21881029107875e+22
3.2188104042943e+22
3.21881051842539e+22
3.21881063347419e+22
3.21881074944183e+22
3.21881086631608e+22
3.21881098411294e+22
3.21881110280886e+22
3.21881122243037e+22
3.21881134292936e+22
3.21881146434832e+22
3.21881158662334e+22
3.21881170976907e+22
3.21881183389773e+22
3.21881195784664e+22
3.21881208204727e+22
3.21881220778321e+22
3.21881233436992e+22
3.21881246177649e+22
3.21881258926038e+22
3.2188127169852e+22
3.218812844601e+22
3.21881297205285e+22
3.21881310050294e+22
3.21881323093533e+22
3.21881335703816e+22
3.21881348210128e+22
3.21881361171835e+22
3.21881373440435e+22
3.21881385312312e+22
3.21881397600583e+22
3.21881408904843e+22
3.21881419736573e+22
3.21881430524826e+22
3.21881440298113e+22
3.21881449266616e+22
3.21881458075449e+22
3.2188146564329e+22
3.21881472279566e+22
3.21881478691235e+22
3.21881484111021e+22
3.21881488590678e+22
3.21881492314557e+22
3.21881495513252e+22
3.21881497559304e+22
3.21881498966203e+22
3.21881499896372e+22
3.21881500738909e+22
3.21881501274407e+22
3.21881501534677e+22
3.21881501369946e+22
3.21881501336605e+22
3.21881501348477e+22
3.21881501902294e+22
3.21881502626112e+22
3.21881503486441e+22
3.21881504300524e+22
3.2188150502745e+22
3.21881505661243e+22
3.21881506212716e+22
3.21881506691569e+22
3.21881507099106e+22
3.21881507646906e+22
3.2188150818646e+22
3.21881508688254e+22
3.21881509135691e+22
3.21881509555656e+22
3.2188150993103e+22
3.21881510287948e+22
3.21881510606789e+22
3.21881510916285e+22
3.21881511195599e+22
3.21881511468673e+22
3.21881511712247e+22
3.21881512103395e+22
3.21881512468265e+22
3.21881512834719e+22
3.21881513168405e+22
3.21881513506125e+22
3.21881513812438e+22
3.21881514124863e+22
3.21881514406531e+22
3.2188151469578e+22
3.21881514954792e+22
3.21881515222485e+22
3.21881515460211e+22
3.21881515707687e+22
3.21881515925191e+22
3.21881516153365e+22
3.21881516351524e+22
3.21881516583119e+22
3.2188151686824e+22
3.21881517163814e+22
3.21881517430753e+22
3.21881517708854e+22
3.21881517958421e+22
3.21881518220094e+22
3.21881518453252e+22
3.21881518699464e+22
3.21881518917259e+22
3.21881519148855e+22
3.21881519352129e+22
3.21881519569853e+22
3.21881519759257e+22
3.21881519963867e+22
3.21881520140179e+22
3.21881520332466e+22
3.2188152049648e+22
3.21881520677002e+22
3.21881520829155e+22
3.21881520998377e+22
3.21881521139182e+22
3.21881521297573e+22
3.21881521427517e+22
3.21881521614127e+22
3.21881521800823e+22
3.21881522006521e+22
3.21881522183028e+22
3.21881522379133e+22
3.21881522546013e+22
3.21881522733021e+22
3.21881522890788e+22
3.21881523069228e+22
3.21881523218352e+22
3.21881523388785e+22
3.21881523529785e+22
3.21881523692613e+22
3.21881523825855e+22
3.21881523981444e+22
3.21881524107405e+22
3.21881524256579e+22
3.21881524377829e+22
3.21881524523795e+22
3.21881524640133e+22
3.2188152478027e+22
3.21881524890633e+22
3.21881525024985e+22
3.21881525129506e+22
3.21881525262145e+22
3.21881525366909e+22
3.2188152549626e+22
3.21881525595403e+22
3.21881525725227e+22
3.21881525826709e+22
3.2188152595536e+22
3.21881526060904e+22
3.21881526197729e+22
3.21881526312751e+22
3.2188152654773e+22
)
;

boundaryField
{
    electrode
    {
        type            zeroGradient;
    }
    ground
    {
        type            zeroGradient;
    }
    otherfaces
    {
        type            empty;
    }
}


// ************************************************************************* //
