/*--------------------------------*- C++ -*----------------------------------*\
| =========                 |                                                 |
| \\      /  F ield         | foam-extend: Open Source CFD                    |
|  \\    /   O peration     | Version:     4.0                                |
|   \\  /    A nd           | Web:         http://www.foam-extend.org         |
|    \\/     M anipulation  |                                                 |
\*---------------------------------------------------------------------------*/
FoamFile
{
    version     2.0;
    format      ascii;
    class       volScalarField;
    location    "7e-06";
    object      Arm;
}
// * * * * * * * * * * * * * * * * * * * * * * * * * * * * * * * * * * * * * //

dimensions      [0 0 0 1 0 0 0];

internalField   nonuniform List<scalar> 
300
(
3.57412030904763e+15
3.57599527589244e+15
3.57794315625446e+15
3.57924931490874e+15
3.5800655971068e+15
3.58044417455824e+15
3.58042924835217e+15
3.58005226443304e+15
3.579338883436e+15
3.57831108658876e+15
3.57698465268683e+15
3.57537366743918e+15
3.57349018459195e+15
3.57134480703113e+15
3.56894699202255e+15
3.56630528150037e+15
3.56342450616231e+15
3.56031324871912e+15
3.55697984898746e+15
3.5534307879817e+15
3.54967226715671e+15
3.54571020817564e+15
3.54155030104338e+15
3.53719797729219e+15
3.53264260577821e+15
3.52790188181068e+15
3.52297952100779e+15
3.51787755185539e+15
3.51260954679401e+15
3.5071803771752e+15
3.50157632749705e+15
3.49580875392282e+15
3.48989574375674e+15
3.48384269238688e+15
3.47765468607366e+15
3.47133652202167e+15
3.46488838497223e+15
3.45831678538162e+15
3.45162878817913e+15
3.44482793224641e+15
3.4379177229971e+15
3.43090343349402e+15
3.42378894582795e+15
3.41657795154348e+15
3.40927395077605e+15
3.40188020515843e+15
3.39439766209506e+15
3.38682776028336e+15
3.37916275164119e+15
3.37140120888366e+15
3.3635305643995e+15
3.35556328119021e+15
3.34749400605973e+15
3.33934042603513e+15
3.33111069188109e+15
3.32282115361474e+15
3.3144751245785e+15
3.30607552093529e+15
3.2976249129651e+15
3.28912372454343e+15
3.28057626512209e+15
3.27198464264883e+15
3.26334550326419e+15
3.25464091940799e+15
3.24587486901171e+15
3.23707289432032e+15
3.22823711111003e+15
3.21936935912949e+15
3.2104712242248e+15
3.20154406402173e+15
3.19258702905048e+15
3.18359297952785e+15
3.17456038175667e+15
3.16549665313872e+15
3.1563882848985e+15
3.14723632697638e+15
3.13804710795808e+15
3.12881653035649e+15
3.11956450367282e+15
3.11026057625561e+15
3.10093924328327e+15
3.09160265652541e+15
3.08224774177635e+15
3.07287673859339e+15
3.06347486452284e+15
3.05404984403095e+15
3.04461336831282e+15
3.0351657569115e+15
3.02569512905531e+15
3.01620920785353e+15
3.00670195499091e+15
2.99712844536177e+15
2.98754380845841e+15
2.97794973100202e+15
2.96834624344596e+15
2.95873337170437e+15
2.94911089748627e+15
2.93947837864266e+15
2.92982489889161e+15
2.92015039295425e+15
2.91046111348052e+15
2.90075831435804e+15
2.8910103172896e+15
2.88124625750922e+15
2.87145695102512e+15
2.86163307530762e+15
2.85178959921682e+15
2.84190696909824e+15
2.8319955770906e+15
2.82206087268948e+15
2.81210099215101e+15
2.80211364434267e+15
2.79209109883996e+15
2.78203113831465e+15
2.77193152797092e+15
2.76177462873196e+15
2.75154159528914e+15
2.74125716532877e+15
2.7309222259402e+15
2.72052868883339e+15
2.71005021847783e+15
2.69949970255863e+15
2.68884822720427e+15
2.67810615146295e+15
2.66728489276241e+15
2.65638223909795e+15
2.64537014467019e+15
2.63426597675081e+15
2.62305894163121e+15
2.61174697772049e+15
2.60031446508927e+15
2.58875752192072e+15
2.57707113196849e+15
2.56522921814699e+15
2.55319537701291e+15
2.54098839905842e+15
2.52861219467583e+15
2.51604175310865e+15
2.5032582361468e+15
2.49027071599897e+15
2.47706322827244e+15
2.46361910423497e+15
2.44990621315049e+15
2.43589246329256e+15
2.42155327588365e+15
2.40690837808213e+15
2.39194293313554e+15
2.3766405655046e+15
2.3609707340991e+15
2.34488462242181e+15
2.32839456920064e+15
2.31147582596555e+15
2.29406621600642e+15
2.27616447943421e+15
2.25775234657319e+15
2.2387801232608e+15
2.21920459248382e+15
2.19902514605616e+15
2.17822263174289e+15
2.15675212190479e+15
2.13457802057258e+15
2.11168519629538e+15
2.08803546478291e+15
2.06364129907217e+15
2.03848968968961e+15
2.01252617532105e+15
1.98577152953076e+15
1.95827028481316e+15
1.93005143528902e+15
1.90115696274225e+15
1.8716554119618e+15
1.8415801968517e+15
1.81102371875352e+15
1.78015743655204e+15
1.74917525495784e+15
1.71824705283113e+15
1.68755202552576e+15
1.65728919106754e+15
1.62769723833764e+15
1.59893181340319e+15
1.57114718864077e+15
1.54449035609031e+15
1.51904276695006e+15
1.49491908188828e+15
1.47211920198766e+15
1.45055311650832e+15
1.43026046488538e+15
1.41119078812198e+15
1.39325826672565e+15
1.37638225365452e+15
1.36046873127069e+15
1.34556817971836e+15
1.33216823808936e+15
1.32532933328072e+15
1.3512205862254e+15
1.41694824933001e+15
1.49617961918981e+15
1.56010641382407e+15
1.61380872371554e+15
1.66303546406779e+15
1.70706333299926e+15
1.74037173837316e+15
1.74414402148326e+15
1.7183912204975e+15
1.67485602903819e+15
1.62786271760574e+15
1.58691850702926e+15
1.55557485722151e+15
1.53358132330621e+15
1.5190685524916e+15
1.50920213629057e+15
1.50254471212567e+15
1.49815006336858e+15
1.4952616482359e+15
1.49250564620972e+15
1.49006173099798e+15
1.4877853773605e+15
1.48540893453866e+15
1.48273525559878e+15
1.4796481797504e+15
1.4760742557304e+15
1.47169109058443e+15
1.46646246980786e+15
1.46054107311976e+15
1.45401265227238e+15
1.44703910503958e+15
1.43966773866542e+15
1.43192775723162e+15
1.42386556743402e+15
1.41553431650158e+15
1.40696477599375e+15
1.39820308897258e+15
1.38929933481083e+15
1.38028556712726e+15
1.3711957000085e+15
1.36207838230461e+15
1.35294738022951e+15
1.34384868819232e+15
1.33479554569432e+15
1.32582032853794e+15
1.31694242914269e+15
1.30817023420905e+15
1.2995327666621e+15
1.29102876109448e+15
1.28267545504594e+15
1.2744975397902e+15
1.2664887538518e+15
1.25866262907496e+15
1.25102610023295e+15
1.24357442832453e+15
1.23631691378799e+15
1.22925100658012e+15
1.22237469124257e+15
1.2156933418357e+15
1.20920005968099e+15
1.20289366916311e+15
1.1967727237598e+15
1.19082200190831e+15
1.18504974872909e+15
1.17944810441576e+15
1.17402214027603e+15
1.16875849344545e+15
1.16365903946788e+15
1.15871452847365e+15
1.15392161497253e+15
1.14927542760652e+15
1.14476721104017e+15
1.14039268462937e+15
1.13614011393763e+15
1.13201416583902e+15
1.12800569728131e+15
1.12411814105656e+15
1.12033701706261e+15
1.11666733599642e+15
1.11309641546802e+15
1.1096222112223e+15
1.10624242166404e+15
1.10295648631566e+15
1.09976582096553e+15
1.09666353249815e+15
1.09364790517139e+15
1.0906780942386e+15
1.08761077760715e+15
1.08447649229321e+15
1.08141087818856e+15
1.07840588252499e+15
1.075470418179e+15
1.07260705197108e+15
1.06980616050651e+15
1.06668908663616e+15
1.06343096434578e+15
1.06024971680289e+15
1.05715181230968e+15
1.05354137102948e+15
1.04983389766927e+15
1.04600560815115e+15
1.04154604232996e+15
1.0366312933639e+15
1.0309641230074e+15
1.02406162436566e+15
)
;

boundaryField
{
    electrode
    {
        type            zeroGradient;
    }
    ground
    {
        type            zeroGradient;
    }
    otherfaces
    {
        type            empty;
    }
}


// ************************************************************************* //
