/*--------------------------------*- C++ -*----------------------------------*\
| =========                 |                                                 |
| \\      /  F ield         | foam-extend: Open Source CFD                    |
|  \\    /   O peration     | Version:     4.0                                |
|   \\  /    A nd           | Web:         http://www.foam-extend.org         |
|    \\/     M anipulation  |                                                 |
\*---------------------------------------------------------------------------*/
FoamFile
{
    version     2.0;
    format      ascii;
    class       volScalarField;
    location    "7e-06";
    object      Arp1;
}
// * * * * * * * * * * * * * * * * * * * * * * * * * * * * * * * * * * * * * //

dimensions      [0 0 0 1 0 0 0];

internalField   nonuniform List<scalar> 
300
(
6.4749984814675e+16
6.47926019770148e+16
6.47662090328992e+16
6.47609949757408e+16
6.47511739081862e+16
6.47372832280682e+16
6.47209288569543e+16
6.47014326292899e+16
6.46788944385818e+16
6.46533277235525e+16
6.46247147508711e+16
6.45930561683692e+16
6.45583483606957e+16
6.45205874491047e+16
6.44797696987206e+16
6.44358910427164e+16
6.43889472179322e+16
6.43389337549573e+16
6.42858459709062e+16
6.42296789730495e+16
6.41704276578721e+16
6.41080867117026e+16
6.40426506109635e+16
6.39741136221729e+16
6.39024698026626e+16
6.38277130011564e+16
6.37498368577717e+16
6.36688348051774e+16
6.35847000692655e+16
6.34974256696741e+16
6.34070044207959e+16
6.33134289332108e+16
6.32166916142693e+16
6.31167846695127e+16
6.30137001044255e+16
6.29074297253561e+16
6.27979651414909e+16
6.26852977668329e+16
6.25694188215842e+16
6.24503193346132e+16
6.23279901458526e+16
6.22024219081418e+16
6.20736050902401e+16
6.19415299796152e+16
6.18061866849092e+16
6.16675651394078e+16
6.15256551044535e+16
6.13804461723525e+16
6.12319277705093e+16
6.10800891654106e+16
6.09249194660449e+16
6.07664076287576e+16
6.06045424616614e+16
6.04393126289652e+16
6.02707066560831e+16
6.00987129349263e+16
5.99233197288625e+16
5.97445151782908e+16
5.95622873067817e+16
5.93766240264008e+16
5.91875131442296e+16
5.89949423689076e+16
5.8798899316693e+16
5.8599371518578e+16
5.83963464274308e+16
5.8189811424685e+16
5.79797538280542e+16
5.77661608992556e+16
5.75490198512781e+16
5.73283178565849e+16
5.71040420556387e+16
5.68761795643782e+16
5.66447174827083e+16
5.64096429033231e+16
5.61709429208046e+16
5.59286046444553e+16
5.56826152080851e+16
5.54329617544056e+16
5.51796314118852e+16
5.49226113788379e+16
5.46618891971757e+16
5.43974528562435e+16
5.41292894941406e+16
5.38573826930334e+16
5.35817155711807e+16
5.33022879648304e+16
5.30191157803771e+16
5.27321494569525e+16
5.24413723995459e+16
5.21467717887504e+16
5.18483327065023e+16
5.15460402296809e+16
5.12398796017065e+16
5.09298362955789e+16
5.06158960389569e+16
5.02980448227684e+16
4.99762689068617e+16
4.96505548247621e+16
4.93208893875829e+16
4.8987259688305e+16
4.86496531061127e+16
4.83080573102452e+16
4.79624602639569e+16
4.76128502288943e+16
4.72592157687592e+16
4.69015457531114e+16
4.65398293615066e+16
4.61740560870377e+16
4.58042157398492e+16
4.54302984511604e+16
4.50522946764922e+16
4.4670195199089e+16
4.42839911337403e+16
4.38936739299263e+16
4.3499235375202e+16
4.31006675990101e+16
4.2697963076003e+16
4.22911146297135e+16
4.18801154367806e+16
4.14649590308011e+16
4.10456393070722e+16
4.06221505277374e+16
4.01944873272651e+16
3.97626447189655e+16
3.93266181026061e+16
3.8886403272787e+16
3.8441996429042e+16
3.79933941879146e+16
3.75405935966217e+16
3.70835921497771e+16
3.66223878091361e+16
3.61569790268041e+16
3.56873647731172e+16
3.52135445699559e+16
3.47355185300143e+16
3.42532874040937e+16
3.37668526374357e+16
3.32762164360593e+16
3.27813818480999e+16
3.22823528581009e+16
3.17791345005214e+16
3.12717329989629e+16
3.07601559252057e+16
3.024441240447e+16
2.97245133098336e+16
2.92004716221071e+16
2.86723027257745e+16
2.81400247237822e+16
2.76036587686375e+16
2.70632310085017e+16
2.65187718039004e+16
2.59703099312693e+16
2.54179012618697e+16
2.48615875410711e+16
2.43014060145936e+16
2.37374395474528e+16
2.31699028782216e+16
2.25986918770378e+16
2.2024122249767e+16
2.14460387281083e+16
2.0865028397956e+16
2.02807567884827e+16
1.96939825260066e+16
1.91046411170694e+16
1.85117429696136e+16
1.79272055813362e+16
1.73471574856662e+16
1.67592924385381e+16
1.61709063875536e+16
1.55826367260555e+16
1.5002193706569e+16
1.4428305723029e+16
1.38647985710615e+16
1.33123926051547e+16
1.27593239800814e+16
1.21950282507591e+16
1.16813447608117e+16
1.11837428326056e+16
1.06437557860863e+16
1.01726797805237e+16
9.73672854155334e+15
9.24949667306632e+15
8.84483611833197e+15
8.46487655207179e+15
8.05970722294674e+15
7.71937523480548e+15
7.41617395925719e+15
7.0798839127967e+15
6.81420510417883e+15
6.58554035843445e+15
6.322444074534e+15
6.10257658400928e+15
5.92306558633822e+15
5.76466411000833e+15
5.5837053258434e+15
5.44179917291228e+15
5.31987185679843e+15
5.2363748971158e+15
5.15277731056756e+15
5.09127791403717e+15
5.05196231615325e+15
5.05693765883248e+15
5.07215685213003e+15
5.10779161822434e+15
5.10323724233348e+15
5.0822617207095e+15
5.03966199667741e+15
4.99095565157001e+15
4.94100024302494e+15
4.89255052469282e+15
4.84750965903081e+15
4.80642269582786e+15
4.77014693482704e+15
4.71830399976488e+15
4.66713190691032e+15
4.61941050258668e+15
4.57694925761759e+15
4.53733082830471e+15
4.50246638389754e+15
4.46986006176409e+15
4.4415483301488e+15
4.41498122823902e+15
4.3922789681932e+15
4.37089512084612e+15
4.3530699578872e+15
4.32093429371005e+15
4.29182594949795e+15
4.262929631613e+15
4.23763393569299e+15
4.21220538882391e+15
4.19015736719158e+15
4.16769152566571e+15
4.14844467505934e+15
4.12855075065368e+15
4.11175740262648e+15
4.09412431786391e+15
4.07950216330076e+15
4.0638731974889e+15
4.05119621264851e+15
4.03737460764233e+15
4.02645747093502e+15
4.012091087555e+15
3.99223735614812e+15
3.97120481129788e+15
3.95288497058359e+15
3.93327325113713e+15
3.91634556317758e+15
3.89802431682355e+15
3.88236462183828e+15
3.86521431552748e+15
3.85071115008269e+15
3.83463571492752e+15
3.82120250229528e+15
3.80612890886372e+15
3.79369863905213e+15
3.77956041060414e+15
3.76806611388721e+15
3.7548035628271e+15
3.74418940762826e+15
3.73175329099613e+15
3.72197791334603e+15
3.71033297030436e+15
3.70136496969424e+15
3.69048295919502e+15
3.68229364282902e+15
3.66829057560288e+15
3.65414052821433e+15
3.63795624315833e+15
3.62456860148888e+15
3.60909424690548e+15
3.59642454665299e+15
3.58162081375492e+15
3.56963438963157e+15
3.55546886854105e+15
3.54413595692339e+15
3.53057510886729e+15
3.51986290892594e+15
3.50687373738386e+15
3.49674771432075e+15
3.48429826710068e+15
3.47472485346485e+15
3.46278394327685e+15
3.45373263861076e+15
3.44227656036681e+15
3.43371444373067e+15
3.42271160577694e+15
3.41461641099938e+15
3.40405000327336e+15
3.39640407454391e+15
3.38626225374102e+15
3.37904878518769e+15
3.36929951853214e+15
3.36248762968688e+15
3.35311976732293e+15
3.3466829099185e+15
3.33764965954238e+15
3.33155781338761e+15
3.32279228715622e+15
3.31695822908878e+15
3.30036165631258e+15
)
;

boundaryField
{
    electrode
    {
        type            driftDiffusionPositiveIonDensity;
        seec            0;
        fieldName       Arp1;
        value           uniform 6.4567879433109e+16;
    }
    ground
    {
        type            driftDiffusionPositiveIonDensity;
        seec            0;
        fieldName       Arp1;
        value           uniform 3.30036165631258e+15;
    }
    otherfaces
    {
        type            empty;
    }
}


// ************************************************************************* //
