/*--------------------------------*- C++ -*----------------------------------*\
| =========                 |                                                 |
| \\      /  F ield         | foam-extend: Open Source CFD                    |
|  \\    /   O peration     | Version:     4.0                                |
|   \\  /    A nd           | Web:         http://www.foam-extend.org         |
|    \\/     M anipulation  |                                                 |
\*---------------------------------------------------------------------------*/
FoamFile
{
    version     2.0;
    format      ascii;
    class       volVectorField;
    location    "7e-06";
    object      E;
}
// * * * * * * * * * * * * * * * * * * * * * * * * * * * * * * * * * * * * * //

dimensions      [0 0 0 1 0 0 0];

internalField   nonuniform List<vector> 
300
(
(5.41284113364516 -0 -0)
(10.843818409878 -0 -0)
(19.1322760800805 -0 -0)
(26.7972693784871 -0 -0)
(34.4164958990249 -0 -0)
(42.1029785660503 -0 -0)
(49.7828330142674 -0 -0)
(57.4776528247655 -0 -0)
(65.1882518215581 -0 -0)
(72.9150022360521 -0 -0)
(80.6601352459897 -0 -0)
(88.425255263814 -0 -0)
(96.2120537198473 -0 -0)
(104.022259068968 -0 -0)
(111.857597547006 -0 -0)
(119.719812763376 -0 -0)
(127.610663240571 -0 -0)
(135.531923059486 -0 -0)
(143.485383262422 -0 -0)
(151.472852598364 -0 -0)
(159.496158630425 -0 -0)
(167.557148630927 -0 -0)
(175.657690655581 -0 -0)
(183.799674534359 -0 -0)
(191.98501291229 -0 -0)
(200.215642252861 -0 -0)
(208.49352397462 -0 -0)
(216.82064549611 -0 -0)
(225.199021318396 -0 -0)
(233.630694165823 -0 -0)
(242.117736114236 -0 -0)
(250.662249781602 -0 -0)
(259.266369477565 -0 -0)
(267.932262459941 -0 -0)
(276.662130163585 -0 -0)
(285.458209432795 -0 -0)
(294.322773881946 -0 -0)
(303.258135224354 -0 -0)
(312.266644604574 -0 -0)
(321.350694075549 -0 -0)
(330.512718006648 -0 -0)
(339.7551946158 -0 -0)
(349.080647517353 -0 -0)
(358.491647313371 -0 -0)
(367.99081319653 -0 -0)
(377.580814756069 -0 -0)
(387.264373689832 -0 -0)
(397.044265640395 -0 -0)
(406.923322134086 -0 -0)
(416.904432530479 -0 -0)
(426.990546070805 -0 -0)
(437.184674075039 -0 -0)
(447.489892116314 -0 -0)
(457.90934234823 -0 -0)
(468.446235955867 -0 -0)
(479.103855675806 -0 -0)
(489.885558414885 -0 -0)
(500.794778038377 -0 -0)
(511.83502826475 -0 -0)
(523.00990565501 -0 -0)
(534.323092825414 -0 -0)
(545.778361717043 -0 -0)
(557.379577105561 -0 -0)
(569.130700275922 -0 -0)
(581.035792808376 -0 -0)
(593.099020650192 -0 -0)
(605.324658306608 -0 -0)
(617.717093334566 -0 -0)
(630.280831022459 -0 -0)
(643.020499288609 -0 -0)
(655.940853937091 -0 -0)
(669.046784074275 -0 -0)
(682.343317835798 -0 -0)
(695.835628433532 -0 -0)
(709.529040737805 -0 -0)
(723.429038565549 -0 -0)
(737.541272047145 -0 -0)
(751.87156213942 -0 -0)
(766.425902759623 -0 -0)
(781.210475966748 -0 -0)
(796.231701676119 -0 -0)
(811.496279148976 -0 -0)
(827.011032289274 -0 -0)
(842.782482031539 -0 -0)
(858.817049971622 -0 -0)
(875.123534583952 -0 -0)
(891.715423009907 -0 -0)
(908.606099892051 -0 -0)
(925.80529964368 -0 -0)
(943.32180519833 -0 -0)
(961.164666407708 -0 -0)
(979.343281620559 -0 -0)
(997.867425951801 -0 -0)
(1016.74727903688 -0 -0)
(1035.99344795765 -0 -0)
(1055.61699040312 -0 -0)
(1075.62943895146 -0 -0)
(1096.04282677289 -0 -0)
(1116.86971522456 -0 -0)
(1138.12322321144 -0 -0)
(1159.81705870993 -0 -0)
(1181.96555238688 -0 -0)
(1204.5836937592 -0 -0)
(1227.68716986191 -0 -0)
(1251.29240672329 -0 -0)
(1275.41661395098 -0 -0)
(1300.07783250123 -0 -0)
(1325.29498614182 -0 -0)
(1351.08793674218 -0 -0)
(1377.47754385381 -0 -0)
(1404.48572883019 -0 -0)
(1432.13554405514 -0 -0)
(1460.45124761987 -0 -0)
(1489.45838402984 -0 -0)
(1519.18387146803 -0 -0)
(1549.65609629018 -0 -0)
(1580.90501539299 -0 -0)
(1612.96226724603 -0 -0)
(1645.86129252875 -0 -0)
(1679.63746522548 -0 -0)
(1714.3282353487 -0 -0)
(1749.97328439389 -0 -0)
(1786.61469507499 -0 -0)
(1824.29713664633 -0 -0)
(1863.0680676406 -0 -0)
(1902.97795796289 -0 -0)
(1944.08053247347 -0 -0)
(1986.43303853347 -0 -0)
(2030.09654035656 -0 -0)
(2075.13624321138 -0 -0)
(2121.62185124444 -0 -0)
(2169.62796293509 -0 -0)
(2219.23450879373 -0 -0)
(2270.52723684544 -0 -0)
(2323.59825189125 -0 -0)
(2378.54661569188 -0 -0)
(2435.47901617686 -0 -0)
(2494.51051499594 -0 -0)
(2555.76538446018 -0 -0)
(2619.37804623083 -0 -0)
(2685.49412640479 -0 -0)
(2754.27164428163 -0 -0)
(2825.88235472557 -0 -0)
(2900.51326711398 -0 -0)
(2978.36836612331 -0 -0)
(3059.6705742466 -0 -0)
(3144.66399125195 -0 -0)
(3233.61643042061 -0 -0)
(3326.82232386466 -0 -0)
(3424.60621813066 -0 -0)
(3527.32656833982 -0 -0)
(3635.37959128447 -0 -0)
(3749.20615963566 -0 -0)
(3869.29709356204 -0 -0)
(3996.19587308698 -0 -0)
(4130.51404170903 -0 -0)
(4272.95860272217 -0 -0)
(4424.31695871546 -0 -0)
(4585.47087712249 -0 -0)
(4757.40572816654 -0 -0)
(4941.25611991731 -0 -0)
(5138.30130135697 -0 -0)
(5350.02349078744 -0 -0)
(5578.14849663378 -0 -0)
(5824.79219971768 -0 -0)
(6094.44505972524 -0 -0)
(6393.13526465966 -0 -0)
(6724.39965868157 -0 -0)
(7090.86312260176 -0 -0)
(7497.00515223211 -0 -0)
(7949.74297596484 -0 -0)
(8457.98584038871 -0 -0)
(9031.87273753976 -0 -0)
(9682.48559665112 -0 -0)
(10418.2757456893 -0 -0)
(11244.0758574032 -0 -0)
(12175.2930454506 -0 -0)
(13231.4758061052 -0 -0)
(14413.0756967205 -0 -0)
(15730.2069417455 -0 -0)
(17206.7236392367 -0 -0)
(18839.2020480925 -0 -0)
(20631.0930331815 -0 -0)
(22599.0927612255 -0 -0)
(24731.9878231991 -0 -0)
(27023.1228250012 -0 -0)
(29476.9544965947 -0 -0)
(32069.9957755953 -0 -0)
(34783.948226624 -0 -0)
(37616.7150374934 -0 -0)
(40536.9097553882 -0 -0)
(43514.4167215267 -0 -0)
(46540.8360268072 -0 -0)
(49604.9942870204 -0 -0)
(52680.0049538768 -0 -0)
(55746.0395727664 -0 -0)
(58801.3987639527 -0 -0)
(61845.0174792833 -0 -0)
(64880.5265097709 -0 -0)
(67903.5920702623 -0 -0)
(70910.5864991473 -0 -0)
(73923.9077412417 -0 -0)
(76958.5721496391 -0 -0)
(80015.1102895488 -0 -0)
(83085.528879276 -0 -0)
(86151.7485294928 -0 -0)
(89201.0202976052 -0 -0)
(92224.104609489 -0 -0)
(95218.1031185033 -0 -0)
(98182.7349927891 -0 -0)
(101119.320790228 -0 -0)
(104030.012039563 -0 -0)
(106917.422970017 -0 -0)
(109778.287212864 -0 -0)
(112608.100035822 -0 -0)
(115408.099214936 -0 -0)
(118180.908553543 -0 -0)
(120928.968340277 -0 -0)
(123654.564251539 -0 -0)
(126359.81012514 -0 -0)
(129046.684080372 -0 -0)
(131717.005899305 -0 -0)
(134372.468272377 -0 -0)
(137014.63649724 -0 -0)
(139644.981616099 -0 -0)
(142260.262223249 -0 -0)
(144857.076539914 -0 -0)
(147436.40248742 -0 -0)
(149999.390916698 -0 -0)
(152547.088617877 -0 -0)
(155080.475935995 -0 -0)
(157600.447199435 -0 -0)
(160107.847936264 -0 -0)
(162603.454454282 -0 -0)
(165088.007264919 -0 -0)
(167562.18869779 -0 -0)
(170026.653964302 -0 -0)
(172482.007830073 -0 -0)
(174928.837139814 -0 -0)
(177367.687199551 -0 -0)
(179799.088969007 -0 -0)
(182222.878111594 -0 -0)
(184636.359558764 -0 -0)
(187037.522943818 -0 -0)
(189426.830758197 -0 -0)
(191804.711399694 -0 -0)
(194171.584576182 -0 -0)
(196527.839302993 -0 -0)
(198873.857789008 -0 -0)
(201209.992951547 -0 -0)
(203536.593339242 -0 -0)
(205853.98285856 -0 -0)
(208162.483914144 -0 -0)
(210462.398370003 -0 -0)
(212754.028358252 -0 -0)
(215037.655867308 -0 -0)
(217313.562634112 -0 -0)
(219582.01246956 -0 -0)
(221843.270747895 -0 -0)
(224097.586218881 -0 -0)
(226345.211616244 -0 -0)
(228586.385248048 -0 -0)
(230821.350328363 -0 -0)
(233050.336671133 -0 -0)
(235273.578840686 -0 -0)
(237490.135304501 -0 -0)
(239698.208158999 -0 -0)
(241897.139339204 -0 -0)
(244087.158547032 -0 -0)
(246268.479638947 -0 -0)
(248441.318905732 -0 -0)
(250605.878426016 -0 -0)
(252762.36404051 -0 -0)
(254910.968008834 -0 -0)
(257051.887265232 -0 -0)
(259185.303998743 -0 -0)
(261311.405233489 -0 -0)
(263430.363216151 -0 -0)
(265542.354569129 -0 -0)
(267647.54191261 -0 -0)
(269746.091751308 -0 -0)
(271838.157329674 -0 -0)
(273923.895913957 -0 -0)
(276003.453568491 -0 -0)
(278076.977770859 -0 -0)
(280144.605024749 -0 -0)
(282206.476020755 -0 -0)
(284262.722353634 -0 -0)
(286313.479303885 -0 -0)
(288358.874759093 -0 -0)
(290399.039130412 -0 -0)
(292434.090572978 -0 -0)
(294464.150044438 -0 -0)
(296489.332506824 -0 -0)
(298509.750756613 -0 -0)
(300525.505395576 -0 -0)
(302536.699689633 -0 -0)
(304543.413705726 -0 -0)
(306545.734559519 -0 -0)
(308541.28815813 -0 -0)
)
;

boundaryField
{
    electrode
    {
        type            calculated;
        value           uniform (4.37473034480718 -0 -0);
    }
    ground
    {
        type            calculated;
        value           uniform (309536.556286764 -0 -0);
    }
    otherfaces
    {
        type            empty;
    }
}


// ************************************************************************* //
