/*--------------------------------*- C++ -*----------------------------------*\
| =========                 |                                                 |
| \\      /  F ield         | foam-extend: Open Source CFD                    |
|  \\    /   O peration     | Version:     4.0                                |
|   \\  /    A nd           | Web:         http://www.foam-extend.org         |
|    \\/     M anipulation  |                                                 |
\*---------------------------------------------------------------------------*/
FoamFile
{
    version     2.0;
    format      ascii;
    class       volScalarField;
    location    "7e-06";
    object      electron;
}
// * * * * * * * * * * * * * * * * * * * * * * * * * * * * * * * * * * * * * //

dimensions      [0 0 0 1 0 0 0];

internalField   nonuniform List<scalar> 
300
(
6.47619246371091e+16
6.47602628420848e+16
6.4755922349483e+16
6.47485151757276e+16
6.47381015793096e+16
6.47246576695346e+16
6.47081779193709e+16
6.46886615996931e+16
6.46661054952391e+16
6.46405068279415e+16
6.46118626130209e+16
6.45801696101423e+16
6.45454243847526e+16
6.45076232878666e+16
6.4466762457684e+16
6.44228378204571e+16
6.43758450899597e+16
6.43257797675891e+16
6.4272637142407e+16
6.42164122912184e+16
6.4157100078711e+16
6.40946951576417e+16
6.40291919690857e+16
6.39605847427402e+16
6.38888674972979e+16
6.3814034040897e+16
6.37360779716452e+16
6.36549926782176e+16
6.35707713405528e+16
6.3483406930639e+16
6.33928922133985e+16
6.32992197476729e+16
6.32023818873203e+16
6.31023707824266e+16
6.29991783806328e+16
6.28927964285971e+16
6.27832164735856e+16
6.26704298651929e+16
6.25544277572138e+16
6.24352011096587e+16
6.23127406909196e+16
6.21870370800967e+16
6.20580806694817e+16
6.19258616672098e+16
6.17903701000913e+16
6.16515958166112e+16
6.15095284901037e+16
6.13641576221175e+16
6.12154725459629e+16
6.1063462430447e+16
6.09081162838075e+16
6.07494229578327e+16
6.05873711521785e+16
6.04219494188905e+16
6.02531461671205e+16
6.00809496680398e+16
5.99053480599586e+16
5.97263293536439e+16
5.95438814378328e+16
5.93579920849482e+16
5.916864895701e+16
5.89758396117407e+16
5.87795515088672e+16
5.8579772016603e+16
5.83764884183195e+16
5.81696879193983e+16
5.79593576542584e+16
5.77454846935536e+16
5.75280560515277e+16
5.73070586935303e+16
5.70824795436778e+16
5.68543054926533e+16
5.66225234056498e+16
5.63871201304409e+16
5.61480825055395e+16
5.59053973683762e+16
5.56590515635099e+16
5.54090319513031e+16
5.51553254176311e+16
5.48979188831136e+16
5.46367993065447e+16
5.43719536815812e+16
5.41033690526705e+16
5.38310325971326e+16
5.35549317072139e+16
5.32750537151028e+16
5.29913850134698e+16
5.27039105389145e+16
5.24126143906614e+16
5.21174805709588e+16
5.18184932199974e+16
5.15156366739431e+16
5.12088954840623e+16
5.08982544234314e+16
5.05836984900331e+16
5.02652129087316e+16
4.9942783132811e+16
4.96163948452751e+16
4.92860339599274e+16
4.89516866222136e+16
4.86133392097956e+16
4.82709783328265e+16
4.79245908338826e+16
4.7574163787507e+16
4.72196844993337e+16
4.68611405047397e+16
4.64985195669849e+16
4.61318096747951e+16
4.57609990393301e+16
4.53860760904888e+16
4.50070294724966e+16
4.46238480387185e+16
4.4236520845631e+16
4.3845037145892e+16
4.3449386380436e+16
4.30495581695191e+16
4.2645542302637e+16
4.22373287272296e+16
4.18249075360814e+16
4.1408268953316e+16
4.09874033188811e+16
4.0562301071413e+16
4.01329527293529e+16
3.96993488701763e+16
3.92614801075988e+16
3.88193370665954e+16
3.83729103560571e+16
3.79221905389021e+16
3.74671680994305e+16
3.70078334077014e+16
3.65441766806851e+16
3.60761879399157e+16
3.56038569653542e+16
3.51271732451379e+16
3.46461259208594e+16
3.41607037279873e+16
3.36708949310037e+16
3.3176687252801e+16
3.26780677978278e+16
3.21750229684352e+16
3.1667538373846e+16
3.11555987310999e+16
3.06391877572794e+16
3.0118288052289e+16
2.95928809716017e+16
2.90629464880119e+16
2.8528463041143e+16
2.79894073750788e+16
2.74457543652135e+16
2.68974768257586e+16
2.63445452967534e+16
2.57869278624131e+16
2.52245898935447e+16
2.46574937119495e+16
2.40855984966519e+16
2.35088600189148e+16
2.29272289591656e+16
2.23406499574205e+16
2.17490621920567e+16
2.11524002743786e+16
2.05505940235911e+16
1.99435680537346e+16
1.93312409656227e+16
1.87135184324486e+16
1.80902807598719e+16
1.74612917948647e+16
1.68260873695699e+16
1.61840935422055e+16
1.55348305464579e+16
1.48779281587938e+16
1.4213033124888e+16
1.35397473446611e+16
1.28576521391989e+16
1.21664050691741e+16
1.14659541538648e+16
1.07568533170302e+16
1.00402024531278e+16
9.3174349089833e+15
8.59084181519249e+15
7.86382173620964e+15
7.14036807522535e+15
6.42542765055664e+15
5.72510734975591e+15
5.04601495480206e+15
4.3951558478468e+15
3.77972193923272e+15
3.20636205981752e+15
2.6808348633537e+15
2.2076585392343e+15
1.78956805613517e+15
1.42740751809982e+15
1.12019375244896e+15
865136180342572
657986125687947
493182053115183
364753569638673
266758283207872
193310450278665
138951223035825
97673601419513.7
66933925909559.1
45122885438831.5
29465323944197.9
18395943112564.1
11103681068574
6690533480355.34
4201607730401.51
2843208680658.03
2099547800109.55
1682764352913.86
1442651949740.93
1301764537536.52
1218511297300.91
1169851388928.66
1142532271034.07
1128458617280
1122371379852.48
1120770561729.81
1121451882051.83
1123080353126.18
1124595398106.49
1125255626968.64
1124696105929.01
1122598226055.67
1118800696071.02
1113232453722.44
1105890842296.76
1096821045624.64
1086101957965.26
1073836301306.84
1060143110312.55
1045151895123.26
1028998043397.75
1011819186017.31
993752326632.61
974931593615.76
955486465840.914
935540469546.163
915209591021.989
894601864756.541
873805041069.006
852902138409.776
831982580214.599
811128116336.057
790413005196.03
769902924248.603
749655358796.677
729719976545.557
710139121736.798
690948329799.108
672176857572.751
653848220277.503
635980710125.305
618588008368.537
601679567590.679
585262969763.214
569339702533.684
553904864370.94
538956181787.226
524490724592.02
510501564268.339
496980345452.914
483917365741.921
471301963749.008
459122740284.1
447367880277.292
436025498011.255
425083678566.481
414530381876.424
404353077531.382
394538952935.343
385067291591.284
375913971531.753
367063964431.484
358507472531.318
350235822083.063
342241113520.671
334516029544.106
327053877752.21
319848657933.78
312895095985.115
306188776008.066
299725099924.603
293499616635.134
287484125739.638
281648769619.246
275996271241.677
270540832833.721
265298764709.104
260281952493.141
255456687015.724
250810356975.151
246399225630.149
242243422818.959
238365143137.099
234856906834.23
231853783634.803
229633241537.018
228687565013.536
229849911208.011
)
;

boundaryField
{
    electrode
    {
        type            driftDiffusionElectronDensity;
        seec            0.05;
        Edepend         1;
        field_emission  0;
        field_enhancement_factor 55;
        work_function   5;
        value           uniform 6.47619246371092e+16;
    }
    ground
    {
        type            driftDiffusionElectronDensity;
        seec            0.05;
        Edepend         1;
        field_emission  0;
        field_enhancement_factor 55;
        work_function   5;
        value           uniform 232084777807.108;
    }
    otherfaces
    {
        type            empty;
    }
}


// ************************************************************************* //
