/*--------------------------------*- C++ -*----------------------------------*\
| =========                 |                                                 |
| \\      /  F ield         | foam-extend: Open Source CFD                    |
|  \\    /   O peration     | Version:     4.0                                |
|   \\  /    A nd           | Web:         http://www.foam-extend.org         |
|    \\/     M anipulation  |                                                 |
\*---------------------------------------------------------------------------*/
FoamFile
{
    version     2.0;
    format      ascii;
    class       volVectorField;
    location    "7e-06";
    object      J_Arp1;
}
// * * * * * * * * * * * * * * * * * * * * * * * * * * * * * * * * * * * * * //

dimensions      [1 -1 -1 0 0 0 0];

internalField   nonuniform List<vector> 
300
(
(1.94459868633735e+16 -0 -0)
(7.00133807340808e+16 -0 -0)
(1.25152685178749e+17 -0 -0)
(1.74020705937349e+17 -0 -0)
(2.23598703496035e+17 -0 -0)
(2.7347940958703e+17 -0 -0)
(3.23230740115561e+17 -0 -0)
(3.7304092858701e+17 -0 -0)
(4.22881675103e+17 -0 -0)
(4.7275282141409e+17 -0 -0)
(5.22661877334866e+17 -0 -0)
(5.72611313222161e+17 -0 -0)
(6.22604776508776e+17 -0 -0)
(6.7264589566051e+17 -0 -0)
(7.22738198807932e+17 -0 -0)
(7.72885239441864e+17 -0 -0)
(8.23090557118589e+17 -0 -0)
(8.73357680258278e+17 -0 -0)
(9.23690127605888e+17 -0 -0)
(9.74091405747551e+17 -0 -0)
(1.02456500910006e+18 -0 -0)
(1.07511441824608e+18 -0 -0)
(1.12574309931401e+18 -0 -0)
(1.17645450260613e+18 -0 -0)
(1.22725206137143e+18 -0 -0)
(1.27813919020032e+18 -0 -0)
(1.32911928400303e+18 -0 -0)
(1.38019571621647e+18 -0 -0)
(1.43137183707471e+18 -0 -0)
(1.48265097197834e+18 -0 -0)
(1.53403641953517e+18 -0 -0)
(1.58553144980806e+18 -0 -0)
(1.63713930201097e+18 -0 -0)
(1.68886318258038e+18 -0 -0)
(1.74070626286657e+18 -0 -0)
(1.79267167650738e+18 -0 -0)
(1.84476251729248e+18 -0 -0)
(1.89698183657674e+18 -0 -0)
(1.94933264032847e+18 -0 -0)
(2.00181788674265e+18 -0 -0)
(2.05444048313193e+18 -0 -0)
(2.10720328314665e+18 -0 -0)
(2.16010908372755e+18 -0 -0)
(2.21316062197462e+18 -0 -0)
(2.26636057161071e+18 -0 -0)
(2.31971154027151e+18 -0 -0)
(2.37321606582338e+18 -0 -0)
(2.42687661289493e+18 -0 -0)
(2.48069556956821e+18 -0 -0)
(2.53467524368172e+18 -0 -0)
(2.58881785910901e+18 -0 -0)
(2.64312555241982e+18 -0 -0)
(2.69760036886003e+18 -0 -0)
(2.75224425858351e+18 -0 -0)
(2.80705907300193e+18 -0 -0)
(2.86204656092569e+18 -0 -0)
(2.91720836455822e+18 -0 -0)
(2.97254601574971e+18 -0 -0)
(3.02806093219064e+18 -0 -0)
(3.08375441329202e+18 -0 -0)
(3.13962763655208e+18 -0 -0)
(3.19568165343624e+18 -0 -0)
(3.25191738565641e+18 -0 -0)
(3.30833562145991e+18 -0 -0)
(3.36493701159638e+18 -0 -0)
(3.42172206578079e+18 -0 -0)
(3.47869114874273e+18 -0 -0)
(3.53584447686336e+18 -0 -0)
(3.59318211454273e+18 -0 -0)
(3.65070397050395e+18 -0 -0)
(3.70840979480314e+18 -0 -0)
(3.76629917517026e+18 -0 -0)
(3.8243715335378e+18 -0 -0)
(3.88262612275608e+18 -0 -0)
(3.941062024405e+18 -0 -0)
(3.99967814898616e+18 -0 -0)
(4.05847323546209e+18 -0 -0)
(4.11744583173909e+18 -0 -0)
(4.17659425499935e+18 -0 -0)
(4.23591662037927e+18 -0 -0)
(4.29541107424227e+18 -0 -0)
(4.35507602406316e+18 -0 -0)
(4.4149092708101e+18 -0 -0)
(4.4749053507241e+18 -0 -0)
(4.53505608120128e+18 -0 -0)
(4.59536484938419e+18 -0 -0)
(4.65586181724364e+18 -0 -0)
(4.71656800981011e+18 -0 -0)
(4.7774838480017e+18 -0 -0)
(4.83860470443874e+18 -0 -0)
(4.89992535728424e+18 -0 -0)
(4.96144026727436e+18 -0 -0)
(5.02314371634139e+18 -0 -0)
(5.0850298554302e+18 -0 -0)
(5.14709271453777e+18 -0 -0)
(5.20932620413349e+18 -0 -0)
(5.27172411389847e+18 -0 -0)
(5.33428011044e+18 -0 -0)
(5.39698773567575e+18 -0 -0)
(5.45984040476466e+18 -0 -0)
(5.52283140479161e+18 -0 -0)
(5.58595389301942e+18 -0 -0)
(5.64920089597459e+18 -0 -0)
(5.7125653084012e+18 -0 -0)
(5.77603989232103e+18 -0 -0)
(5.83961727654215e+18 -0 -0)
(5.9032899558675e+18 -0 -0)
(5.96705029088273e+18 -0 -0)
(6.03089050752356e+18 -0 -0)
(6.09480269708057e+18 -0 -0)
(6.15877881587844e+18 -0 -0)
(6.22281068533392e+18 -0 -0)
(6.28688999195801e+18 -0 -0)
(6.35100828740602e+18 -0 -0)
(6.41515698845836e+18 -0 -0)
(6.47932737719809e+18 -0 -0)
(6.5435106009622e+18 -0 -0)
(6.60769767217066e+18 -0 -0)
(6.67187946839644e+18 -0 -0)
(6.73604673199865e+18 -0 -0)
(6.80019006980866e+18 -0 -0)
(6.86429995239068e+18 -0 -0)
(6.92836671349864e+18 -0 -0)
(6.99238054894949e+18 -0 -0)
(7.05633151534983e+18 -0 -0)
(7.1202095285369e+18 -0 -0)
(7.18400436162154e+18 -0 -0)
(7.24770564268389e+18 -0 -0)
(7.31130285207545e+18 -0 -0)
(7.37478531903788e+18 -0 -0)
(7.4381422181205e+18 -0 -0)
(7.50136256494176e+18 -0 -0)
(7.56443521110034e+18 -0 -0)
(7.62734883881145e+18 -0 -0)
(7.69009195456355e+18 -0 -0)
(7.75265288219721e+18 -0 -0)
(7.81501975523375e+18 -0 -0)
(7.87718050789996e+18 -0 -0)
(7.93912286619268e+18 -0 -0)
(8.00083433718007e+18 -0 -0)
(8.06230219703658e+18 -0 -0)
(8.12351347971586e+18 -0 -0)
(8.18445496292321e+18 -0 -0)
(8.2451131577873e+18 -0 -0)
(8.30547427439793e+18 -0 -0)
(8.3655242354548e+18 -0 -0)
(8.42524866835031e+18 -0 -0)
(8.4846328212613e+18 -0 -0)
(8.5436613942307e+18 -0 -0)
(8.60231930100188e+18 -0 -0)
(8.66059128605043e+18 -0 -0)
(8.71845725531649e+18 -0 -0)
(8.77590649128603e+18 -0 -0)
(8.83292243539303e+18 -0 -0)
(8.8894725615318e+18 -0 -0)
(8.94553811404452e+18 -0 -0)
(9.00119845933516e+18 -0 -0)
(9.05638002508555e+18 -0 -0)
(9.11115653743112e+18 -0 -0)
(9.16536775456257e+18 -0 -0)
(9.21919097340444e+18 -0 -0)
(9.27235781669977e+18 -0 -0)
(9.32508649234912e+18 -0 -0)
(9.37730394866899e+18 -0 -0)
(9.42811818107625e+18 -0 -0)
(9.4806358559155e+18 -0 -0)
(9.53064933887506e+18 -0 -0)
(9.58032578828513e+18 -0 -0)
(9.62992867291118e+18 -0 -0)
(9.67785999258567e+18 -0 -0)
(9.72677703431703e+18 -0 -0)
(9.77330205065375e+18 -0 -0)
(9.82094717612744e+18 -0 -0)
(9.86690759303645e+18 -0 -0)
(9.9121085042311e+18 -0 -0)
(9.95226505230108e+18 -0 -0)
(1.0003572342064e+19 -0 -0)
(1.00391608314049e+19 -0 -0)
(1.00770810818131e+19 -0 -0)
(1.01251902482555e+19 -0 -0)
(1.01574880817385e+19 -0 -0)
(1.01885128716415e+19 -0 -0)
(1.0235680610466e+19 -0 -0)
(1.02578185370573e+19 -0 -0)
(1.02916046832299e+19 -0 -0)
(1.03229420348683e+19 -0 -0)
(1.03504587050425e+19 -0 -0)
(1.0368475039278e+19 -0 -0)
(1.04056462169147e+19 -0 -0)
(1.0421352790242e+19 -0 -0)
(1.04466138408286e+19 -0 -0)
(1.04706253316836e+19 -0 -0)
(1.04971646823326e+19 -0 -0)
(1.05257568203452e+19 -0 -0)
(1.05519321393271e+19 -0 -0)
(1.05985238853847e+19 -0 -0)
(1.0637448663226e+19 -0 -0)
(1.07122015211648e+19 -0 -0)
(1.07903961365429e+19 -0 -0)
(1.09415236048684e+19 -0 -0)
(1.11140903552107e+19 -0 -0)
(1.13640755444349e+19 -0 -0)
(1.16207844406759e+19 -0 -0)
(1.19090327876295e+19 -0 -0)
(1.20967418644167e+19 -0 -0)
(1.23035148713597e+19 -0 -0)
(1.24400162328445e+19 -0 -0)
(1.25419852249225e+19 -0 -0)
(1.26217298436988e+19 -0 -0)
(1.26870559172418e+19 -0 -0)
(1.27440162429327e+19 -0 -0)
(1.27952651508504e+19 -0 -0)
(1.28444723115265e+19 -0 -0)
(1.28896560022112e+19 -0 -0)
(1.2937020354391e+19 -0 -0)
(1.29810630280985e+19 -0 -0)
(1.30280267699714e+19 -0 -0)
(1.30720862288664e+19 -0 -0)
(1.31196116377514e+19 -0 -0)
(1.31641612822417e+19 -0 -0)
(1.32123996092423e+19 -0 -0)
(1.32573928803723e+19 -0 -0)
(1.33060170987923e+19 -0 -0)
(1.33510656919818e+19 -0 -0)
(1.33999021155667e+19 -0 -0)
(1.34440292884293e+19 -0 -0)
(1.34933180262293e+19 -0 -0)
(1.35367813218274e+19 -0 -0)
(1.35855345138584e+19 -0 -0)
(1.36280247210464e+19 -0 -0)
(1.3675893540672e+19 -0 -0)
(1.37170915025487e+19 -0 -0)
(1.37638066689186e+19 -0 -0)
(1.38035061604224e+19 -0 -0)
(1.38488949319754e+19 -0 -0)
(1.38869526043934e+19 -0 -0)
(1.39308810077344e+19 -0 -0)
(1.39671757543012e+19 -0 -0)
(1.40095561792449e+19 -0 -0)
(1.40440424905346e+19 -0 -0)
(1.40848272270561e+19 -0 -0)
(1.41174162284917e+19 -0 -0)
(1.41563057566121e+19 -0 -0)
(1.41872927815301e+19 -0 -0)
(1.42244394588635e+19 -0 -0)
(1.42535261931648e+19 -0 -0)
(1.42890424381253e+19 -0 -0)
(1.4316283926746e+19 -0 -0)
(1.43502114895941e+19 -0 -0)
(1.43756349789541e+19 -0 -0)
(1.44079994050699e+19 -0 -0)
(1.44316611110767e+19 -0 -0)
(1.44625276114859e+19 -0 -0)
(1.44845225240493e+19 -0 -0)
(1.45139865081749e+19 -0 -0)
(1.45343945021835e+19 -0 -0)
(1.45625136013133e+19 -0 -0)
(1.45814046715413e+19 -0 -0)
(1.46082454360493e+19 -0 -0)
(1.46256986960846e+19 -0 -0)
(1.46513548060885e+19 -0 -0)
(1.46674772845395e+19 -0 -0)
(1.46920568242258e+19 -0 -0)
(1.47069602541566e+19 -0 -0)
(1.4730585556264e+19 -0 -0)
(1.4744226568227e+19 -0 -0)
(1.47671182847173e+19 -0 -0)
(1.47797438793786e+19 -0 -0)
(1.48017588493343e+19 -0 -0)
(1.48133309922212e+19 -0 -0)
(1.48345427836709e+19 -0 -0)
(1.48451273877917e+19 -0 -0)
(1.48656101356316e+19 -0 -0)
(1.48752827271577e+19 -0 -0)
(1.48951133254063e+19 -0 -0)
(1.49039278090852e+19 -0 -0)
(1.49231541026967e+19 -0 -0)
(1.49311505657749e+19 -0 -0)
(1.49497974233725e+19 -0 -0)
(1.49570053426124e+19 -0 -0)
(1.49750870494922e+19 -0 -0)
(1.49815252567589e+19 -0 -0)
(1.4999055733887e+19 -0 -0)
(1.50047629092849e+19 -0 -0)
(1.50217333951221e+19 -0 -0)
(1.50267022737109e+19 -0 -0)
(1.5043138940752e+19 -0 -0)
(1.50474166381192e+19 -0 -0)
(1.50633567153154e+19 -0 -0)
(1.50670039203536e+19 -0 -0)
(1.50824802962173e+19 -0 -0)
(1.50854597221566e+19 -0 -0)
(1.51004334437029e+19 -0 -0)
(1.51027922417182e+19 -0 -0)
(1.51172355907455e+19 -0 -0)
(1.51188525216646e+19 -0 -0)
(1.51327132676968e+19 -0 -0)
(1.51333658281529e+19 -0 -0)
(1.51463678893626e+19 -0 -0)
(1.51228187960603e+19 -0 -0)
)
;

boundaryField
{
    electrode
    {
        type            calculated;
        value           uniform (-14128648517.7937 -0 -0);
    }
    ground
    {
        type            calculated;
        value           uniform (1.51513417548119e+19 -0 -0);
    }
    otherfaces
    {
        type            empty;
    }
}


// ************************************************************************* //
