/*--------------------------------*- C++ -*----------------------------------*\
| =========                 |                                                 |
| \\      /  F ield         | foam-extend: Open Source CFD                    |
|  \\    /   O peration     | Version:     4.0                                |
|   \\  /    A nd           | Web:         http://www.foam-extend.org         |
|    \\/     M anipulation  |                                                 |
\*---------------------------------------------------------------------------*/
FoamFile
{
    version     2.0;
    format      ascii;
    class       volVectorField;
    location    "7e-06";
    object      J_electron;
}
// * * * * * * * * * * * * * * * * * * * * * * * * * * * * * * * * * * * * * //

dimensions      [1 -1 -1 0 0 0 0];

internalField   nonuniform List<vector> 
300
(
(-1.32509749096275e+19 0 0)
(-1.35995107678258e+19 0 0)
(-1.60685589877591e+19 0 0)
(-1.55789392840751e+19 0 0)
(-1.557805567734e+19 0 0)
(-1.55639720192022e+19 0 0)
(-1.55001232737538e+19 0 0)
(-1.54521904965574e+19 0 0)
(-1.54018449344289e+19 0 0)
(-1.53508579271413e+19 0 0)
(-1.53002105931726e+19 0 0)
(-1.52494255883919e+19 0 0)
(-1.51985942141919e+19 0 0)
(-1.51477188178149e+19 0 0)
(-1.50967859621928e+19 0 0)
(-1.50457949849053e+19 0 0)
(-1.49947418851378e+19 0 0)
(-1.49436227711462e+19 0 0)
(-1.48924341419823e+19 0 0)
(-1.4841172218918e+19 0 0)
(-1.47898334423743e+19 0 0)
(-1.47384141207126e+19 0 0)
(-1.46869106775964e+19 0 0)
(-1.46353195188898e+19 0 0)
(-1.45836371171679e+19 0 0)
(-1.45318598757864e+19 0 0)
(-1.4479984309635e+19 0 0)
(-1.44280069421376e+19 0 0)
(-1.43759243013234e+19 0 0)
(-1.43237329732637e+19 0 0)
(-1.42714295332498e+19 0 0)
(-1.42190106490283e+19 0 0)
(-1.41664729562011e+19 0 0)
(-1.41138131732157e+19 0 0)
(-1.40610280878832e+19 0 0)
(-1.40081144359193e+19 0 0)
(-1.39550690499369e+19 0 0)
(-1.39018888413569e+19 0 0)
(-1.38485706770811e+19 0 0)
(-1.37951115625552e+19 0 0)
(-1.37415084791971e+19 0 0)
(-1.36877585032872e+19 0 0)
(-1.36338587691539e+19 0 0)
(-1.35798064910655e+19 0 0)
(-1.3525598817003e+19 0 0)
(-1.34712331042381e+19 0 0)
(-1.34167067104434e+19 0 0)
(-1.33620170274285e+19 0 0)
(-1.33071615770299e+19 0 0)
(-1.32521379237446e+19 0 0)
(-1.31969436518758e+19 0 0)
(-1.31415765107097e+19 0 0)
(-1.30860342750562e+19 0 0)
(-1.30303147830199e+19 0 0)
(-1.29744159733771e+19 0 0)
(-1.29183358825275e+19 0 0)
(-1.28620725898762e+19 0 0)
(-1.28056242715846e+19 0 0)
(-1.27489892236035e+19 0 0)
(-1.26921657699431e+19 0 0)
(-1.2635152400838e+19 0 0)
(-1.25779476258515e+19 0 0)
(-1.25205500621682e+19 0 0)
(-1.24629584706695e+19 0 0)
(-1.24051716257027e+19 0 0)
(-1.23471884744249e+19 0 0)
(-1.22890079866944e+19 0 0)
(-1.22306292660395e+19 0 0)
(-1.21720515366871e+19 0 0)
(-1.21132740345473e+19 0 0)
(-1.20542961909301e+19 0 0)
(-1.19951175116726e+19 0 0)
(-1.19357375751124e+19 0 0)
(-1.18761559306218e+19 0 0)
(-1.18163720825366e+19 0 0)
(-1.17563858731881e+19 0 0)
(-1.16961990263977e+19 0 0)
(-1.16358142983416e+19 0 0)
(-1.15752266688692e+19 0 0)
(-1.15144144042564e+19 0 0)
(-1.14533681009551e+19 0 0)
(-1.13921864204933e+19 0 0)
(-1.13310786913734e+19 0 0)
(-1.12698400723257e+19 0 0)
(-1.12070245476918e+19 0 0)
(-1.11412628973672e+19 0 0)
(-1.10755696428345e+19 0 0)
(-1.10121222077798e+19 0 0)
(-1.09492771926762e+19 0 0)
(-1.08863561307736e+19 0 0)
(-1.08232267860767e+19 0 0)
(-1.07598472968127e+19 0 0)
(-1.06962073062678e+19 0 0)
(-1.06323053817412e+19 0 0)
(-1.05681424875719e+19 0 0)
(-1.05037202152321e+19 0 0)
(-1.04390402718968e+19 0 0)
(-1.0374104137621e+19 0 0)
(-1.03089132055041e+19 0 0)
(-1.02434685745821e+19 0 0)
(-1.01777711920967e+19 0 0)
(-1.01118216638536e+19 0 0)
(-1.00456203581386e+19 0 0)
(-9.97916732829362e+18 0 0)
(-9.91246225974179e+18 0 0)
(-9.84550453606351e+18 0 0)
(-9.77829305905211e+18 0 0)
(-9.71082634245597e+18 0 0)
(-9.64310237499936e+18 0 0)
(-9.57511865921857e+18 0 0)
(-9.50687208078259e+18 0 0)
(-9.43835891927037e+18 0 0)
(-9.36957473830627e+18 0 0)
(-9.30051435706869e+18 0 0)
(-9.23117174225214e+18 0 0)
(-9.16153996570735e+18 0 0)
(-9.09161110831419e+18 0 0)
(-9.02137611627004e+18 0 0)
(-8.95082476955658e+18 0 0)
(-8.87994550158308e+18 0 0)
(-8.80872534184034e+18 0 0)
(-8.73714966036637e+18 0 0)
(-8.66520212038536e+18 0 0)
(-8.59286445258808e+18 0 0)
(-8.52011624905782e+18 0 0)
(-8.44693476724179e+18 0 0)
(-8.37329468321536e+18 0 0)
(-8.29916779826695e+18 0 0)
(-8.22452280165872e+18 0 0)
(-8.14932483870242e+18 0 0)
(-8.07353518315694e+18 0 0)
(-7.9971108614916e+18 0 0)
(-7.92000407027843e+18 0 0)
(-7.84216171831781e+18 0 0)
(-7.7635247965995e+18 0 0)
(-7.68402769305089e+18 0 0)
(-7.60359745573932e+18 0 0)
(-7.52215285763355e+18 0 0)
(-7.43960349611393e+18 0 0)
(-7.35584866589055e+18 0 0)
(-7.27077600378382e+18 0 0)
(-7.18426011414194e+18 0 0)
(-7.0961609320138e+18 0 0)
(-7.00632268984654e+18 0 0)
(-6.91456936923418e+18 0 0)
(-6.8207034070173e+18 0 0)
(-6.72450918962168e+18 0 0)
(-6.62574701989488e+18 0 0)
(-6.52410769511232e+18 0 0)
(-6.4192820520325e+18 0 0)
(-6.31112638747535e+18 0 0)
(-6.19876280450207e+18 0 0)
(-6.08191902707928e+18 0 0)
(-5.96107780371566e+18 0 0)
(-5.83398107957743e+18 0 0)
(-5.69514827404804e+18 0 0)
(-5.55175336329032e+18 0 0)
(-5.40198893316473e+18 0 0)
(-5.24728748995825e+18 0 0)
(-5.07908337706415e+18 0 0)
(-4.90230313717649e+18 0 0)
(-4.70731115524732e+18 0 0)
(-4.47180019899512e+18 0 0)
(-4.18668302509801e+18 0 0)
(-3.4929115741259e+18 0 0)
(-2.62043585924825e+18 0 0)
(-2.36461767178846e+18 0 0)
(-2.35190089337537e+18 0 0)
(-2.10107570973993e+18 0 0)
(-1.5700510296391e+18 0 0)
(-9.00380712984642e+17 0 0)
(-3.0474356893365e+17 0 0)
(1.25539894635266e+17 0 0)
(-3.18605599765955e+16 0 0)
(-8.45535855165571e+17 0 0)
(-5.98950533748752e+17 0 0)
(-1.6983128666538e+17 0 0)
(-1.96875554281803e+18 0 0)
(-2.66786864305904e+18 0 0)
(-2.03109997479146e+18 0 0)
(-4.05256881930292e+18 0 0)
(-4.68837111597892e+18 0 0)
(-4.01172328724981e+18 0 0)
(-4.39488932825635e+18 0 0)
(-3.52004303293199e+18 0 0)
(-1.40180329423543e+18 0 0)
(3.22906197007008e+17 0 0)
(2.93329389819213e+18 0 0)
(6.1338258747236e+18 0 0)
(8.53286407449765e+18 0 0)
(1.0648763228398e+19 0 0)
(1.23895424425095e+19 0 0)
(1.27932516981733e+19 0 0)
(1.37302601641118e+19 0 0)
(1.12332934216097e+19 0 0)
(9.91957867069034e+18 0 0)
(8.072721346166e+18 0 0)
(6.04293257397921e+18 0 0)
(8.75936312253488e+18 0 0)
(-3.76058836654493e+18 0 0)
(1.20218425220773e+18 0 0)
(2.74418917935448e+17 0 0)
(-2.14008937146719e+18 0 0)
(-2.15136053397286e+18 0 0)
(-2.08093272296464e+18 0 0)
(-2.15227263221396e+18 0 0)
(-2.40390198129249e+18 0 0)
(-2.68200527529402e+18 0 0)
(-2.86523709480211e+18 0 0)
(-2.96227424502354e+18 0 0)
(-2.99704186566932e+18 0 0)
(-2.99129456909037e+18 0 0)
(-2.97421222895404e+18 0 0)
(-2.94077114249076e+18 0 0)
(-2.90520731673479e+18 0 0)
(-2.86702643247489e+18 0 0)
(-2.82398982999306e+18 0 0)
(-2.77805650078584e+18 0 0)
(-2.73164574337396e+18 0 0)
(-2.6844571080111e+18 0 0)
(-2.6378238431968e+18 0 0)
(-2.5903709245036e+18 0 0)
(-2.5430071303247e+18 0 0)
(-2.49510037870784e+18 0 0)
(-2.4471851305884e+18 0 0)
(-2.39931078335174e+18 0 0)
(-2.35158991484822e+18 0 0)
(-2.30412870285345e+18 0 0)
(-2.2570165746908e+18 0 0)
(-2.21033490961754e+18 0 0)
(-2.16415771857711e+18 0 0)
(-2.11855176598251e+18 0 0)
(-2.07357703359364e+18 0 0)
(-2.02928643394106e+18 0 0)
(-1.98572645248829e+18 0 0)
(-1.94293644050602e+18 0 0)
(-1.9009511296918e+18 0 0)
(-1.8597901529135e+18 0 0)
(-1.81949335650584e+18 0 0)
(-1.77992275647908e+18 0 0)
(-1.7415508010165e+18 0 0)
(-1.70389312552587e+18 0 0)
(-1.66715046985652e+18 0 0)
(-1.63128900807948e+18 0 0)
(-1.5963241366519e+18 0 0)
(-1.56224801007429e+18 0 0)
(-1.52905304263735e+18 0 0)
(-1.4967279265426e+18 0 0)
(-1.46525952907362e+18 0 0)
(-1.434632733151e+18 0 0)
(-1.40483113208348e+18 0 0)
(-1.37583669869979e+18 0 0)
(-1.34763221067842e+18 0 0)
(-1.32019423813583e+18 0 0)
(-1.29353022719461e+18 0 0)
(-1.26751590808308e+18 0 0)
(-1.24227668597864e+18 0 0)
(-1.21776037895169e+18 0 0)
(-1.19383434716304e+18 0 0)
(-1.17058579238577e+18 0 0)
(-1.14795892786969e+18 0 0)
(-1.1259398032608e+18 0 0)
(-1.10450686560514e+18 0 0)
(-1.08364121350282e+18 0 0)
(-1.06332533858806e+18 0 0)
(-1.04354041234559e+18 0 0)
(-1.02426605050676e+18 0 0)
(-1.00548626621874e+18 0 0)
(-9.8718025165663e+17 0 0)
(-9.69342554569935e+17 0 0)
(-9.51858290104789e+17 0 0)
(-9.34946383952655e+17 0 0)
(-9.18453902760743e+17 0 0)
(-9.02321228865259e+17 0 0)
(-8.86579189665361e+17 0 0)
(-8.7121475412614e+17 0 0)
(-8.56218794143263e+17 0 0)
(-8.41579800214839e+17 0 0)
(-8.27286920639367e+17 0 0)
(-8.13328614404418e+17 0 0)
(-7.99695868696578e+17 0 0)
(-7.86364975068871e+17 0 0)
(-7.73352558888823e+17 0 0)
(-7.60391324532852e+17 0 0)
(-7.4820706355902e+17 0 0)
(-7.36175907580809e+17 0 0)
(-7.24379834450025e+17 0 0)
(-7.12839959534786e+17 0 0)
(-7.01551205824763e+17 0 0)
(-6.9022980414811e+17 0 0)
(-6.80032485810217e+17 0 0)
(-6.69673751342639e+17 0 0)
(-6.59262943847342e+17 0 0)
(-6.49763572583418e+17 0 0)
(-6.40419660154032e+17 0 0)
(-6.31371353470979e+17 0 0)
(-6.23181632163065e+17 0 0)
(-6.1605733110638e+17 0 0)
(-6.09706706986833e+17 0 0)
(-5.9892435721729e+17 0 0)
)
;

boundaryField
{
    electrode
    {
        type            calculated;
        value           uniform (-1.58338330095805e+19 0 0);
    }
    ground
    {
        type            calculated;
        value           uniform (-5.962878211056e+17 0 0);
    }
    otherfaces
    {
        type            empty;
    }
}


// ************************************************************************* //
