/*--------------------------------*- C++ -*----------------------------------*\
| =========                 |                                                 |
| \\      /  F ield         | foam-extend: Open Source CFD                    |
|  \\    /   O peration     | Version:     4.0                                |
|   \\  /    A nd           | Web:         http://www.foam-extend.org         |
|    \\/     M anipulation  |                                                 |
\*---------------------------------------------------------------------------*/
FoamFile
{
    version     2.0;
    format      ascii;
    class       volScalarField;
    location    "7e-06";
    object      N_electronMean;
}
// * * * * * * * * * * * * * * * * * * * * * * * * * * * * * * * * * * * * * //

dimensions      [0 0 0 1 0 0 0];

internalField   nonuniform List<scalar> 
300
(
6.08526887549426e+16
6.08511891115997e+16
6.08470783945174e+16
6.08398946293459e+16
6.08296771785629e+16
6.08163911556429e+16
6.08000179227785e+16
6.07805473892335e+16
6.07579697264418e+16
6.07322776404871e+16
6.07034657611962e+16
6.06715304345413e+16
6.06364696111055e+16
6.05982827003046e+16
6.0556970473926e+16
6.05125349700087e+16
6.04649794107071e+16
6.0414308131784e+16
6.03605265140173e+16
6.03036409182382e+16
6.0243658627852e+16
6.01805877943839e+16
6.01144373849063e+16
6.00452171282204e+16
5.99729374754117e+16
5.98976095687983e+16
5.98192451855071e+16
5.97378566813285e+16
5.96534569448233e+16
5.95660593356318e+16
5.94756776443461e+16
5.93823260812422e+16
5.92860192200499e+16
5.918677190786e+16
5.90845992001942e+16
5.89795163088956e+16
5.88715385508277e+16
5.87606813008069e+16
5.86469599402086e+16
5.8530389804797e+16
5.84109861417937e+16
5.82887640661897e+16
5.81637385089448e+16
5.80359241696152e+16
5.79053354753814e+16
5.77719865411449e+16
5.76358911323438e+16
5.74970626318222e+16
5.73555140142367e+16
5.72112578277705e+16
5.70643061934959e+16
5.69146708055851e+16
5.67623629034871e+16
5.66073932205124e+16
5.64497719103908e+16
5.62895084717446e+16
5.61266116833342e+16
5.59610895532586e+16
5.5792949280049e+16
5.56221972149987e+16
5.54488388283568e+16
5.52728786779407e+16
5.5094320374378e+16
5.49131665732716e+16
5.47294189998255e+16
5.45430784160014e+16
5.43541445338094e+16
5.41626159636622e+16
5.39684901895791e+16
5.37717635441944e+16
5.35724311836607e+16
5.33704870768046e+16
5.31659240212245e+16
5.29587336305518e+16
5.27489062884988e+16
5.2536431151521e+16
5.23212961696362e+16
5.21034880639946e+16
5.18829922635633e+16
5.16597928663531e+16
5.14338726354261e+16
5.1205212933582e+16
5.09737936606697e+16
5.07395932330796e+16
5.05025885746569e+16
5.02627551286229e+16
5.00200668349426e+16
4.97744960823917e+16
4.95260136953355e+16
4.92745889393888e+16
4.90201895009466e+16
4.87627815043315e+16
4.85023295395191e+16
4.82387965885291e+16
4.79721439565982e+16
4.77023312575029e+16
4.74293163983845e+16
4.71530555653157e+16
4.68735032093356e+16
4.65906120434589e+16
4.63043330389949e+16
4.60146154011276e+16
4.57214065762253e+16
4.54246522791705e+16
4.51242964626771e+16
4.48202812996028e+16
4.45125471876117e+16
4.42010327417079e+16
4.38856748039112e+16
4.35664084268798e+16
4.32431668482753e+16
4.29158814886532e+16
4.25844819607385e+16
4.2248896096081e+16
4.19090499553552e+16
4.15648678389674e+16
4.1216272345471e+16
4.08631844015602e+16
4.05055232302535e+16
4.01432063283375e+16
3.97761495004544e+16
3.94042669120516e+16
3.90274711343614e+16
3.86456731994894e+16
3.82587825970614e+16
3.78667072299187e+16
3.74693534330987e+16
3.70666260190819e+16
3.66584282867835e+16
3.62446620408912e+16
3.58252276384325e+16
3.54000240346288e+16
3.49689488189547e+16
3.45318982488777e+16
3.40887673463584e+16
3.36394500120295e+16
3.31838390398795e+16
3.2721826088265e+16
3.2253301701889e+16
3.17781553695147e+16
3.12962755516593e+16
3.08075497022416e+16
3.03118643115042e+16
2.98091049622431e+16
2.92991564436449e+16
2.8781902850883e+16
2.82572275954427e+16
2.77250133997807e+16
2.71851422891964e+16
2.66374956486434e+16
2.60819543484444e+16
2.55183987846072e+16
2.49467089355625e+16
2.43667644900221e+16
2.37784448860029e+16
2.31816294549825e+16
2.25761976163095e+16
2.19620292466153e+16
2.13390046613569e+16
2.07070043063705e+16
2.006590596735e+16
1.94155701095319e+16
1.87558174051618e+16
1.80864205910253e+16
1.7407104281818e+16
1.67175401846172e+16
1.60173662006707e+16
1.53062257188262e+16
1.45837846152257e+16
1.38497389066866e+16
1.31038586134508e+16
1.23460996646771e+16
1.15767608449839e+16
1.07966573785549e+16
1.0007367566892e+16
9.2114433975831e+15
8.41251375340647e+15
7.61548546318556e+15
6.82667414768438e+15
6.05363304055255e+15
5.30489828994595e+15
4.58962009715093e+15
3.91689112326748e+15
3.29502151378007e+15
2.73086490621833e+15
2.22914537373773e+15
1.79205367377907e+15
1.41917709473962e+15
1.10766484663174e+15
852679089404824
648017620494500
486760787345686
361871352247373
266673593734739
194802526546379
141028499665181
101206467363972
71943002607017.7
50511828245078.6
34851076120820.7
23699839942525.2
15916255636608.1
10532200816193.9
6963920223490.26
4744327131817
3442414263028.37
2703544520361.03
2283445961814.18
2037708228008.09
1887810727809.13
1792075462274.15
1727974993549.77
1682832194746.84
1649227061529.96
1622618186719.2
1600124164332.35
1579839763846.82
1560490998047.11
1541295594870.06
1521748377642.7
1501484811938.33
1480272922882.75
1457995546674.63
1434619538277.56
1410169256483.5
1384707792984.97
1358324951618.1
1331126818777.11
1303229058891.04
1274751872111.4
1245816225160.65
1216541686699.31
1187043625513.01
1157431985158.14
1127810417286.81
1098275149391.84
1068914416913.56
1039808755138.87
1011030178393.53
982642608661.405
954701198566.439
927252189213.504
900336082701.427
873988320232.338
848238940817.196
823112428094.288
798627006152.571
774795664431.686
751626707168.774
729124452845.605
707290687335.612
686124455715.211
665621798453.284
645776010437.774
626578293023.708
608019076510.923
590085934107.05
572762561455.452
556033652072.478
539885154728.207
524301728686.894
509266833583.061
494763605839.466
480774839209.534
467283315750.365
454272107138.992
441723566757.81
429619785806.408
417943356962.672
406676917684.177
395802706029.304
385303078624.862
375162812104.196
365369712465.005
355912570217.106
346780958539.944
337965073759.92
329455651517.274
321244202760.442
313323048382.581
305685204311.901
298323652139.615
291230634782.796
284387646431.555
277768218761.799
271362739566.396
265178431696.157
259225078033.583
253513059443.047
248030062363.38
242751588726.753
237690477630.802
232888939031.738
228347560441.128
224094484908.972
220211083488.518
216821243166.193
214180900516.542
212706161413.722
213144214443.209
)
;

boundaryField
{
    electrode
    {
        type            calculated;
        value           uniform 6.08526887551118e+16;
    }
    ground
    {
        type            calculated;
        value           uniform 214853369251.434;
    }
    otherfaces
    {
        type            empty;
    }
}


// ************************************************************************* //
