/*--------------------------------*- C++ -*----------------------------------*\
| =========                 |                                                 |
| \\      /  F ield         | foam-extend: Open Source CFD                    |
|  \\    /   O peration     | Version:     4.0                                |
|   \\  /    A nd           | Web:         http://www.foam-extend.org         |
|    \\/     M anipulation  |                                                 |
\*---------------------------------------------------------------------------*/
FoamFile
{
    version     2.0;
    format      ascii;
    class       volScalarField;
    location    "7e-06";
    object      Phi;
}
// * * * * * * * * * * * * * * * * * * * * * * * * * * * * * * * * * * * * * //

dimensions      [0 0 0 1 0 0 0];

internalField   nonuniform List<scalar> 
300
(
699.999927087828
699.999712056097
699.9992041666
699.998436571025
699.997417681975
699.996142137965
699.994610816737
699.992823282431
699.990778973216
699.988477398976
699.985917973066
699.983100056627
699.980022956049
699.976685919712
699.973088138777
699.969228746542
699.965106817927
699.960721368993
699.956071356389
699.951155676775
699.945973166216
699.940522599534
699.93480268964
699.928812086823
699.922549378004
699.916013085963
699.909201668521
699.902113517698
699.894746958821
699.88710024961
699.87917157921
699.870959067202
699.862460762558
699.85367464257
699.844598611727
699.835230500559
699.825568064432
699.8156089823
699.805350855417
699.794791205993
699.783927475812
699.772757024793
699.761277129504
699.749484981625
699.73737768635
699.724952260745
699.712205632033
699.699134635832
699.685736014324
699.672006414357
699.657942385489
699.643540377952
699.62879674055
699.613707718478
699.59826945106
699.582477969414
699.566329194015
699.549818932186
699.532942875479
699.515696596969
699.498075548436
699.480075057447
699.461690324321
699.442916418973
699.423748277636
699.404180699452
699.384208342926
699.363825722232
699.343027203371
699.321807000164
699.300159170085
699.278077609902
699.255556051146
699.232588055379
699.209167009251
699.18528611933
699.16093840668
699.136116701194
699.11081363587
699.08502164101
699.058732937473
699.031939527565
699.004633185529
698.976805458745
698.948447686727
698.919550988747
698.890106117755
698.86010329388
698.829532377762
698.79838294057
698.766644257416
698.734305296143
698.701354705308
698.667780801079
698.633571553372
698.598714571216
698.563197087345
698.527005941952
698.49012756556
698.452547960938
698.414252684012
698.37522682369
698.33545498052
698.294921244106
698.253609169196
698.211501750325
698.168581394932
698.124829894825
698.080228395856
698.034757365708
697.9883965596
697.941124983786
697.892920856663
697.843761567278
697.793623631061
697.742482642514
697.690313224641
697.637088974821
697.582782406825
697.527364888652
697.47080657581
697.413076339629
697.354141690183
697.293968693291
697.232521881074
697.169764155448
697.105656683876
697.040158786617
696.97322781464
696.90481901726
696.834885398426
696.76337756051
696.690243534231
696.615428593257
696.538875051774
696.460522043131
696.380305277395
696.298156775386
696.214004576395
696.127772416422
696.039379373313
695.948739474662
695.855761263694
695.76034731768
695.662393712553
695.561789426605
695.45841567427
695.352145160522
695.242841245575
695.130357005598
695.014534164366
694.895201901042
694.772175524947
694.645254823733
694.514222385376
694.378841765527
694.238854782595
694.093977858679
693.943900318681
693.788279800205
693.626739936803
693.458862725543
693.284186516713
693.102194492824
692.91230995027
692.713875012843
692.506013612955
692.287665995199
692.057720302377
691.814941787026
691.557919958895
691.284958921961
690.994054236202
690.682834072792
690.348555196426
689.988282356412
689.598950139266
689.176596153382
688.716851752192
688.215724440267
687.668171289409
687.068609530985
686.412224486202
685.693203328773
684.905618302121
684.04440414056
683.104076780454
682.079273840787
680.966077062081
679.760343959012
678.458296059581
677.057883308652
675.557334944813
673.955160906865
672.250335325678
670.443160576607
668.533932687494
666.523067325677
664.410931522208
662.197698891692
659.884025384191
657.470326458416
654.955764868108
652.339754981773
649.621424182138
646.800719723154
643.877974280172
640.853985036647
637.72970063954
634.506111495414
631.184184973353
627.764823442731
624.248850837382
620.636995244731
616.930298356525
613.129788575676
609.23642507553
605.251061338773
601.174493852844
597.007423722004
592.750506511168
588.404311449979
583.969372784549
579.446146898486
574.835063684733
570.136481457413
565.351046203183
560.479343021418
555.521952704022
550.479383626972
545.352146796163
540.14068523124
534.845450316201
529.466828702154
524.005220019249
518.460961551159
512.834407439396
507.125851286873
501.335606917391
495.463928810885
489.511094437422
483.477322879618
477.362902563315
471.168232242368
464.89373436706
458.539776858487
452.106753607082
445.595004553408
439.004897653548
432.336747367475
425.590898123446
418.767641144858
411.867299266208
404.890142217249
397.836472708207
390.706540326698
383.500628983721
376.218969484423
368.861828152417
361.42941810123
353.921989071158
346.339737326816
338.682896721288
330.951647304924
323.146207609879
315.266742048879
307.313531922911
299.286861504946
291.187055966965
283.014384268477
274.769157324369
266.451629674761
258.062098762633
249.600805405391
241.06803422871
232.464012921044
223.789013962129
215.043252572145
206.22698974772
197.340428934204
188.383820286879
179.357356150782
170.261276464901
161.095763089852
151.861046227001
142.557297905129
133.18473922535
123.743532837078
114.233891068443
104.655967550151
95.0099660845008
85.2960316081258
75.5143600463039
65.6650882718289
55.7484045458498
45.7644382213897
35.7133708528113
25.5953249087468
15.4104766057609
5.15894260477775
)
;

boundaryField
{
    electrode
    {
        type            fixedValue;
        value           uniform 700;
    }
    ground
    {
        type            fixedValue;
        value           uniform 0;
    }
    otherfaces
    {
        type            empty;
    }
}


// ************************************************************************* //
