/*--------------------------------*- C++ -*----------------------------------*\
| =========                 |                                                 |
| \\      /  F ield         | foam-extend: Open Source CFD                    |
|  \\    /   O peration     | Version:     4.0                                |
|   \\  /    A nd           | Web:         http://www.foam-extend.org         |
|    \\/     M anipulation  |                                                 |
\*---------------------------------------------------------------------------*/
FoamFile
{
    version     2.0;
    format      ascii;
    class       volScalarField;
    location    "7e-06";
    object      PhiMean;
}
// * * * * * * * * * * * * * * * * * * * * * * * * * * * * * * * * * * * * * //

dimensions      [0 0 0 1 0 0 0];

internalField   nonuniform List<scalar> 
300
(
699.989466880789
699.988377031978
699.987014828089
699.985404729198
699.983555958988
699.981461964225
699.979122389804
699.976536217088
699.973702419501
699.970620218706
699.967288910831
699.963707898257
699.959876662455
699.955794755236
699.951461790337
699.946877434438
699.942041399991
699.936953440249
699.931613343191
699.926020925653
699.920176029224
699.914078515784
699.907728263547
699.901125162845
699.894269111595
699.887160019509
699.879797799046
699.872182361417
699.864313615457
699.856191460473
699.847815780801
699.839186454952
699.830303348705
699.821166302355
699.811775127482
699.80212960311
699.792229471284
699.782074434718
699.771664152261
699.760998233702
699.750076237079
699.738897666058
699.727461963606
699.715768508509
699.703816611517
699.691605511829
699.679134373211
699.666402281166
699.653408239826
699.640151171744
699.626629916439
699.612843237489
699.598789813827
699.584468239508
699.56987700896
699.555014510458
699.539879015273
699.524468672368
699.508781503494
699.492815397495
699.476568105649
699.460037236414
699.443220249479
699.426114449635
699.408716997744
699.3910249041
699.373035006164
699.354743963199
699.336148250686
699.317244154021
699.298027761909
699.27849495895
699.258641428462
699.238462648717
699.217953874014
699.197110134504
699.175926239605
699.154396764905
699.132516042295
699.110278135645
699.087676856651
699.064705731585
699.041357989243
699.017626553389
698.993504028464
698.968982701642
698.944054526964
698.918711104855
698.892943670142
698.866743086768
698.840099829861
698.813003969838
698.785445187451
698.757412726125
698.728895372651
698.699881441379
698.670358754464
698.640314624125
698.609735829183
698.578608597432
698.546918584704
698.514650847139
698.48178981204
698.448319274308
698.414222348605
698.379481441764
698.34407822892
698.307993608905
698.271207683279
698.233699709711
698.195448056722
698.156430163814
698.116622493976
698.076000492904
698.034538539423
697.992209882434
697.948986601112
697.904839548866
697.859738269731
697.813650921711
697.766544199364
697.718383269697
697.669131671601
697.618751243905
697.56720200904
697.514442043868
697.460427357161
697.405111773425
697.348446773174
697.290381340513
697.230861794664
697.169831609547
697.107231209699
697.04299774492
696.977064854117
696.909362436483
696.839816333943
696.768348000689
696.694874131009
696.619306281849
696.541550421831
696.461506439457
696.379067600643
696.29411993638
696.206541580679
696.116202034211
696.022961278111
695.926668804789
695.827162503411
695.724267403905
695.617794308285
695.507538143075
695.393276095417
695.274765514517
695.151741420276
695.023913606778
694.890963438158
694.75253979805
694.608254942636
694.457678290736
694.300331463447
694.135675685626
693.963088477207
693.781846503463
693.591115954628
693.389920690458
693.177122271332
692.951411225967
692.711268732808
692.454905673963
692.180208506386
691.884705835935
691.56556556488
691.219499890882
690.842775082109
690.431294569505
689.98040900171
689.484948396195
688.939532957018
688.338383982975
687.675411242575
686.944623972216
686.140090875119
685.255947847738
684.287044503266
683.228684078707
682.076733478758
680.828018266263
679.48017669232
678.031416986011
676.480723452928
674.827748305644
673.072651721235
671.215965941419
669.258429540011
667.200774114526
665.043612565715
662.787338513567
660.432324746684
657.978881653164
655.427314568799
652.777699155445
650.030066962885
647.184672548913
644.242040050599
641.202916208508
638.068183465889
634.838778837106
631.515632541872
628.099614631399
624.591544335682
620.99215729978
617.302206692351
613.522535823604
609.654060610944
605.69761476296
601.653983870024
597.523873419953
593.307951834328
589.00681569166
584.621034186532
580.151111651664
575.597533590886
570.960727054339
566.241108650073
561.439124904618
556.555384289657
551.590437172296
546.544832692636
541.41906443326
536.213630236992
530.928974766436
525.565552514567
520.123768637667
514.604042653187
509.006744707338
503.332262690624
497.580935647265
491.753123662037
485.849138336311
479.869315510168
473.813943121831
467.683345637256
461.477918553189
455.198120843105
448.844357471101
442.417063779325
435.916620601216
429.343441725045
422.697885684514
415.980346506479
409.191161943832
402.330707813345
395.399302351229
388.397304498944
381.325014078761
374.182774278082
366.970867494016
359.68962211167
352.339304002138
344.920227555196
337.432642930445
329.876851278713
322.253087641248
314.56164062871
306.802733725309
298.976660122229
291.083677881123
283.124139989799
275.098347885479
267.006672371368
258.849401107899
250.626893530591
242.339423173688
233.98733879841
225.570900356795
217.090446577629
208.546224369993
199.938563015585
191.267696895611
182.533946387373
173.737533780223
164.878771077503
155.957868890089
146.975131458142
137.930758222644
128.825046218708
119.658184065541
110.430462048868
101.14205828635
91.7932567078253
82.384225441828
72.9152427814155
63.3864672588346
53.7981718591478
44.1505061774926
34.443738782808
24.6780108685414
14.8535877481301
4.97060321532037
)
;

boundaryField
{
    electrode
    {
        type            calculated;
        value           uniform 699.99999999967;
    }
    ground
    {
        type            calculated;
        value           uniform 0;
    }
    otherfaces
    {
        type            empty;
    }
}


// ************************************************************************* //
