/*--------------------------------*- C++ -*----------------------------------*\
| =========                 |                                                 |
| \\      /  F ield         | foam-extend: Open Source CFD                    |
|  \\    /   O peration     | Version:     4.0                                |
|   \\  /    A nd           | Web:         http://www.foam-extend.org         |
|    \\/     M anipulation  |                                                 |
\*---------------------------------------------------------------------------*/
FoamFile
{
    version     2.0;
    format      ascii;
    class       volScalarField;
    location    "7e-06";
    object      Sy_electron;
}
// * * * * * * * * * * * * * * * * * * * * * * * * * * * * * * * * * * * * * //

dimensions      [1 -3 -1 0 0 0 0];

internalField   nonuniform List<scalar> 
300
(
3.28245305680328e-09
3.28319456752921e-09
3.28347495052603e-09
3.28340058094419e-09
3.28334685524448e-09
3.28324067669716e-09
3.28309109328958e-09
3.28290300389495e-09
3.2826740295185e-09
3.28240430636023e-09
3.28209353878429e-09
3.28174133595449e-09
3.2813473492689e-09
3.28091119874169e-09
3.28043248876736e-09
3.27991080848266e-09
3.27934573015965e-09
3.27873680954753e-09
3.27808358564224e-09
3.27738558050415e-09
3.27664229909416e-09
3.27585322909267e-09
3.27501784072353e-09
3.27413558656645e-09
3.27320590133439e-09
3.27222820176272e-09
3.27120188634138e-09
3.27012633512112e-09
3.26900090953905e-09
3.26782495217603e-09
3.26659778652685e-09
3.26531871685329e-09
3.26398702793781e-09
3.26260198482578e-09
3.26116283261799e-09
3.2596687962491e-09
3.25811908024081e-09
3.25651286848875e-09
3.2548493240139e-09
3.25312758872069e-09
3.25134678315016e-09
3.24950600624351e-09
3.24760433509003e-09
3.24564082467192e-09
3.24361450761366e-09
3.24152439392971e-09
3.23936947076341e-09
3.23714870212189e-09
3.23486102860597e-09
3.23250536716287e-09
3.23008061079124e-09
3.22758562832886e-09
3.22501926410046e-09
3.22238033771423e-09
3.21966764372472e-09
3.21687995136937e-09
3.2140160042525e-09
3.21107452006808e-09
3.20805419029894e-09
3.20495367991042e-09
3.20177162705434e-09
3.19850664273884e-09
3.19515731050579e-09
3.19172218608842e-09
3.18819979712393e-09
3.1845886428139e-09
3.18088719350101e-09
3.17709389033995e-09
3.17320714492489e-09
3.16922533890275e-09
3.16514682356738e-09
3.16096991944119e-09
3.15669291586443e-09
3.1523140705802e-09
3.14783160927768e-09
3.1432437251421e-09
3.1385485779835e-09
3.13374429325121e-09
3.12882896276721e-09
3.12380064828617e-09
3.11865738160545e-09
3.11339714256899e-09
3.10801782116106e-09
3.10251727280071e-09
3.09689360816845e-09
3.09114538172425e-09
3.08617510075289e-09
3.0819693894923e-09
3.07765403205781e-09
3.07322636224306e-09
3.06868383098949e-09
3.06402387938025e-09
3.0592439135509e-09
3.05434129480262e-09
3.04931333562865e-09
3.04415729723901e-09
3.03887038743774e-09
3.03344975855312e-09
3.02789250530032e-09
3.02219566258846e-09
3.01635620317306e-09
3.01037103519569e-09
3.0042369995657e-09
2.99795086734661e-09
2.99150933675186e-09
2.98490903016244e-09
2.9781464909379e-09
2.97121817994933e-09
2.96412047207705e-09
2.95684965234623e-09
2.94940191189589e-09
2.94177334371989e-09
2.93395993811735e-09
2.9259575778929e-09
2.9177620332401e-09
2.90936895627828e-09
2.90077387529376e-09
2.89197218864233e-09
2.88295915811224e-09
2.87372990196215e-09
2.86427938745897e-09
2.85460242302632e-09
2.84469364965733e-09
2.83454753196352e-09
2.82415834845842e-09
2.81352018118865e-09
2.80262690464387e-09
2.7914721739889e-09
2.78004941226333e-09
2.76835179680267e-09
2.75637224458246e-09
2.74410339654682e-09
2.73153760071958e-09
2.71866689402432e-09
2.70548298277023e-09
2.69197722170405e-09
2.67814059123623e-09
2.66396367298329e-09
2.64943662343013e-09
2.63454914542935e-09
2.61929045734535e-09
2.60364925978244e-09
2.58761369953238e-09
2.57117133031391e-09
2.55430907072162e-09
2.5370131591087e-09
2.5192691021716e-09
2.50106161835299e-09
2.48237459092851e-09
2.46319100629771e-09
2.44349280674401e-09
2.42326097506912e-09
2.40247547082011e-09
2.38111463816533e-09
2.35915574363145e-09
2.33668179085872e-09
2.31532997340189e-09
2.29332586319346e-09
2.27063844236505e-09
2.24723670485366e-09
2.22308822985001e-09
2.19815928834856e-09
2.17242605070609e-09
2.14587449667485e-09
2.11864648042337e-09
2.09094125921157e-09
2.06247646675058e-09
2.03272654272686e-09
2.00154505477253e-09
1.96904897206896e-09
1.93531783144404e-09
1.90024499167223e-09
1.86354058354879e-09
1.82460198160463e-09
1.78249999651137e-09
1.73438149427052e-09
1.6826746232692e-09
1.62716024059337e-09
1.56702694792561e-09
1.50398677820131e-09
1.43750115337792e-09
1.36694225955776e-09
1.29505755046459e-09
1.2200224750609e-09
1.14091979828166e-09
1.06732731146953e-09
1.0027942375552e-09
9.47084961613848e-10
8.96199152049577e-10
8.70665917406934e-10
8.5120156453624e-10
8.59888945723951e-10
8.96946557292994e-10
9.7146306795239e-10
1.10322199922247e-09
1.30406861565108e-09
1.64073871045062e-09
2.2089092781892e-09
3.21767953268425e-09
4.4973192693957e-09
5.64865743533759e-09
6.95939540043283e-09
7.46853916389757e-09
6.88297655851403e-09
5.68611742132579e-09
4.39317323885975e-09
3.30566851889143e-09
2.55245593028052e-09
2.05213576460993e-09
1.7389061457969e-09
1.54399023876427e-09
1.43127930708292e-09
1.36061450625555e-09
1.32401782533114e-09
1.30545873142767e-09
1.29656397035723e-09
1.29582648040711e-09
1.29948596083242e-09
1.30516803843129e-09
1.31144123258582e-09
1.31715043418063e-09
1.32029275207388e-09
1.32117047706069e-09
1.32010830543518e-09
1.31693110457918e-09
1.31156619691553e-09
1.30401921765481e-09
1.29435046626456e-09
1.28265872746488e-09
1.26906996182215e-09
1.25372867923603e-09
1.23679122596546e-09
1.2184204853237e-09
1.19878168320258e-09
1.17803906950116e-09
1.15635331790022e-09
1.13387946836259e-09
1.11076542871149e-09
1.08715009410483e-09
1.06316307339881e-09
1.03890936518038e-09
1.01448839767877e-09
9.90007747532719e-10
9.65565648657761e-10
9.41251478159374e-10
9.17144409658284e-10
8.93313896422018e-10
8.6982010942892e-10
8.46714520403622e-10
8.24040508307726e-10
8.01833983637736e-10
7.8012402204964e-10
7.5893347345991e-10
7.38279690891138e-10
7.18174944127375e-10
6.98629320253719e-10
6.79645010074852e-10
6.61218382564238e-10
6.43346976903797e-10
6.26028286164201e-10
6.09254892300447e-10
5.93017685788338e-10
5.77305907924541e-10
5.6210762112098e-10
5.47409966485869e-10
5.33199548231568e-10
5.19462849477389e-10
5.06186278796153e-10
4.93356056417493e-10
4.80957766091284e-10
4.68976732109188e-10
4.5738871955897e-10
4.46165339187373e-10
4.35289198972262e-10
4.24749041342167e-10
4.14534826931474e-10
4.04637374588594e-10
3.95048127672611e-10
3.85759201399479e-10
3.76763455487868e-10
3.68054522424154e-10
3.59626967553483e-10
3.51475019672531e-10
3.43041838740719e-10
3.34741216788479e-10
3.26633100094692e-10
3.18720084457151e-10
3.11016963748366e-10
3.03540135829376e-10
2.9604693748136e-10
2.87728975653522e-10
2.79579787004724e-10
2.71656028440768e-10
2.63026775523757e-10
2.53416866220871e-10
2.4405630059762e-10
2.31795032351598e-10
2.182889755536e-10
2.01153057849548e-10
1.76574590562686e-10
)
;

boundaryField
{
    electrode
    {
        type            zeroGradient;
    }
    ground
    {
        type            zeroGradient;
    }
    otherfaces
    {
        type            empty;
    }
}


// ************************************************************************* //
