/*--------------------------------*- C++ -*----------------------------------*\
| =========                 |                                                 |
| \\      /  F ield         | foam-extend: Open Source CFD                    |
|  \\    /   O peration     | Version:     4.0                                |
|   \\  /    A nd           | Web:         http://www.foam-extend.org         |
|    \\/     M anipulation  |                                                 |
\*---------------------------------------------------------------------------*/
FoamFile
{
    version     2.0;
    format      ascii;
    class       volScalarField;
    location    "7e-06";
    object      Te;
}
// * * * * * * * * * * * * * * * * * * * * * * * * * * * * * * * * * * * * * //

dimensions      [0 0 0 1 0 0 0];

internalField   nonuniform List<scalar> 
300
(
40177.0684613747
40177.3611391881
40177.5384887541
40177.6452350508
40177.813345926
40178.0173725176
40178.2606530984
40178.5449766922
40178.8696050302
40179.2346906709
40179.6402441726
40180.0862543166
40180.572735776
40181.0997034372
40181.6671780231
40182.2751862742
40182.9237604635
40183.6129385944
40184.3427644027
40185.1132873831
40185.9245628267
40186.7766518558
40187.6696214676
40188.6035445753
40189.5785000558
40190.5945728033
40191.6518537857
40192.7504400989
40193.8904350328
40195.0719481378
40196.2950952965
40197.5599987975
40198.8667874152
40200.2155964946
40201.6065680356
40203.0398507887
40204.5156003537
40206.0339792776
40207.5951571644
40209.1993107877
40210.8466242058
40212.5372888873
40214.2715038364
40216.049475726
40217.8714190417
40219.7375562273
40221.648117833
40223.6033426783
40225.6034780165
40227.648779705
40229.7395123893
40231.8759496884
40234.0583743879
40236.2870786465
40238.5623642075
40240.8845426171
40243.2539354554
40245.6708745772
40248.1357023582
40250.6487719553
40253.2104475771
40255.821104763
40258.4811306803
40261.1909244251
40263.9508973412
40266.7614733518
40269.6230893036
40272.5361953283
40275.501255214
40278.5187467985
40281.5891623757
40284.7130091159
40287.8908095114
40291.1231018466
40294.4104406974
40297.7533974281
40301.1525605903
40304.6085362983
40308.1219492319
40311.6934448001
40315.3236900964
40319.0133669183
40322.7631582792
40326.5737682427
40330.4460301017
40334.3809858895
40338.3795994897
40342.4425284291
40346.5704252647
40350.7641210408
40355.0245287008
40359.3526025804
40363.7493315909
40368.2157377633
40372.7528767676
40377.3618390467
40382.0437511715
40386.7997773266
40391.6311208894
40396.5390260979
40401.5247798133
40406.5897133819
40411.735204606
40416.9626798216
40422.273616104
40427.6695435991
40433.1520479952
40438.7227731484
40444.3834238663
40450.1357688645
40455.9816439119
40461.9229551784
40467.9616827984
40474.0998846711
40480.3397005152
40486.683356199
40493.1331683672
40499.6915493963
40506.3610127
40513.1441784185
40520.0437795234
40527.0626683841
40534.20382383
40541.4703587547
40548.8655283226
40556.3927388298
40564.0555572846
40571.8577217837
40579.8031527608
40587.8959652052
40596.1404819521
40604.5412481545
40613.1030470761
40621.8309173549
40630.7301718997
40639.8064186193
40649.0655831977
40658.5139341747
40668.1581106158
40678.0051526935
40688.0625355839
40698.3382071111
40708.8406296434
40719.5788267461
40730.5624355575
40741.8017656957
40753.3078645918
40765.0925907579
40777.1687024031
40789.5499538004
40802.2511723548
40815.2884455364
40828.6792725388
40842.4425219507
40856.598872722
40871.171919275
40886.1870807549
40901.6712518326
40917.6539037407
40934.1685352538
40951.2526497075
40968.9484645492
40987.3086069735
41006.3976566929
41026.3595525057
41047.3843227168
41069.4723568717
41092.5282180362
41116.6373696792
41142.0250002667
41168.9292412458
41197.5369403373
41227.9844659484
41260.2846889662
41294.2943540543
41330.3651947482
41369.2437530299
41410.6172840253
41454.3757662466
41501.9828045581
41553.5421177127
41608.997155911
41670.6936516255
41740.2432259465
41819.592861507
41913.5860403164
42027.6457280504
42168.9609711599
42349.6833867899
42585.1338458106
42895.4731239728
43311.266368394
43873.7797011884
44646.4777005863
45709.4442486536
47168.1406619041
49214.7388646896
52112.6197610761
56383.5355395764
61992.0324116725
69131.658627267
80367.4421710837
96322.6102901925
118034.530180143
148251.289002007
189187.253826587
241524.855595031
302975.778618184
368938.871292564
434562.206272602
496200.971921621
551997.526957461
601309.649151902
644335.311998194
681742.709182599
714198.126932745
742463.023470329
767267.861303704
789199.303697357
808728.054788796
826224.476307633
841999.695497651
856327.674246259
869432.629070336
881503.403555455
892691.582210795
903122.971770751
912901.498726015
922113.157528029
930829.20446725
939108.612788941
947000.036084172
954543.386955603
961771.117666457
968709.264784736
975378.313505991
981793.894959252
987967.491780647
993906.690876439
999617.845863768
1005098.70671774
1010344.87861484
1015355.72084138
1020125.54204206
1024646.95201564
1028910.45400582
1032904.9373308
1036617.80686079
1040035.15173071
1043141.87983406
1045921.84191799
1048357.9490159
1050432.24530151
1052126.08224002
1053419.59806512
1054293.32856458
1054716.33123545
1054690.05690372
1054180.82717111
1053168.20990726
1051629.38321209
1049542.02967817
1046883.38842952
1043630.42564682
1039759.72779832
1035247.50444363
1030069.69802762
1024201.91811788
1017619.45257265
1010296.88618687
1002211.39089939
993336.382956672
983641.769686769
973102.131362665
961690.196491054
949375.689417699
936126.799117859
921909.940374744
906689.622866512
890428.207311215
873085.531961563
854619.094729879
834982.471335611
814135.92439359
792025.233538546
768586.546880448
743761.023364724
717471.812924887
689630.824599637
660155.045944884
628934.414907982
595834.546422767
560719.939699351
523401.158314656
483645.191498945
441164.795479735
395562.439506908
346273.208769142
292478.488614194
233105.3991948
)
;

boundaryField
{
    electrode
    {
        type            electronTemperature;
        seec            0.05;
        Tse             1000;
        Edepend         1;
        TFN             1000;
        field_emission  0;
        field_enhancement_factor 55;
        work_function   5;
        value           uniform 40177.0684613747;
    }
    ground
    {
        type            electronTemperature;
        seec            0.05;
        Tse             1000;
        Edepend         1;
        TFN             1000;
        field_emission  0;
        field_enhancement_factor 55;
        work_function   5;
        value           uniform 199433.455932765;
    }
    otherfaces
    {
        type            empty;
    }
}


// ************************************************************************* //
