/*--------------------------------*- C++ -*----------------------------------*\
| =========                 |                                                 |
| \\      /  F ield         | foam-extend: Open Source CFD                    |
|  \\    /   O peration     | Version:     4.0                                |
|   \\  /    A nd           | Web:         http://www.foam-extend.org         |
|    \\/     M anipulation  |                                                 |
\*---------------------------------------------------------------------------*/
FoamFile
{
    version     2.0;
    format      ascii;
    class       volScalarField;
    location    "7e-06";
    object      TeMean;
}
// * * * * * * * * * * * * * * * * * * * * * * * * * * * * * * * * * * * * * //

dimensions      [0 0 0 1 0 0 0];

internalField   nonuniform List<scalar> 
300
(
35682.1166818902
35682.4096106504
35682.5415009861
35682.5473364241
35682.5752049957
35682.6040748359
35682.6368729923
35682.6763238667
35682.72239674
35682.7757049158
35682.8367661244
35682.9060652238
35682.9840827966
35683.0712701771
35683.1680655971
35683.2748928819
35683.3921601826
35683.5202643537
35683.659590536
35683.8105119907
35683.9733926488
35684.1485851971
35684.3364332687
35684.5372707933
35684.7514216351
35684.9792096567
35685.2209520619
35685.4769569892
35685.747531382
35686.0329703822
35686.3335561684
35686.649580383
35686.9813419205
35687.3291290212
35687.6932244192
35688.0739016954
35688.471432641
35688.8860953749
35689.3181664125
35689.7679165743
35690.2356128263
35690.7215286757
35691.2259367596
35691.7491063231
35692.2913064773
35692.8528059962
35693.4338729521
35694.0347739169
35694.6557710739
35695.297122189
35695.959080863
35696.6419100185
35697.3458895585
35698.0712996698
35698.8184253034
35699.587561701
35700.3790000142
35701.1930292084
35702.0299479958
35702.8900591651
35703.7736682488
35704.6810919185
35705.6126359516
35706.5686046972
35707.5493334517
35708.55517502
35709.5864828801
35710.6436131419
35711.7269280967
35712.8368008441
35713.973608088
35715.1377223159
35716.3295357089
35717.5494568976
35718.7978916061
35720.0752451445
35721.3819481132
35722.7184635291
35724.0852520164
35725.482777543
35726.91153905
35728.3720521577
35729.8648295759
35731.3903884115
35732.9492590411
35734.542004711
35736.1692171408
35737.831493765
35739.5294420767
35741.263697219
35743.0349013305
35744.8437143204
35746.6908584409
35748.5770629181
35750.5030682228
35752.4696580354
35754.4776333429
35756.5278227726
35758.6210783941
35760.7582844564
35762.9403719478
35765.168278073
35767.4429710051
35769.7654857634
35772.1368897707
35774.558283012
35777.0308020597
35779.5556285799
35782.1340014945
35784.7672053028
35787.4565752242
35790.2034974381
35793.0094060885
35795.8758130813
35798.8042826958
35801.796431656
35804.8539413296
35807.9785855848
35811.1722351128
35814.4368055192
35817.7742922173
35821.1867932364
35824.6764978229
35828.2457135686
35831.8968787359
35835.6325317428
35839.4553114149
35843.3680056756
35847.3735569534
35851.4750360797
35855.675670097
35859.9788752312
35864.3882638813
35868.907607474
35873.5408807705
35878.2923504899
35883.1665517389
35888.1682789289
35893.3026223615
35898.5750046614
35903.9912100273
35909.5574075439
35915.2801850223
35921.1665819934
35927.2241738618
35933.4611548608
35939.8863769842
35946.5094264251
35953.3406417722
35960.3912444058
35967.6735363724
35975.2009451453
35982.9881794645
35991.0515049647
35999.4088166074
36008.0799841014
36017.0870618729
36026.455066709
36036.2124936846
36046.393809015
36057.0492560878
36068.2440249104
36080.0388279086
36092.4943904882
36105.6863925401
36119.6839332526
36134.553712945
36150.4037767163
36167.379425905
36185.6178288419
36205.2080668069
36226.2329326422
36248.8118516367
36272.9763165285
36298.7852642362
36326.5160349829
36356.3188530997
36388.3482521101
36423.3491144739
36462.3817889206
36506.9574740803
36560.0362672005
36626.1220794079
36711.7671696681
36827.3604613105
36988.1370656438
37216.0395176005
37543.8750138856
38020.3417295437
38718.5210921574
39750.8202141887
41294.1881948798
43633.8523072372
47315.0938544546
52890.4467884246
60747.4257132377
72167.2380648656
87785.9022555789
108786.052133852
135538.593483989
168145.646288243
206064.54782394
248189.704042858
293613.917877833
341604.347852265
391339.38627254
441626.191811699
490838.110275618
537369.374203565
580081.025366081
618435.842838643
652416.721709832
682332.100388385
708651.069210483
731861.191724645
752421.647408868
770770.160865053
787279.739897881
802251.245497677
815931.250013734
828515.847296049
840166.028610081
851026.187915206
861215.352400072
870830.557420269
879951.217649527
888642.826704837
896959.134165612
904944.039813549
912633.212818705
920055.334014566
927233.114746675
934184.125676707
940921.411780718
947454.099359748
953787.928639113
959925.600551526
965867.144743424
971610.18660815
977150.437466612
982481.423195924
987594.457835979
992479.662587181
997126.190214317
1001522.06597794
1005654.27821665
1009508.64558069
1013070.13981744
1016323.10746907
1019251.02357077
1021837.20357686
1024064.65653328
1025915.70355601
1027372.29750995
1028415.79678939
1029027.27275954
1029182.65388189
1028872.25286887
1028076.20677464
1026772.26116534
1024940.49902575
1022560.86042075
1019613.24521625
1016077.34209116
1011932.59165425
1007158.4896146
1001733.87754967
995637.058940727
988846.610125433
981340.581604288
973096.366565748
964090.055167438
954297.508331849
943694.188605197
932253.656596688
919948.128915332
906748.347161305
892623.418098761
877540.63414312
861465.199056545
844360.097791582
826185.882469257
806904.088573367
786470.971515627
764832.523821702
741934.299508689
717714.942017262
692099.372608377
665012.241841993
636367.554009939
606057.287840272
573959.211478813
539937.123612098
503808.433965303
465352.191675572
424290.075099771
380230.409947321
332633.738414575
280712.561313944
223428.267099735
)
;

boundaryField
{
    electrode
    {
        type            calculated;
        value           uniform 35682.1166818919;
    }
    ground
    {
        type            calculated;
        value           uniform 190943.100485525;
    }
    otherfaces
    {
        type            empty;
    }
}


// ************************************************************************* //
