/*--------------------------------*- C++ -*----------------------------------*\
| =========                 |                                                 |
| \\      /  F ield         | foam-extend: Open Source CFD                    |
|  \\    /   O peration     | Version:     4.0                                |
|   \\  /    A nd           | Web:         http://www.foam-extend.org         |
|    \\/     M anipulation  |                                                 |
\*---------------------------------------------------------------------------*/
FoamFile
{
    version     2.0;
    format      ascii;
    class       volScalarField;
    location    "5.3e-06";
    object      Ar;
}
// * * * * * * * * * * * * * * * * * * * * * * * * * * * * * * * * * * * * * //

dimensions      [0 0 0 1 0 0 0];

internalField   nonuniform List<scalar> 
300
(
3.21880299938887e+22
3.218802995138e+22
3.21880299789964e+22
3.21880299894273e+22
3.21880300075526e+22
3.21880300328261e+22
3.21880300636637e+22
3.2188030100685e+22
3.21880301437696e+22
3.21880301928836e+22
3.21880302480286e+22
3.21880303091909e+22
3.21880303763623e+22
3.21880304495369e+22
3.21880305287095e+22
3.21880306138761e+22
3.21880307050369e+22
3.21880308021885e+22
3.21880309053279e+22
3.21880310144543e+22
3.21880311295677e+22
3.21880312506682e+22
3.2188031377757e+22
3.21880315108355e+22
3.21880316499218e+22
3.21880317950058e+22
3.21880319460919e+22
3.21880321031867e+22
3.21880322662853e+22
3.21880324353924e+22
3.21880326105314e+22
3.21880327917014e+22
3.21880329788948e+22
3.21880331721177e+22
3.21880333713768e+22
3.21880335766796e+22
3.21880337880388e+22
3.21880340054615e+22
3.21880342289545e+22
3.21880344585291e+22
3.2188034694197e+22
3.21880349359689e+22
3.21880351838576e+22
3.21880354378766e+22
3.21880356980403e+22
3.21880359643639e+22
3.21880362368658e+22
3.21880365155654e+22
3.2188036800493e+22
3.21880370916714e+22
3.2188037389128e+22
3.21880376928653e+22
3.21880380029325e+22
3.21880383193399e+22
3.21880386421079e+22
3.21880389712504e+22
3.21880393067948e+22
3.218803964877e+22
3.21880399972055e+22
3.2188040352134e+22
3.21880407135847e+22
3.21880410815899e+22
3.2188041456188e+22
3.21880418374327e+22
3.21880422253562e+22
3.218804261997e+22
3.21880430213098e+22
3.21880434294122e+22
3.21880438443144e+22
3.21880442660547e+22
3.21880446946743e+22
3.21880451302211e+22
3.2188045572738e+22
3.21880460222595e+22
3.21880464788416e+22
3.21880469425262e+22
3.21880474133502e+22
3.21880478913616e+22
3.21880483765847e+22
3.21880488690946e+22
3.21880493689015e+22
3.21880498760485e+22
3.2188050390584e+22
3.21880509125513e+22
3.21880514420109e+22
3.2188051979001e+22
3.21880525235557e+22
3.21880530757205e+22
3.2188053635553e+22
3.21880542030914e+22
3.2188054778387e+22
3.21880553615303e+22
3.2188055952511e+22
3.21880565513723e+22
3.21880571581585e+22
3.21880577729133e+22
3.21880583956806e+22
3.21880590265034e+22
3.2188059665435e+22
3.2188060312517e+22
3.21880609677839e+22
3.21880616312746e+22
3.21880623030598e+22
3.21880629831487e+22
3.21880636715878e+22
3.21880643684227e+22
3.21880650736735e+22
3.21880657873941e+22
3.21880665096068e+22
3.21880672403379e+22
3.21880679796197e+22
3.21880687274835e+22
3.21880694839649e+22
3.21880702490922e+22
3.21880710228927e+22
3.21880718054073e+22
3.21880725966769e+22
3.21880733966969e+22
3.21880742054852e+22
3.21880750230672e+22
3.21880758494846e+22
3.21880766847385e+22
3.21880775288702e+22
3.21880783818798e+22
3.21880792437649e+22
3.2188080114535e+22
3.21880809942239e+22
3.21880818828181e+22
3.21880827803307e+22
3.21880836867645e+22
3.21880846021343e+22
3.21880855264413e+22
3.21880864596864e+22
3.21880874018901e+22
3.21880883530816e+22
3.21880893132332e+22
3.21880902823308e+22
3.21880912603878e+22
3.21880922474088e+22
3.21880932433712e+22
3.21880942482766e+22
3.21880952621161e+22
3.21880962849047e+22
3.21880973166874e+22
3.21880983574109e+22
3.21880994069962e+22
3.21881004655041e+22
3.21881015329239e+22
3.21881026092595e+22
3.21881036945307e+22
3.21881047886936e+22
3.21881058917425e+22
3.21881070036785e+22
3.21881081244941e+22
3.21881092540816e+22
3.21881103925054e+22
3.21881115396686e+22
3.21881126953929e+22
3.21881138600214e+22
3.21881150322012e+22
3.21881162145828e+22
3.21881174018738e+22
3.21881186018717e+22
3.21881198054336e+22
3.21881210028201e+22
3.21881222125038e+22
3.21881234340161e+22
3.21881246617891e+22
3.21881258970726e+22
3.21881271283258e+22
3.21881283652512e+22
3.21881295967336e+22
3.21881308270504e+22
3.2188132080167e+22
3.21881333282081e+22
3.21881345397116e+22
3.21881357593284e+22
3.21881369923855e+22
3.21881381635392e+22
3.21881393145021e+22
3.21881404803368e+22
3.21881415492735e+22
3.21881425952954e+22
3.21881436086271e+22
3.21881445336369e+22
3.218814538435e+22
3.21881462172475e+22
3.21881469223931e+22
3.21881475542027e+22
3.21881481517871e+22
3.21881486658688e+22
3.21881490821863e+22
3.21881494404918e+22
3.21881497678462e+22
3.21881500011396e+22
3.21881501377841e+22
3.21881502122454e+22
3.21881502705528e+22
3.21881503310095e+22
3.21881503664895e+22
3.21881503728273e+22
3.21881503829779e+22
3.2188150380489e+22
3.21881504227413e+22
3.21881504770736e+22
3.2188150545047e+22
3.2188150615405e+22
3.21881506810713e+22
3.21881507399783e+22
3.21881507928373e+22
3.21881508393416e+22
3.21881508807301e+22
3.21881509232206e+22
3.21881509785637e+22
3.21881510284088e+22
3.2188151075227e+22
3.21881511171127e+22
3.21881511569305e+22
3.21881511924962e+22
3.21881512266819e+22
3.21881512570558e+22
3.21881512865978e+22
3.21881513128646e+22
3.21881513387368e+22
3.21881513639985e+22
3.21881514019186e+22
3.21881514361184e+22
3.21881514708022e+22
3.21881515019097e+22
3.21881515337839e+22
3.21881515621791e+22
3.21881515916025e+22
3.21881516175448e+22
3.21881516447344e+22
3.21881516684443e+22
3.21881516935709e+22
3.21881517152046e+22
3.21881517384476e+22
3.21881517581587e+22
3.21881517796368e+22
3.21881517975142e+22
3.21881518177924e+22
3.21881518439825e+22
3.21881518719347e+22
3.21881518963216e+22
3.21881519226228e+22
3.21881519453358e+22
3.21881519701263e+22
3.21881519912996e+22
3.21881520147068e+22
3.21881520344691e+22
3.21881520565742e+22
3.21881520749897e+22
3.21881520958485e+22
3.21881521129732e+22
3.21881521326511e+22
3.21881521485345e+22
3.21881521670939e+22
3.21881521817896e+22
3.21881521992756e+22
3.21881522128234e+22
3.2188152229292e+22
3.21881522417656e+22
3.21881522572763e+22
3.2188152268726e+22
3.21881522833172e+22
3.21881522991321e+22
3.21881523191053e+22
3.21881523350454e+22
3.2188152354127e+22
3.21881523691184e+22
3.21881523873727e+22
3.2188152401474e+22
3.21881524189715e+22
3.21881524322356e+22
3.21881524490376e+22
3.21881524615172e+22
3.2188152477672e+22
3.21881524894021e+22
3.21881525049549e+22
3.21881525159925e+22
3.21881525310314e+22
3.21881525416394e+22
3.21881525563924e+22
3.21881525664684e+22
3.21881525807522e+22
3.21881525902756e+22
3.21881526040834e+22
3.21881526130559e+22
3.21881526267335e+22
3.218815263558e+22
3.21881526489051e+22
3.21881526572121e+22
3.21881526705762e+22
3.21881526789296e+22
3.21881526921833e+22
3.21881527007259e+22
3.21881527145469e+22
3.2188152723741e+22
3.21881527413756e+22
)
;

boundaryField
{
    electrode
    {
        type            zeroGradient;
    }
    ground
    {
        type            zeroGradient;
    }
    otherfaces
    {
        type            empty;
    }
}


// ************************************************************************* //
