/*--------------------------------*- C++ -*----------------------------------*\
| =========                 |                                                 |
| \\      /  F ield         | foam-extend: Open Source CFD                    |
|  \\    /   O peration     | Version:     4.0                                |
|   \\  /    A nd           | Web:         http://www.foam-extend.org         |
|    \\/     M anipulation  |                                                 |
\*---------------------------------------------------------------------------*/
FoamFile
{
    version     2.0;
    format      ascii;
    class       volScalarField;
    location    "5.3e-06";
    object      Arm;
}
// * * * * * * * * * * * * * * * * * * * * * * * * * * * * * * * * * * * * * //

dimensions      [0 0 0 1 0 0 0];

internalField   nonuniform List<scalar> 
300
(
3.57413312281696e+15
3.5760096076854e+15
3.57795809404711e+15
3.57926412962962e+15
3.5800803702993e+15
3.58045891072758e+15
3.58044395624955e+15
3.58006694709371e+15
3.57935354221498e+15
3.57832572506841e+15
3.57699927073587e+15
3.57538826524451e+15
3.57350476192854e+15
3.57135936346156e+15
3.56896152693076e+15
3.56631979667867e+15
3.5634389971609e+15
3.56032771445875e+15
3.55699428979306e+15
3.55344520288689e+15
3.54968665519841e+15
3.54572456840817e+15
3.54156463253761e+15
3.53721229240855e+15
3.53265687961956e+15
3.52791612503484e+15
3.52299373395796e+15
3.51789172381031e+15
3.51262368405989e+15
3.5071944943612e+15
3.5015904025708e+15
3.49582278025955e+15
3.48990973110459e+15
3.48385664013029e+15
3.47766859359374e+15
3.47135039236445e+15
3.46490221199918e+15
3.45833056783021e+15
3.45164252824528e+15
3.44484162919817e+15
3.43793137461818e+15
3.43091704024413e+15
3.42380250716404e+15
3.41659146695362e+15
3.40928741979619e+15
3.40189362908345e+15
3.39441103987538e+15
3.3868410989878e+15
3.37917604530719e+15
3.37141446619598e+15
3.36354376365632e+15
3.35557643667967e+15
3.3475070977887e+15
3.3393534614033e+15
3.33112366343398e+15
3.32283407178968e+15
3.31448798920693e+15
3.3060883318388e+15
3.29763767148274e+15
3.28913642695335e+15
3.28058891283382e+15
3.27199723980746e+15
3.26335806165302e+15
3.25465342015863e+15
3.2458872935555e+15
3.23708526191647e+15
3.22824942160697e+15
3.21938161236672e+15
3.21048342003062e+15
3.20155620389423e+15
3.19259911791578e+15
3.18360501229702e+15
3.17457235053995e+15
3.16550857513579e+15
3.15640014749683e+15
3.14724812534844e+15
3.13805885049665e+15
3.12882819651898e+15
3.1195761354159e+15
3.11027211867641e+15
3.100950723237e+15
3.09161407810955e+15
3.08225910024006e+15
3.07288804793856e+15
3.06348610555065e+15
3.05406101312052e+15
3.04462447474766e+15
3.03517681067335e+15
3.02570611340957e+15
3.01622013407044e+15
3.00671285542751e+15
2.99713923565287e+15
2.98755453321622e+15
2.97796039136637e+15
2.96835683919756e+15
2.95874390281856e+15
2.94912136392844e+15
2.9394887889762e+15
2.9298352437644e+15
2.92016066681504e+15
2.91047132028514e+15
2.90076848150809e+15
2.89102039344497e+15
2.88125627459909e+15
2.8714669089037e+15
2.86164295331268e+15
2.8517994260867e+15
2.8419167194224e+15
2.83200525477239e+15
2.82207048362853e+15
2.81211053646657e+15
2.80212312636424e+15
2.79210051368834e+15
2.78204048574154e+15
2.77194082062805e+15
2.76178386732138e+15
2.75155074288054e+15
2.74126624165541e+15
2.73093123822646e+15
2.72053765209285e+15
2.71005909942042e+15
2.69950853593085e+15
2.68885697964864e+15
2.67811482171578e+15
2.6672934919189e+15
2.65639078849174e+15
2.64537860579463e+15
2.63427437288135e+15
2.62306726506202e+15
2.6117552394441e+15
2.60032265484802e+15
2.58876564024338e+15
2.57707919608218e+15
2.5652372362338e+15
2.55320330219072e+15
2.54099624329277e+15
2.52861998170602e+15
2.51604947719846e+15
2.50326587328481e+15
2.49027828662232e+15
2.47707073236034e+15
2.46362655411888e+15
2.44991360808686e+15
2.43589979621188e+15
2.42156050879194e+15
2.40691553921726e+15
2.39195002298661e+15
2.37664759512606e+15
2.36097771796326e+15
2.34489150823902e+15
2.32840138714987e+15
2.31148260646313e+15
2.29407290683369e+15
2.27617109377746e+15
2.25775890965281e+15
2.23878662843764e+15
2.21921100272192e+15
2.19903147563726e+15
2.17822890099114e+15
2.15675832161493e+15
2.13458413215333e+15
2.11169123766257e+15
2.08804139194389e+15
2.0636471319496e+15
2.03849546158154e+15
2.01253182154332e+15
1.98577702863444e+15
1.95827564838408e+15
1.93005665103254e+15
1.90116200703259e+15
1.87166031310891e+15
1.84158490423688e+15
1.81102816507865e+15
1.78016160229079e+15
1.74917915983799e+15
1.71825068862871e+15
1.68755537520643e+15
1.65729222102844e+15
1.62770001746042e+15
1.5989343412439e+15
1.5711494703688e+15
1.54449244422462e+15
1.51904462725468e+15
1.49492079798544e+15
1.47212081888383e+15
1.45055447357552e+15
1.4302615463736e+15
1.41119140273883e+15
1.39325793794679e+15
1.37637982855736e+15
1.36046122205912e+15
1.34554740323582e+15
1.33210807800143e+15
1.32514783225238e+15
1.35075091440762e+15
1.41568654447533e+15
1.49259927765786e+15
1.5498629328376e+15
1.58764209127114e+15
1.61091776827872e+15
1.61876377707979e+15
1.6068543186252e+15
1.57995773889074e+15
1.54598135837803e+15
1.5127133331312e+15
1.48497608728256e+15
1.46343402211638e+15
1.44789390363651e+15
1.43713223562753e+15
1.429656896277e+15
1.42412329162114e+15
1.41963103641154e+15
1.41612584755062e+15
1.41280991571825e+15
1.4094611231868e+15
1.4062032514732e+15
1.40282743425845e+15
1.39924143661351e+15
1.39535555291282e+15
1.39112278839138e+15
1.38652751330445e+15
1.38146200000566e+15
1.37583150071684e+15
1.36967902408877e+15
1.36309610916437e+15
1.35624508911174e+15
1.34916921821615e+15
1.34189071035893e+15
1.33444695776438e+15
1.32688067370556e+15
1.31921120122822e+15
1.311472746551e+15
1.30370322138571e+15
1.29592248323922e+15
1.28815245779936e+15
1.28043021246638e+15
1.27275830754892e+15
1.26517220200993e+15
1.25767514981009e+15
1.25029026237528e+15
1.24302878286995e+15
1.23589209737262e+15
1.22890244342582e+15
1.22205165764536e+15
1.21535063921064e+15
1.20881845338905e+15
1.20244380668492e+15
1.19623590613548e+15
1.19019794584303e+15
1.18432198005994e+15
1.17861466209179e+15
1.17307123491179e+15
1.16768791106319e+15
1.16246869440903e+15
1.15740563891742e+15
1.15249668707404e+15
1.14774023451127e+15
1.14312074218698e+15
1.13864667143748e+15
1.13431010562635e+15
1.13011648622487e+15
1.12605287209062e+15
1.12212172911711e+15
1.11831444490263e+15
1.11462839884865e+15
1.11105948576342e+15
1.10759972284963e+15
1.10424561829577e+15
1.10098622080962e+15
1.0978270619929e+15
1.09476008543108e+15
1.0917905444452e+15
1.08890541166487e+15
1.08611043706863e+15
1.08339352640911e+15
1.08075319095136e+15
1.07818764259504e+15
1.0756968030825e+15
1.0732825450641e+15
1.07093837382855e+15
1.06866298297614e+15
1.06641590576819e+15
1.06406343021812e+15
1.06171989649567e+15
1.05943380825782e+15
1.05719556088276e+15
1.0550132716239e+15
1.05288854672996e+15
1.05081103978028e+15
1.04845679610598e+15
1.04606600466547e+15
1.04373458550742e+15
1.041465895729e+15
1.0387845461803e+15
1.03609152537606e+15
1.03326366262813e+15
1.03004228285188e+15
1.02645092012875e+15
1.02232694905642e+15
1.01732524726848e+15
)
;

boundaryField
{
    electrode
    {
        type            zeroGradient;
    }
    ground
    {
        type            zeroGradient;
    }
    otherfaces
    {
        type            empty;
    }
}


// ************************************************************************* //
