/*--------------------------------*- C++ -*----------------------------------*\
| =========                 |                                                 |
| \\      /  F ield         | foam-extend: Open Source CFD                    |
|  \\    /   O peration     | Version:     4.0                                |
|   \\  /    A nd           | Web:         http://www.foam-extend.org         |
|    \\/     M anipulation  |                                                 |
\*---------------------------------------------------------------------------*/
FoamFile
{
    version     2.0;
    format      ascii;
    class       volScalarField;
    location    "5.3e-06";
    object      Arp1;
}
// * * * * * * * * * * * * * * * * * * * * * * * * * * * * * * * * * * * * * //

dimensions      [0 0 0 1 0 0 0];

internalField   nonuniform List<scalar> 
300
(
6.16998451800517e+16
6.17419966403039e+16
6.17164623845969e+16
6.17116470864916e+16
6.17024601105784e+16
6.1689418204921e+16
6.16740656629256e+16
6.16557515524014e+16
6.1634572759853e+16
6.16105430289847e+16
6.15836465214519e+16
6.15538850448597e+16
6.15212564345958e+16
6.14857583744794e+16
6.14473887733554e+16
6.1406145309227e+16
6.13620255525255e+16
6.13150269506706e+16
6.12651468151176e+16
6.12123823182014e+16
6.11567304853838e+16
6.10981881886347e+16
6.10367521391407e+16
6.0972418879479e+16
6.09051847761892e+16
6.0835046011958e+16
6.07619985769888e+16
6.0686038261207e+16
6.0607160645829e+16
6.05253610945587e+16
6.04406347450907e+16
6.03529765008245e+16
6.02623810216525e+16
6.01688427152842e+16
6.00723557292611e+16
5.9972913941473e+16
5.98705109515537e+16
5.97651400745493e+16
5.96567943301306e+16
5.95454664353727e+16
5.94311487947812e+16
5.93138334900336e+16
5.91935122752518e+16
5.9070176586802e+16
5.89438175859823e+16
5.88144261636441e+16
5.86819926981902e+16
5.85465064288383e+16
5.84079553163965e+16
5.8266328700998e+16
5.81216228675499e+16
5.79738353802316e+16
5.78229359767955e+16
5.76689109962976e+16
5.7511746739235e+16
5.73514283446556e+16
5.71879404947532e+16
5.70212674966438e+16
5.68513933113679e+16
5.66783015601459e+16
5.65019755251789e+16
5.63223981493457e+16
5.61395520356939e+16
5.59534194487324e+16
5.57639823166385e+16
5.55712222339617e+16
5.53751204663183e+16
5.51756579560008e+16
5.49728153281616e+16
5.47665728988878e+16
5.45569106843023e+16
5.43438084101458e+16
5.41272455232607e+16
5.39072012040256e+16
5.36836543792551e+16
5.3456583737091e+16
5.3225967742541e+16
5.29917846538056e+16
5.27540125400261e+16
5.25126293002028e+16
5.22676126824871e+16
5.20189403048145e+16
5.17665896768012e+16
5.15105382218065e+16
5.12507633003427e+16
5.09872422345443e+16
5.0719952332785e+16
5.04488709155516e+16
5.01739753421368e+16
4.9895243037456e+16
4.96126515200165e+16
4.93261784304447e+16
4.90358015602638e+16
4.874149888118e+16
4.84432485753671e+16
4.81410290652986e+16
4.78348190444271e+16
4.75245975082128e+16
4.72103437848188e+16
4.68920375663785e+16
4.65696589404252e+16
4.62431884209026e+16
4.59126069792537e+16
4.55778960758457e+16
4.5239037690559e+16
4.48960143533301e+16
4.45488091747596e+16
4.41974058758283e+16
4.38417888172378e+16
4.34819430287799e+16
4.31178542374699e+16
4.27495088953154e+16
4.23768942068427e+16
4.19999981553344e+16
4.1618809528552e+16
4.12333179441066e+16
4.08435138735421e+16
4.04493886658605e+16
4.00509345706877e+16
3.9648144760111e+16
3.92410133504045e+16
3.88295354231251e+16
3.84137070455072e+16
3.79935252907706e+16
3.75689882586724e+16
3.7140095095276e+16
3.67068460137513e+16
3.62692423181764e+16
3.58272864177101e+16
3.53809818715018e+16
3.49303333778166e+16
3.44753468574889e+16
3.40160294308921e+16
3.35523894970281e+16
3.30844367442538e+16
3.2612182326137e+16
3.21356386277662e+16
3.16548193950338e+16
3.11697414313611e+16
3.06804204433391e+16
3.01868738284443e+16
2.96891303601745e+16
2.9187210830753e+16
2.86811070568841e+16
2.81709022218286e+16
2.76566633442892e+16
2.71383554211783e+16
2.66160189629874e+16
2.60896957722765e+16
2.55594317999417e+16
2.50252778739886e+16
2.44872859139574e+16
2.39455410663811e+16
2.34000790494461e+16
2.28510560048705e+16
2.22984908112743e+16
2.17425606598962e+16
2.11834859022025e+16
2.0620987006898e+16
2.00565127099946e+16
1.94875007261525e+16
1.89193212138008e+16
1.83442919474686e+16
1.77716544647806e+16
1.72114591028056e+16
1.66458040640866e+16
1.60756411024587e+16
1.55068677170374e+16
1.49385058887626e+16
1.43823696514056e+16
1.38290518685504e+16
1.32899802189556e+16
1.27610165341673e+16
1.22178631717784e+16
1.16874296594847e+16
1.11998629201594e+16
1.07087673612525e+16
1.02061181043832e+16
9.76359659996585e+15
9.33526866937263e+15
8.88092971831164e+15
8.50633765825402e+15
8.13115850969662e+15
7.75845812194034e+15
7.43727520577309e+15
7.14769747581883e+15
6.82812618942457e+15
6.58472276496153e+15
6.36102724286727e+15
6.11762103514211e+15
5.90515854495488e+15
5.74073540601851e+15
5.58839599205415e+15
5.42136340770076e+15
5.28212372764706e+15
5.17209489430398e+15
5.08967622607245e+15
5.0254527629486e+15
4.96658056525237e+15
4.93719101041521e+15
4.94388415998947e+15
4.96074097457006e+15
5.0008314280878e+15
4.99964076636729e+15
4.98289867231151e+15
4.94512771067295e+15
4.89767392256107e+15
4.8483020652809e+15
4.80058372680444e+15
4.7554480170393e+15
4.71462413318826e+15
4.67781549109276e+15
4.63888211970534e+15
4.58688475351998e+15
4.5404045052811e+15
4.49685184233888e+15
4.45834482541789e+15
4.42211332971802e+15
4.39043285626975e+15
4.36047924594028e+15
4.33470062741506e+15
4.31022536416021e+15
4.28959185824076e+15
4.26987657312559e+15
4.25120387861416e+15
4.22014284215417e+15
4.1930284984797e+15
4.16563451788053e+15
4.14198364747598e+15
4.1176900697173e+15
4.09697988995974e+15
4.07531163328804e+15
4.05715668129541e+15
4.03776642786224e+15
4.0218459082622e+15
4.00446147498325e+15
3.99052009799039e+15
3.97488400179297e+15
3.96269096596845e+15
3.94861894551302e+15
3.93802434467589e+15
3.92490399657056e+15
3.90572473969499e+15
3.88464434419433e+15
3.8669792946099e+15
3.84723071975138e+15
3.83091257037932e+15
3.81234986709382e+15
3.79723396919057e+15
3.77972167608618e+15
3.76568527508463e+15
3.74914163676224e+15
3.73612710465638e+15
3.72050462732464e+15
3.70845959054996e+15
3.69370666300699e+15
3.68259535856628e+15
3.66867050474053e+15
3.65846347471696e+15
3.64532821366038e+15
3.63598765791313e+15
3.62359587664977e+15
3.61506614364314e+15
3.60337504663503e+15
3.59562324183252e+15
3.58461243579312e+15
3.57226838998251e+15
3.55565992270398e+15
3.5429895082625e+15
3.52707693828823e+15
3.51516204303629e+15
3.49988660234845e+15
3.48867938922564e+15
3.47398545888938e+15
3.46344666282725e+15
3.44929300747024e+15
3.43938686073399e+15
3.42573038543693e+15
3.41642185544376e+15
3.40322026264017e+15
3.39446483236757e+15
3.38167954704065e+15
3.37343031554035e+15
3.36102692749592e+15
3.35324291517209e+15
3.3412030173757e+15
3.33386746835755e+15
3.3221897280943e+15
3.31529985552019e+15
3.30398141542519e+15
3.29753041000084e+15
3.28654130774666e+15
3.28050734147199e+15
3.2698285863388e+15
3.26417199870712e+15
3.25374963791669e+15
3.24843131953434e+15
3.23820383562759e+15
3.23313466229091e+15
3.22050056437045e+15
)
;

boundaryField
{
    electrode
    {
        type            driftDiffusionPositiveIonDensity;
        seec            0;
        fieldName       Arp1;
        value           uniform 6.1521169304967e+16;
    }
    ground
    {
        type            driftDiffusionPositiveIonDensity;
        seec            0;
        fieldName       Arp1;
        value           uniform 3.22050056437045e+15;
    }
    otherfaces
    {
        type            empty;
    }
}


// ************************************************************************* //
