/*--------------------------------*- C++ -*----------------------------------*\
| =========                 |                                                 |
| \\      /  F ield         | foam-extend: Open Source CFD                    |
|  \\    /   O peration     | Version:     4.0                                |
|   \\  /    A nd           | Web:         http://www.foam-extend.org         |
|    \\/     M anipulation  |                                                 |
\*---------------------------------------------------------------------------*/
FoamFile
{
    version     2.0;
    format      ascii;
    class       volVectorField;
    location    "5.3e-06";
    object      E;
}
// * * * * * * * * * * * * * * * * * * * * * * * * * * * * * * * * * * * * * //

dimensions      [0 0 0 1 0 0 0];

internalField   nonuniform List<vector> 
300
(
(5.43195074753645 -0 -0)
(10.7275318711464 -0 -0)
(18.9588127155749 -0 -0)
(26.5551267975009 -0 -0)
(34.1025893274553 -0 -0)
(41.7160795074261 -0 -0)
(49.3208058727218 -0 -0)
(56.9382528542428 -0 -0)
(64.5688744554958 -0 -0)
(72.2127334845675 -0 -0)
(79.8717558717061 -0 -0)
(87.5472467812286 -0 -0)
(95.2406081500277 -0 -0)
(102.953288098893 -0 -0)
(110.686743041989 -0 -0)
(118.44245804138 -0 -0)
(126.221945224989 -0 -0)
(134.02674523544 -0 -0)
(141.858429474064 -0 -0)
(149.718601691326 -0 -0)
(157.60889983535 -0 -0)
(165.530997858766 -0 -0)
(173.486607425718 -0 -0)
(181.477479768712 -0 -0)
(189.50540744134 -0 -0)
(197.572226062755 -0 -0)
(205.679816099593 -0 -0)
(213.830104643655 -0 -0)
(222.025067164728 -0 -0)
(230.266729255027 -0 -0)
(238.55716837359 -0 -0)
(246.89851560728 -0 -0)
(255.29295736573 -0 -0)
(263.742737124955 -0 -0)
(272.250157118348 -0 -0)
(280.817580110311 -0 -0)
(289.447430990049 -0 -0)
(298.142198633328 -0 -0)
(306.904437572007 -0 -0)
(315.736769575279 -0 -0)
(324.641884803735 -0 -0)
(333.622542933488 -0 -0)
(342.681575149528 -0 -0)
(351.821889721313 -0 -0)
(361.046482839945 -0 -0)
(370.358443987956 -0 -0)
(379.76091744183 -0 -0)
(389.256988479785 -0 -0)
(398.849619910642 -0 -0)
(408.542068966374 -0 -0)
(418.339035650238 -0 -0)
(428.247055912808 -0 -0)
(438.27209647287 -0 -0)
(448.418373516547 -0 -0)
(458.689677332358 -0 -0)
(469.089857961421 -0 -0)
(479.622866585197 -0 -0)
(490.292768747007 -0 -0)
(501.103750627408 -0 -0)
(512.060122083485 -0 -0)
(523.166318933172 -0 -0)
(534.426905084043 -0 -0)
(545.8465747108 -0 -0)
(557.430154697668 -0 -0)
(569.182607075443 -0 -0)
(581.109031831729 -0 -0)
(593.21466988206 -0 -0)
(605.504906227172 -0 -0)
(617.985273437873 -0 -0)
(630.661455379492 -0 -0)
(643.539291172874 -0 -0)
(656.624779570087 -0 -0)
(669.924083482386 -0 -0)
(683.443535052925 -0 -0)
(697.189640906719 -0 -0)
(711.169087923357 -0 -0)
(725.38874937148 -0 -0)
(739.855691465965 -0 -0)
(754.577180472966 -0 -0)
(769.560690251477 -0 -0)
(784.813910372026 -0 -0)
(800.344754840835 -0 -0)
(816.161371361262 -0 -0)
(832.272151375738 -0 -0)
(848.685740730076 -0 -0)
(865.411051145614 -0 -0)
(882.457272526158 -0 -0)
(899.833886107514 -0 -0)
(917.550678536198 -0 -0)
(935.617757053067 -0 -0)
(954.045565640479 -0 -0)
(972.844902489923 -0 -0)
(992.026938545594 -0 -0)
(1011.60323756909 -0 -0)
(1031.58577759146 -0 -0)
(1051.98697385327 -0 -0)
(1072.8197036154 -0 -0)
(1094.09733264043 -0 -0)
(1115.83374367852 -0 -0)
(1138.04336713968 -0 -0)
(1160.74121394976 -0 -0)
(1183.94291096793 -0 -0)
(1207.66473907807 -0 -0)
(1231.92367417593 -0 -0)
(1256.73743123373 -0 -0)
(1282.12451196303 -0 -0)
(1308.10425598125 -0 -0)
(1334.69689612155 -0 -0)
(1361.92361816098 -0 -0)
(1389.80662518884 -0 -0)
(1418.36920735535 -0 -0)
(1447.63581717434 -0 -0)
(1477.63215106564 -0 -0)
(1508.38523777661 -0 -0)
(1539.92353409281 -0 -0)
(1572.27702882148 -0 -0)
(1605.47735572214 -0 -0)
(1639.55791620416 -0 -0)
(1674.55401297 -0 -0)
(1710.50299551546 -0 -0)
(1747.44441891492 -0 -0)
(1785.42021704134 -0 -0)
(1824.47489213575 -0 -0)
(1864.65572206995 -0 -0)
(1906.01298762322 -0 -0)
(1948.60022182963 -0 -0)
(1992.47448397377 -0 -0)
(2037.69666112618 -0 -0)
(2084.33180017724 -0 -0)
(2132.44947502601 -0 -0)
(2182.12419120329 -0 -0)
(2233.43583525845 -0 -0)
(2286.47017278427 -0 -0)
(2341.31939976048 -0 -0)
(2398.08275891178 -0 -0)
(2456.86723334572 -0 -0)
(2517.78829531512 -0 -0)
(2580.97075601677 -0 -0)
(2646.54985045494 -0 -0)
(2714.67210828048 -0 -0)
(2785.49642075017 -0 -0)
(2859.19652884163 -0 -0)
(2935.96165621214 -0 -0)
(3015.99467943842 -0 -0)
(3099.52335258741 -0 -0)
(3186.81057385825 -0 -0)
(3278.14065748838 -0 -0)
(3373.81557839498 -0 -0)
(3474.16696890804 -0 -0)
(3579.56200251786 -0 -0)
(3690.40769054626 -0 -0)
(3807.15577308819 -0 -0)
(3930.31051116774 -0 -0)
(4060.43275159626 -0 -0)
(4198.15364525929 -0 -0)
(4344.178938676 -0 -0)
(4499.30315181323 -0 -0)
(4664.43307790325 -0 -0)
(4840.56572204927 -0 -0)
(5028.91186427351 -0 -0)
(5230.69062332743 -0 -0)
(5447.59601864064 -0 -0)
(5681.20679020126 -0 -0)
(5934.12699392989 -0 -0)
(6212.41659767637 -0 -0)
(6521.08463633005 -0 -0)
(6862.27976320897 -0 -0)
(7239.24175571547 -0 -0)
(7657.01022940124 -0 -0)
(8123.32729718794 -0 -0)
(8647.15614545052 -0 -0)
(9238.50726715052 -0 -0)
(9908.24860578965 -0 -0)
(10661.6893391417 -0 -0)
(11505.2924315903 -0 -0)
(12456.8556324424 -0 -0)
(13530.0915395375 -0 -0)
(14726.8185750394 -0 -0)
(16060.7020656343 -0 -0)
(17548.7153838722 -0 -0)
(19187.2014685076 -0 -0)
(20983.5105232331 -0 -0)
(22947.3643880585 -0 -0)
(25067.1773382919 -0 -0)
(27339.3414056219 -0 -0)
(29763.9911087113 -0 -0)
(32317.1375502961 -0 -0)
(34983.6512032266 -0 -0)
(37759.6993090826 -0 -0)
(40614.8151427053 -0 -0)
(43521.1242526856 -0 -0)
(46471.3459124065 -0 -0)
(49456.098924692 -0 -0)
(52449.3352261444 -0 -0)
(55432.3970667155 -0 -0)
(58405.1013052975 -0 -0)
(61366.3507608162 -0 -0)
(64323.6039157817 -0 -0)
(67273.0513313058 -0 -0)
(70208.8474617514 -0 -0)
(73154.7874847727 -0 -0)
(76122.3651013922 -0 -0)
(79113.075130665 -0 -0)
(82120.109547184 -0 -0)
(85125.1426718313 -0 -0)
(88115.9054002992 -0 -0)
(91082.29141991 -0 -0)
(94020.1531391151 -0 -0)
(96929.0546603017 -0 -0)
(99810.1115172688 -0 -0)
(102665.330839533 -0 -0)
(105497.191910804 -0 -0)
(108306.24137606 -0 -0)
(111087.886003794 -0 -0)
(113839.843826735 -0 -0)
(116564.655770587 -0 -0)
(119264.72501657 -0 -0)
(121942.255913196 -0 -0)
(124599.304463583 -0 -0)
(127237.763963609 -0 -0)
(129859.4151647 -0 -0)
(132465.911430395 -0 -0)
(135058.804559445 -0 -0)
(137639.531402222 -0 -0)
(140208.684194947 -0 -0)
(142762.842369557 -0 -0)
(145299.461084833 -0 -0)
(147819.647251 -0 -0)
(150324.446358347 -0 -0)
(152814.794341583 -0 -0)
(155291.578890607 -0 -0)
(157755.592497028 -0 -0)
(160207.60642463 -0 -0)
(162648.308256328 -0 -0)
(165078.372341403 -0 -0)
(167498.40401253 -0 -0)
(169909.000482984 -0 -0)
(172310.689291443 -0 -0)
(174703.997895535 -0 -0)
(177089.398125851 -0 -0)
(179467.372062008 -0 -0)
(181838.206706142 -0 -0)
(184199.313095205 -0 -0)
(186548.290443637 -0 -0)
(188885.595275561 -0 -0)
(191211.629158152 -0 -0)
(193526.798105951 -0 -0)
(195831.459568285 -0 -0)
(198125.975904509 -0 -0)
(200410.663664553 -0 -0)
(202685.848140327 -0 -0)
(204951.82118006 -0 -0)
(207208.890665177 -0 -0)
(209457.334107895 -0 -0)
(211697.443556765 -0 -0)
(213929.481103109 -0 -0)
(216153.727815818 -0 -0)
(218370.433154356 -0 -0)
(220579.869731216 -0 -0)
(222782.275206258 -0 -0)
(224977.910663388 -0 -0)
(227167.00004045 -0 -0)
(229349.787597012 -0 -0)
(231526.484380397 -0 -0)
(233697.324734411 -0 -0)
(235862.513554522 -0 -0)
(238020.665619025 -0 -0)
(240170.09252476 -0 -0)
(242310.695605378 -0 -0)
(244442.684517792 -0 -0)
(246566.286962048 -0 -0)
(248681.69483306 -0 -0)
(250789.121368631 -0 -0)
(252888.741799729 -0 -0)
(254980.757521427 -0 -0)
(257065.331306786 -0 -0)
(259142.653789366 -0 -0)
(261212.874754585 -0 -0)
(263276.174281421 -0 -0)
(265332.689412195 -0 -0)
(267382.58681193 -0 -0)
(269425.991904762 -0 -0)
(271463.057165426 -0 -0)
(273493.897661876 -0 -0)
(275518.653612302 -0 -0)
(277537.434450661 -0 -0)
(279550.375344946 -0 -0)
(281557.58543711 -0 -0)
(283559.198926056 -0 -0)
(285555.3240554 -0 -0)
(287546.093125734 -0 -0)
(289531.605242034 -0 -0)
(291511.986045452 -0 -0)
(293487.329053487 -0 -0)
(295457.747771077 -0 -0)
(297423.319261648 -0 -0)
(299384.144734327 -0 -0)
(301340.282347713 -0 -0)
(303291.811542066 -0 -0)
(305238.003985181 -0 -0)
)
;

boundaryField
{
    electrode
    {
        type            calculated;
        value           uniform (4.50491336096093 -0 -0);
    }
    ground
    {
        type            calculated;
        value           uniform (306209.194025301 -0 -0);
    }
    otherfaces
    {
        type            empty;
    }
}


// ************************************************************************* //
