/*--------------------------------*- C++ -*----------------------------------*\
| =========                 |                                                 |
| \\      /  F ield         | foam-extend: Open Source CFD                    |
|  \\    /   O peration     | Version:     4.0                                |
|   \\  /    A nd           | Web:         http://www.foam-extend.org         |
|    \\/     M anipulation  |                                                 |
\*---------------------------------------------------------------------------*/
FoamFile
{
    version     2.0;
    format      ascii;
    class       volScalarField;
    location    "5.3e-06";
    object      electron;
}
// * * * * * * * * * * * * * * * * * * * * * * * * * * * * * * * * * * * * * //

dimensions      [0 0 0 1 0 0 0];

internalField   nonuniform List<scalar> 
300
(
6.17117468515143e+16
6.17102276478633e+16
6.17061970545167e+16
6.16992753245929e+16
6.16895207181917e+16
6.16769106429821e+16
6.16614404681839e+16
6.16431102407842e+16
6.16219177482533e+16
6.15978613075511e+16
6.15709391424878e+16
6.15411493352639e+16
6.15084898805477e+16
6.14729586619139e+16
6.14345534487054e+16
6.13932718917507e+16
6.13491115173937e+16
6.13020697217587e+16
6.12521437646047e+16
6.11993307628671e+16
6.11436276839259e+16
6.10850313385897e+16
6.10235383738305e+16
6.09591452652818e+16
6.08918483095089e+16
6.08216436160862e+16
6.07485270995003e+16
6.06724944708898e+16
6.05935412296515e+16
6.05116626549377e+16
6.04268537970696e+16
6.0339109468888e+16
6.02484242370742e+16
6.01547924134683e+16
6.00582080464119e+16
5.99586649121381e+16
5.98561565062503e+16
5.97506760353066e+16
5.96422164085326e+16
5.95307702297371e+16
5.94163297895332e+16
5.9298887057934e+16
5.91784336771679e+16
5.90549609540945e+16
5.89284598512774e+16
5.87989209775583e+16
5.8666334585583e+16
5.8530690590333e+16
5.8391978603767e+16
5.82501879043591e+16
5.81053071829566e+16
5.79573240797706e+16
5.78062250237171e+16
5.76519956076976e+16
5.74946209528317e+16
5.73340858167476e+16
5.71703746192013e+16
5.70034714463242e+16
5.68333600487422e+16
5.66600238386134e+16
5.64834458871039e+16
5.63036089227778e+16
5.61204953310556e+16
5.5934087154777e+16
5.57443660958947e+16
5.55513135183061e+16
5.53549104518076e+16
5.51551375971818e+16
5.4951975332411e+16
5.47454037200021e+16
5.45354025154264e+16
5.43219511766549e+16
5.41050288747865e+16
5.3884614505751e+16
5.36606867030718e+16
5.34332238516781e+16
5.32022041027376e+16
5.29676053895008e+16
5.27294054441255e+16
5.24875818154583e+16
5.22421118877499e+16
5.19929729002664e+16
5.17401419677734e+16
5.14835961018532e+16
5.12233122330155e+16
5.09592672335671e+16
5.06914379411911e+16
5.04198011831905e+16
5.0144333801356e+16
4.98650126773943e+16
4.95818147588682e+16
4.92947170855852e+16
4.90036968163777e+16
4.87087312562124e+16
4.84097978835472e+16
4.81068743778848e+16
4.77999386474328e+16
4.74889688567931e+16
4.71739434546084e+16
4.6854841201072e+16
4.65316411952158e+16
4.62043229018901e+16
4.58728661783298e+16
4.55372513002113e+16
4.51974589871082e+16
4.48534704272262e+16
4.45052673013114e+16
4.41528318056303e+16
4.37961466738879e+16
4.34351951979771e+16
4.30699612474292e+16
4.27004292874357e+16
4.23265843953169e+16
4.19484122752918e+16
4.15658992714135e+16
4.11790323785289e+16
4.07877992511018e+16
4.03921882097526e+16
3.99921882453503e+16
3.9587789020489e+16
3.91789808681732e+16
3.87657547875365e+16
3.83481024363988e+16
3.79260161204643e+16
3.74994887789598e+16
3.70685139664872e+16
3.66330858308649e+16
3.61931990867095e+16
3.57488489845239e+16
3.53000312749753e+16
3.48467421681171e+16
3.43889782872459e+16
3.39267366169698e+16
3.34600144453083e+16
3.29888092994372e+16
3.2513118874011e+16
3.20329409527057e+16
3.15482733244327e+16
3.10591136833085e+16
3.05654595242996e+16
3.00673080562738e+16
2.95646560436811e+16
2.90574996060548e+16
2.85458342866938e+16
2.80296547069918e+16
2.75089530789129e+16
2.69837184116521e+16
2.64539373260637e+16
2.59195946660971e+16
2.53806733979608e+16
2.48371543734757e+16
2.42890161095004e+16
2.37362344789713e+16
2.31787825084527e+16
2.26166300656974e+16
2.2049743547001e+16
2.14780858877119e+16
2.09016156739926e+16
2.03202883547108e+16
1.97340532289241e+16
1.91428575193161e+16
1.85466386555031e+16
1.7945319537522e+16
1.73387890120388e+16
1.67267492891779e+16
1.61086839897273e+16
1.54840891142959e+16
1.48525905741967e+16
1.42138876689339e+16
1.35676649674232e+16
1.29135587197254e+16
1.22512229932501e+16
1.15804262027171e+16
1.09013289825828e+16
1.02147031613643e+16
9.52169404694869e+15
8.82386690108594e+15
8.12372059390469e+15
7.42467856346522e+15
6.73080663995071e+15
6.04709266105825e+15
5.37940124204962e+15
4.73400188474634e+15
4.11748930169742e+15
3.53645692573917e+15
2.99688188023646e+15
2.5038422263046e+15
2.06116379903319e+15
1.67097686805583e+15
1.33367063699064e+15
1.04796436885508e+15
810978666206159
618447407062290
465081967041598
345421935151639
253868052877613
184910742971369
133561723015258
94196953585139.3
64829901504044.2
43952347048445.9
28853981347246
18148577180190.2
11063138402908.9
6740784625118.44
4275443660982.97
2913232140052.59
2158845990378.82
1731886547938.8
1483857281369.62
1337073433934.92
1249472476615.39
1197544429172.53
1167744695935.98
1151665028073.76
1143971670881.03
1141144533021.96
1140773668633.51
1141438549353.66
1142109176816.44
1142117334512.21
1140900456954.15
1138165283364.49
1133742146463.72
1127557097065.2
1119603412672.43
1109925155865.58
1098602033554.32
1085738221552.63
1071454577723.91
1055882576932.68
1039159586192.48
1021425133987.58
1002817975817.76
983473800995.547
963523462383.219
943091638961.712
922295858706.133
901245802480.611
880042836565.157
858779417441.381
837538267284.271
816384748570.546
795380848393.678
774591940398.24
754075183255.277
733880498401.803
714050376839.84
694620435852.513
675619922346.512
657072258949.547
638995581643.27
621403263575.095
604304492344.121
587704799517.825
571607942041.719
556011915130.216
540909306111.69
526295408526.973
512164917278.067
498508995292.746
485317638745.589
472579757746.213
460283525383.614
448416576349.829
436966200120.945
425919621486.7
415264306123.742
404987350580.447
395075800782.427
385506239291.188
376256063675.884
367314083905.112
358670049436.092
350314801378.52
342239685409.818
334436610399.694
326898070614.464
319617210027.974
312587880087.828
305804685217.141
299262785781.876
292957123584.929
286876230315.086
280988177183.785
275273885433.216
269743587586.139
264410763515.561
259290247254.126
254379011149.388
249647913736.94
245101691359.212
240794491992.041
236731318878.785
232936794791.59
229505575766.566
226574497469.331
224422139665.956
223515859513.15
224681851353.028
)
;

boundaryField
{
    electrode
    {
        type            driftDiffusionElectronDensity;
        seec            0.05;
        Edepend         1;
        field_emission  0;
        field_enhancement_factor 55;
        work_function   5;
        value           uniform 6.17117468515143e+16;
    }
    ground
    {
        type            driftDiffusionElectronDensity;
        seec            0.05;
        Edepend         1;
        field_emission  0;
        field_enhancement_factor 55;
        work_function   5;
        value           uniform 226888621516.319;
    }
    otherfaces
    {
        type            empty;
    }
}


// ************************************************************************* //
