/*--------------------------------*- C++ -*----------------------------------*\
| =========                 |                                                 |
| \\      /  F ield         | foam-extend: Open Source CFD                    |
|  \\    /   O peration     | Version:     4.0                                |
|   \\  /    A nd           | Web:         http://www.foam-extend.org         |
|    \\/     M anipulation  |                                                 |
\*---------------------------------------------------------------------------*/
FoamFile
{
    version     2.0;
    format      ascii;
    class       volVectorField;
    location    "5.3e-06";
    object      J_Arp1;
}
// * * * * * * * * * * * * * * * * * * * * * * * * * * * * * * * * * * * * * //

dimensions      [1 -1 -1 0 0 0 0];

internalField   nonuniform List<vector> 
300
(
(1.81854497354364e+16 -0 -0)
(6.595488817255e+16 -0 -0)
(1.18211005841081e+17 -0 -0)
(1.64321619527957e+17 -0 -0)
(2.11122765996879e+17 -0 -0)
(2.58205027405659e+17 -0 -0)
(3.05151587606764e+17 -0 -0)
(3.52141794438537e+17 -0 -0)
(3.99146426857448e+17 -0 -0)
(4.46163646197972e+17 -0 -0)
(4.93198929108457e+17 -0 -0)
(5.40253003186768e+17 -0 -0)
(5.87327796226597e+17 -0 -0)
(6.34425292626818e+17 -0 -0)
(6.81547465458248e+17 -0 -0)
(7.28696401650769e+17 -0 -0)
(7.75874270838306e+17 -0 -0)
(8.23083333639289e+17 -0 -0)
(8.70325948808223e+17 -0 -0)
(9.1760457654104e+17 -0 -0)
(9.64921783378624e+17 -0 -0)
(1.01228024644771e+18 -0 -0)
(1.05968275686771e+18 -0 -0)
(1.10713222371955e+18 -0 -0)
(1.1546316770717e+18 -0 -0)
(1.20218427067419e+18 -0 -0)
(1.24979328447805e+18 -0 -0)
(1.29746212678538e+18 -0 -0)
(1.34519433591847e+18 -0 -0)
(1.39299358141458e+18 -0 -0)
(1.44086366481074e+18 -0 -0)
(1.48880852017393e+18 -0 -0)
(1.53683221378075e+18 -0 -0)
(1.584938943603e+18 -0 -0)
(1.63313303812793e+18 -0 -0)
(1.68141895516102e+18 -0 -0)
(1.72980127895979e+18 -0 -0)
(1.77828471873731e+18 -0 -0)
(1.82687410534156e+18 -0 -0)
(1.87557438693132e+18 -0 -0)
(1.92439062168798e+18 -0 -0)
(1.97332796950865e+18 -0 -0)
(2.02239168785648e+18 -0 -0)
(2.07158714730871e+18 -0 -0)
(2.12091987997768e+18 -0 -0)
(2.17039560447399e+18 -0 -0)
(2.22002000087344e+18 -0 -0)
(2.26979801117857e+18 -0 -0)
(2.31973333255212e+18 -0 -0)
(2.36983068448783e+18 -0 -0)
(2.42010288168776e+18 -0 -0)
(2.47057406123309e+18 -0 -0)
(2.52126269011637e+18 -0 -0)
(2.57217627467904e+18 -0 -0)
(2.62332003667662e+18 -0 -0)
(2.67469894621094e+18 -0 -0)
(2.7263179156946e+18 -0 -0)
(2.77818187779388e+18 -0 -0)
(2.83029579741146e+18 -0 -0)
(2.88266466148939e+18 -0 -0)
(2.93529346244134e+18 -0 -0)
(2.98818717940596e+18 -0 -0)
(3.04135075856693e+18 -0 -0)
(3.09478909386412e+18 -0 -0)
(3.14850700661951e+18 -0 -0)
(3.20250922599219e+18 -0 -0)
(3.25680036915007e+18 -0 -0)
(3.31138492126084e+18 -0 -0)
(3.36626721589367e+18 -0 -0)
(3.42145141538492e+18 -0 -0)
(3.47694149111114e+18 -0 -0)
(3.53274120442066e+18 -0 -0)
(3.58885408685223e+18 -0 -0)
(3.64528342165233e+18 -0 -0)
(3.70203222442509e+18 -0 -0)
(3.75910322477216e+18 -0 -0)
(3.81649884793048e+18 -0 -0)
(3.87422119654746e+18 -0 -0)
(3.93227203317303e+18 -0 -0)
(3.99065276279787e+18 -0 -0)
(4.04936441591216e+18 -0 -0)
(4.10840763210906e+18 -0 -0)
(4.16778264379857e+18 -0 -0)
(4.22748926094098e+18 -0 -0)
(4.28752685586306e+18 -0 -0)
(4.34789434893472e+18 -0 -0)
(4.40859019487174e+18 -0 -0)
(4.46961236952543e+18 -0 -0)
(4.53095835735151e+18 -0 -0)
(4.59262513999442e+18 -0 -0)
(4.65460918506765e+18 -0 -0)
(4.71690643650188e+18 -0 -0)
(4.77951230485014e+18 -0 -0)
(4.84242165925335e+18 -0 -0)
(4.90562882008993e+18 -0 -0)
(4.96912755214157e+18 -0 -0)
(5.03291105961222e+18 -0 -0)
(5.09697198152459e+18 -0 -0)
(5.16130238829291e+18 -0 -0)
(5.22589377969524e+18 -0 -0)
(5.29073708351324e+18 -0 -0)
(5.35582265563806e+18 -0 -0)
(5.42114028127543e+18 -0 -0)
(5.4866791773721e+18 -0 -0)
(5.55242799586991e+18 -0 -0)
(5.61837482893964e+18 -0 -0)
(5.68450721462184e+18 -0 -0)
(5.7508121441293e+18 -0 -0)
(5.81727607047291e+18 -0 -0)
(5.883884917842e+18 -0 -0)
(5.95062409284628e+18 -0 -0)
(6.01747849641703e+18 -0 -0)
(6.08443253712055e+18 -0 -0)
(6.1514701459133e+18 -0 -0)
(6.21857479143606e+18 -0 -0)
(6.28572949697539e+18 -0 -0)
(6.35291685839692e+18 -0 -0)
(6.42011906281207e+18 -0 -0)
(6.4873179087447e+18 -0 -0)
(6.55449482679539e+18 -0 -0)
(6.62163090161589e+18 -0 -0)
(6.68870689419756e+18 -0 -0)
(6.75570326562269e+18 -0 -0)
(6.82260020076637e+18 -0 -0)
(6.88937763320535e+18 -0 -0)
(6.95601527032989e+18 -0 -0)
(7.0224926189168e+18 -0 -0)
(7.08878901203987e+18 -0 -0)
(7.15488363232379e+18 -0 -0)
(7.22075554512709e+18 -0 -0)
(7.28638371397073e+18 -0 -0)
(7.35174704048256e+18 -0 -0)
(7.41682438035333e+18 -0 -0)
(7.48159457175368e+18 -0 -0)
(7.54603645334137e+18 -0 -0)
(7.61012894841861e+18 -0 -0)
(7.6738509711147e+18 -0 -0)
(7.7371813675348e+18 -0 -0)
(7.80009983381308e+18 -0 -0)
(7.8625852586281e+18 -0 -0)
(7.92461547875385e+18 -0 -0)
(7.98617360362251e+18 -0 -0)
(8.04724151817664e+18 -0 -0)
(8.10777961748173e+18 -0 -0)
(8.16778688391067e+18 -0 -0)
(8.22729705393392e+18 -0 -0)
(8.28629986107374e+18 -0 -0)
(8.34477719952252e+18 -0 -0)
(8.40270977147052e+18 -0 -0)
(8.46007936389706e+18 -0 -0)
(8.51686813859259e+18 -0 -0)
(8.57305473942957e+18 -0 -0)
(8.62863099925915e+18 -0 -0)
(8.68356070781282e+18 -0 -0)
(8.73785676099301e+18 -0 -0)
(8.79146964205903e+18 -0 -0)
(8.84439696630982e+18 -0 -0)
(8.89668810968274e+18 -0 -0)
(8.94806303146213e+18 -0 -0)
(8.99921864622396e+18 -0 -0)
(9.04860018232358e+18 -0 -0)
(9.09899544796835e+18 -0 -0)
(9.14621456530891e+18 -0 -0)
(9.19471816101677e+18 -0 -0)
(9.24267205382944e+18 -0 -0)
(9.28938088347526e+18 -0 -0)
(9.33512747797732e+18 -0 -0)
(9.38080127745923e+18 -0 -0)
(9.42416772892369e+18 -0 -0)
(9.46961717596547e+18 -0 -0)
(9.51126578458028e+18 -0 -0)
(9.55553918158373e+18 -0 -0)
(9.59647791841705e+18 -0 -0)
(9.6369318823417e+18 -0 -0)
(9.67468184390602e+18 -0 -0)
(9.71896483961169e+18 -0 -0)
(9.7506495200031e+18 -0 -0)
(9.78637585486763e+18 -0 -0)
(9.82776021370527e+18 -0 -0)
(9.85799458889182e+18 -0 -0)
(9.88418364086784e+18 -0 -0)
(9.92892696391963e+18 -0 -0)
(9.94443506475093e+18 -0 -0)
(9.97989283266882e+18 -0 -0)
(1.00019658223554e+19 -0 -0)
(1.0033163867884e+19 -0 -0)
(1.00411831848024e+19 -0 -0)
(1.00829762365116e+19 -0 -0)
(1.00873218495827e+19 -0 -0)
(1.01188025035787e+19 -0 -0)
(1.01325488696804e+19 -0 -0)
(1.0166933487913e+19 -0 -0)
(1.01856695592909e+19 -0 -0)
(1.02201459436111e+19 -0 -0)
(1.02575068555761e+19 -0 -0)
(1.03085754654922e+19 -0 -0)
(1.03767726926414e+19 -0 -0)
(1.04704674495151e+19 -0 -0)
(1.06179041295619e+19 -0 -0)
(1.08043091161675e+19 -0 -0)
(1.10519269252973e+19 -0 -0)
(1.13072603784843e+19 -0 -0)
(1.16019360552397e+19 -0 -0)
(1.17852920013376e+19 -0 -0)
(1.19802892582843e+19 -0 -0)
(1.21245306675046e+19 -0 -0)
(1.22267287631302e+19 -0 -0)
(1.23058116294686e+19 -0 -0)
(1.23715543925265e+19 -0 -0)
(1.24274015639383e+19 -0 -0)
(1.24790175320573e+19 -0 -0)
(1.25268555089203e+19 -0 -0)
(1.25730101483916e+19 -0 -0)
(1.26166300911901e+19 -0 -0)
(1.2662785854112e+19 -0 -0)
(1.2705577397135e+19 -0 -0)
(1.27519432969644e+19 -0 -0)
(1.27948805342854e+19 -0 -0)
(1.28417075936603e+19 -0 -0)
(1.28848883449812e+19 -0 -0)
(1.29322245272331e+19 -0 -0)
(1.29757244574866e+19 -0 -0)
(1.30234687473928e+19 -0 -0)
(1.30670569737943e+19 -0 -0)
(1.31149103405831e+19 -0 -0)
(1.31573212620986e+19 -0 -0)
(1.3205603070674e+19 -0 -0)
(1.32470091839599e+19 -0 -0)
(1.32946276090431e+19 -0 -0)
(1.33347628867893e+19 -0 -0)
(1.33813314177681e+19 -0 -0)
(1.34198213305983e+19 -0 -0)
(1.34651387302342e+19 -0 -0)
(1.35017996778664e+19 -0 -0)
(1.35456802221259e+19 -0 -0)
(1.35804034355107e+19 -0 -0)
(1.36227233156385e+19 -0 -0)
(1.36553086264125e+19 -0 -0)
(1.36958970841064e+19 -0 -0)
(1.37262773920544e+19 -0 -0)
(1.37651421793869e+19 -0 -0)
(1.37934043349587e+19 -0 -0)
(1.38304271971227e+19 -0 -0)
(1.38571694900789e+19 -0 -0)
(1.38927414861938e+19 -0 -0)
(1.39175867822763e+19 -0 -0)
(1.39517093186527e+19 -0 -0)
(1.39746236548916e+19 -0 -0)
(1.40072346665124e+19 -0 -0)
(1.40281547828824e+19 -0 -0)
(1.40592091008392e+19 -0 -0)
(1.40782145505499e+19 -0 -0)
(1.41078610013351e+19 -0 -0)
(1.41251200466713e+19 -0 -0)
(1.41534915197283e+19 -0 -0)
(1.41691233329074e+19 -0 -0)
(1.41963838726886e+19 -0 -0)
(1.42105163366961e+19 -0 -0)
(1.42368269199249e+19 -0 -0)
(1.42495729473044e+19 -0 -0)
(1.42750369537725e+19 -0 -0)
(1.4286454514479e+19 -0 -0)
(1.43110799294481e+19 -0 -0)
(1.43212153418693e+19 -0 -0)
(1.43450761725571e+19 -0 -0)
(1.43540793118734e+19 -0 -0)
(1.43771134199364e+19 -0 -0)
(1.43855888450189e+19 -0 -0)
(1.44081062120877e+19 -0 -0)
(1.44156042210349e+19 -0 -0)
(1.44376559762232e+19 -0 -0)
(1.44441639830782e+19 -0 -0)
(1.44657660521597e+19 -0 -0)
(1.44712547691755e+19 -0 -0)
(1.44924385174287e+19 -0 -0)
(1.44969192197916e+19 -0 -0)
(1.45177136293042e+19 -0 -0)
(1.45211731931951e+19 -0 -0)
(1.45415946390716e+19 -0 -0)
(1.45440077586201e+19 -0 -0)
(1.45640172569182e+19 -0 -0)
(1.45653598246091e+19 -0 -0)
(1.4584893341443e+19 -0 -0)
(1.4585145912001e+19 -0 -0)
(1.4604151293797e+19 -0 -0)
(1.46033526299416e+19 -0 -0)
(1.46218724137587e+19 -0 -0)
(1.46201282887801e+19 -0 -0)
(1.46382592610906e+19 -0 -0)
(1.46356632878218e+19 -0 -0)
(1.46534787309573e+19 -0 -0)
(1.46499979958201e+19 -0 -0)
(1.46674970002618e+19 -0 -0)
(1.46631392464195e+19 -0 -0)
(1.46802332490722e+19 -0 -0)
(1.46748408057605e+19 -0 -0)
(1.46914337619035e+19 -0 -0)
(1.46848046047865e+19 -0 -0)
(1.47005784358771e+19 -0 -0)
(1.46808773081879e+19 -0 -0)
)
;

boundaryField
{
    electrode
    {
        type            calculated;
        value           uniform (-9041633000.21204 -0 -0);
    }
    ground
    {
        type            calculated;
        value           uniform (1.4699385932937e+19 -0 -0);
    }
    otherfaces
    {
        type            empty;
    }
}


// ************************************************************************* //
