/*--------------------------------*- C++ -*----------------------------------*\
| =========                 |                                                 |
| \\      /  F ield         | foam-extend: Open Source CFD                    |
|  \\    /   O peration     | Version:     4.0                                |
|   \\  /    A nd           | Web:         http://www.foam-extend.org         |
|    \\/     M anipulation  |                                                 |
\*---------------------------------------------------------------------------*/
FoamFile
{
    version     2.0;
    format      ascii;
    class       volVectorField;
    location    "5.3e-06";
    object      J_electron;
}
// * * * * * * * * * * * * * * * * * * * * * * * * * * * * * * * * * * * * * //

dimensions      [1 -1 -1 0 0 0 0];

internalField   nonuniform List<vector> 
300
(
(-1.29597396958244e+19 0 0)
(-1.32972598697407e+19 0 0)
(-1.57022457984211e+19 0 0)
(-1.52317794669206e+19 0 0)
(-1.52331915987555e+19 0 0)
(-1.52204415563222e+19 0 0)
(-1.51603098597721e+19 0 0)
(-1.51153944633307e+19 0 0)
(-1.50681547513842e+19 0 0)
(-1.50203232574856e+19 0 0)
(-1.49728230120593e+19 0 0)
(-1.49252023533106e+19 0 0)
(-1.48775492446384e+19 0 0)
(-1.48298661847578e+19 0 0)
(-1.47821410761824e+19 0 0)
(-1.47343737163936e+19 0 0)
(-1.46865607467702e+19 0 0)
(-1.46386987889147e+19 0 0)
(-1.45907847191443e+19 0 0)
(-1.45428151380955e+19 0 0)
(-1.44947866213415e+19 0 0)
(-1.44466957381075e+19 0 0)
(-1.43985388488117e+19 0 0)
(-1.43503123211421e+19 0 0)
(-1.43020124312501e+19 0 0)
(-1.4253635346547e+19 0 0)
(-1.42051771441789e+19 0 0)
(-1.41566338247992e+19 0 0)
(-1.41080013121915e+19 0 0)
(-1.40592754395552e+19 0 0)
(-1.40104519350672e+19 0 0)
(-1.39615264984247e+19 0 0)
(-1.39124946937545e+19 0 0)
(-1.38633520405289e+19 0 0)
(-1.38140939137666e+19 0 0)
(-1.37647157581519e+19 0 0)
(-1.37152127269297e+19 0 0)
(-1.3665580076118e+19 0 0)
(-1.36158130462922e+19 0 0)
(-1.35659070820319e+19 0 0)
(-1.35158574759998e+19 0 0)
(-1.34656587191374e+19 0 0)
(-1.34153029618968e+19 0 0)
(-1.33647800651674e+19 0 0)
(-1.33140858280895e+19 0 0)
(-1.32632444254615e+19 0 0)
(-1.32123168031016e+19 0 0)
(-1.31613048759609e+19 0 0)
(-1.31098933802075e+19 0 0)
(-1.30573469612156e+19 0 0)
(-1.30034122182251e+19 0 0)
(-1.29497190705605e+19 0 0)
(-1.28970624380064e+19 0 0)
(-1.28445628131398e+19 0 0)
(-1.27919087016343e+19 0 0)
(-1.2739019035115e+19 0 0)
(-1.2685864991057e+19 0 0)
(-1.26324355412003e+19 0 0)
(-1.25787249420182e+19 0 0)
(-1.25247290480135e+19 0 0)
(-1.24704441906142e+19 0 0)
(-1.24158668815752e+19 0 0)
(-1.23609935901027e+19 0 0)
(-1.23058209573996e+19 0 0)
(-1.22503455330303e+19 0 0)
(-1.21945639611356e+19 0 0)
(-1.21384729841539e+19 0 0)
(-1.20820693539931e+19 0 0)
(-1.20253499479302e+19 0 0)
(-1.19683117671753e+19 0 0)
(-1.19109518429554e+19 0 0)
(-1.18532674840706e+19 0 0)
(-1.17952559738839e+19 0 0)
(-1.17369148980781e+19 0 0)
(-1.16782419225718e+19 0 0)
(-1.16192349197666e+19 0 0)
(-1.15598919754981e+19 0 0)
(-1.15002113239149e+19 0 0)
(-1.14401914475756e+19 0 0)
(-1.13798310378644e+19 0 0)
(-1.13191289929495e+19 0 0)
(-1.12580844882769e+19 0 0)
(-1.11966968689441e+19 0 0)
(-1.11349657812266e+19 0 0)
(-1.10728910768099e+19 0 0)
(-1.10104728543471e+19 0 0)
(-1.09477114818037e+19 0 0)
(-1.08846075825404e+19 0 0)
(-1.08211619648252e+19 0 0)
(-1.07573757635535e+19 0 0)
(-1.06932502438085e+19 0 0)
(-1.0628787026899e+19 0 0)
(-1.05639878481763e+19 0 0)
(-1.04988546948992e+19 0 0)
(-1.04333898103516e+19 0 0)
(-1.0367595507415e+19 0 0)
(-1.03014743679854e+19 0 0)
(-1.02350290979342e+19 0 0)
(-1.01682624979985e+19 0 0)
(-1.01011775564111e+19 0 0)
(-1.00337772801556e+19 0 0)
(-9.96606473967134e+18 0 0)
(-9.89804304094095e+18 0 0)
(-9.82971532388965e+18 0 0)
(-9.76108457000121e+18 0 0)
(-9.69215378848376e+18 0 0)
(-9.62292578524017e+18 0 0)
(-9.5534031656688e+18 0 0)
(-9.48358836948409e+18 0 0)
(-9.41348342928454e+18 0 0)
(-9.34309009333158e+18 0 0)
(-9.27240965527123e+18 0 0)
(-9.20144283631721e+18 0 0)
(-9.13018985194507e+18 0 0)
(-9.05865015432367e+18 0 0)
(-8.98682240273691e+18 0 0)
(-8.91470440478802e+18 0 0)
(-8.84229287847972e+18 0 0)
(-8.76958343817226e+18 0 0)
(-8.69657034679806e+18 0 0)
(-8.62324648770168e+18 0 0)
(-8.54960299866377e+18 0 0)
(-8.47562930759978e+18 0 0)
(-8.40131273915787e+18 0 0)
(-8.32663837030429e+18 0 0)
(-8.25158876371721e+18 0 0)
(-8.176143643428e+18 0 0)
(-8.10027975061694e+18 0 0)
(-8.02397001867277e+18 0 0)
(-7.94718407247109e+18 0 0)
(-7.86988669107123e+18 0 0)
(-7.79203802653472e+18 0 0)
(-7.71359355220263e+18 0 0)
(-7.63450217433085e+18 0 0)
(-7.5547037951863e+18 0 0)
(-7.47413825181817e+18 0 0)
(-7.39273881964302e+18 0 0)
(-7.31038021693315e+18 0 0)
(-7.22703213903688e+18 0 0)
(-7.14265188738951e+18 0 0)
(-7.05678153800535e+18 0 0)
(-6.96947648905714e+18 0 0)
(-6.88168708871448e+18 0 0)
(-6.79033642319872e+18 0 0)
(-6.6928927229157e+18 0 0)
(-6.59456466112374e+18 0 0)
(-6.49703976231082e+18 0 0)
(-6.39736533908508e+18 0 0)
(-6.29473341174972e+18 0 0)
(-6.18874655742204e+18 0 0)
(-6.0792063584507e+18 0 0)
(-5.96514525325925e+18 0 0)
(-5.8471189617469e+18 0 0)
(-5.72307946343393e+18 0 0)
(-5.59385702278313e+18 0 0)
(-5.45876637988055e+18 0 0)
(-5.31282383131378e+18 0 0)
(-5.16859217268808e+18 0 0)
(-4.99254914196177e+18 0 0)
(-4.84683066785346e+18 0 0)
(-4.6147419186177e+18 0 0)
(-4.41850483423628e+18 0 0)
(-4.06685340521307e+18 0 0)
(-3.12787488005633e+18 0 0)
(-2.53467402470687e+18 0 0)
(-2.56418269401239e+18 0 0)
(-2.45572708170256e+18 0 0)
(-2.15677751492136e+18 0 0)
(-1.5488316595933e+18 0 0)
(-9.53495561824109e+17 0 0)
(-4.77617668356047e+17 0 0)
(-1.31988722804589e+17 0 0)
(-7.09132909029622e+17 0 0)
(-1.22558564307724e+18 0 0)
(-5.72454463300698e+17 0 0)
(-9.74932089283543e+17 0 0)
(-2.46140933191919e+18 0 0)
(-2.81467088176205e+18 0 0)
(-2.90143506861025e+18 0 0)
(-4.40943358437543e+18 0 0)
(-4.58827719335268e+18 0 0)
(-4.20414652082763e+18 0 0)
(-4.3432417887288e+18 0 0)
(-3.21352844489785e+18 0 0)
(-1.2868158898758e+18 0 0)
(4.0643154107066e+17 0 0)
(2.9288712475472e+18 0 0)
(5.78267054999129e+18 0 0)
(7.89388989926946e+18 0 0)
(9.74229584731177e+18 0 0)
(1.10891492782986e+19 0 0)
(1.18497558682862e+19 0 0)
(1.18423861773077e+19 0 0)
(9.47711118380853e+18 0 0)
(8.95330043513065e+18 0 0)
(6.80132326674838e+18 0 0)
(5.00163493199413e+18 0 0)
(8.03471719548115e+18 0 0)
(-5.12884624869566e+18 0 0)
(1.59665710632437e+18 0 0)
(-3.47170169236619e+17 0 0)
(-2.2753988095268e+18 0 0)
(-2.27226171092962e+18 0 0)
(-2.18851075620966e+18 0 0)
(-2.24842805432283e+18 0 0)
(-2.47123129894767e+18 0 0)
(-2.72230654887833e+18 0 0)
(-2.88999531282478e+18 0 0)
(-2.97815722038891e+18 0 0)
(-3.00820282547558e+18 0 0)
(-3.00150158261212e+18 0 0)
(-2.9814996259749e+18 0 0)
(-2.94881411227243e+18 0 0)
(-2.9097530959083e+18 0 0)
(-2.87122330991983e+18 0 0)
(-2.82808209465393e+18 0 0)
(-2.78226198556614e+18 0 0)
(-2.73485626112594e+18 0 0)
(-2.68738487814088e+18 0 0)
(-2.63903014817076e+18 0 0)
(-2.59199483709358e+18 0 0)
(-2.5435618529816e+18 0 0)
(-2.49510876344383e+18 0 0)
(-2.44657023618547e+18 0 0)
(-2.3981404459139e+18 0 0)
(-2.34989364140411e+18 0 0)
(-2.30192132326694e+18 0 0)
(-2.25432283886786e+18 0 0)
(-2.20717887951791e+18 0 0)
(-2.16056350198507e+18 0 0)
(-2.11454335290357e+18 0 0)
(-2.06917764899468e+18 0 0)
(-2.02451909104961e+18 0 0)
(-1.98061315455628e+18 0 0)
(-1.93749919622627e+18 0 0)
(-1.89520990556503e+18 0 0)
(-1.85377243263968e+18 0 0)
(-1.81320772437076e+18 0 0)
(-1.77353206703543e+18 0 0)
(-1.73475282644909e+18 0 0)
(-1.69687598498122e+18 0 0)
(-1.65982607880124e+18 0 0)
(-1.62391923397028e+18 0 0)
(-1.58876718747537e+18 0 0)
(-1.55453071832972e+18 0 0)
(-1.52117657999613e+18 0 0)
(-1.48870304745489e+18 0 0)
(-1.45709499192251e+18 0 0)
(-1.4263376421002e+18 0 0)
(-1.39641384438451e+18 0 0)
(-1.36730560613387e+18 0 0)
(-1.33899360769646e+18 0 0)
(-1.31145898173435e+18 0 0)
(-1.28468004429841e+18 0 0)
(-1.25865344415838e+18 0 0)
(-1.23327303494304e+18 0 0)
(-1.20865017304004e+18 0 0)
(-1.18472668270875e+18 0 0)
(-1.16138669283976e+18 0 0)
(-1.13870590420084e+18 0 0)
(-1.11663198497547e+18 0 0)
(-1.09515039691041e+18 0 0)
(-1.07423994270002e+18 0 0)
(-1.05388197625379e+18 0 0)
(-1.03405799062977e+18 0 0)
(-1.01475142948572e+18 0 0)
(-9.95944168024547e+17 0 0)
(-9.7760986772029e+17 0 0)
(-9.59752256123502e+17 0 0)
(-9.42214659380529e+17 0 0)
(-9.25363800302214e+17 0 0)
(-9.08805450356004e+17 0 0)
(-8.92663902218356e+17 0 0)
(-8.76909792976521e+17 0 0)
(-8.61539026336549e+17 0 0)
(-8.46538691602418e+17 0 0)
(-8.3189777684791e+17 0 0)
(-8.1760492741331e+17 0 0)
(-8.03649231923587e+17 0 0)
(-7.90019866012417e+17 0 0)
(-7.76704141904495e+17 0 0)
(-7.63688519721045e+17 0 0)
(-7.50914505129849e+17 0 0)
(-7.38364148194358e+17 0 0)
(-7.26512858624201e+17 0 0)
(-7.14706691278189e+17 0 0)
(-7.03187073506439e+17 0 0)
(-6.91927715809113e+17 0 0)
(-6.80797592132666e+17 0 0)
(-6.70014132121005e+17 0 0)
(-6.59922424177745e+17 0 0)
(-6.49827398573231e+17 0 0)
(-6.39577214107782e+17 0 0)
(-6.30535162549662e+17 0 0)
(-6.21232797162845e+17 0 0)
(-6.12614922908658e+17 0 0)
(-6.04475630040833e+17 0 0)
(-5.97642403947127e+17 0 0)
(-5.91405702505458e+17 0 0)
(-5.8102748288451e+17 0 0)
)
;

boundaryField
{
    electrode
    {
        type            calculated;
        value           uniform (-1.54735740643696e+19 0 0);
    }
    ground
    {
        type            calculated;
        value           uniform (-5.78437311344997e+17 0 0);
    }
    otherfaces
    {
        type            empty;
    }
}


// ************************************************************************* //
