/*--------------------------------*- C++ -*----------------------------------*\
| =========                 |                                                 |
| \\      /  F ield         | foam-extend: Open Source CFD                    |
|  \\    /   O peration     | Version:     4.0                                |
|   \\  /    A nd           | Web:         http://www.foam-extend.org         |
|    \\/     M anipulation  |                                                 |
\*---------------------------------------------------------------------------*/
FoamFile
{
    version     2.0;
    format      ascii;
    class       volScalarField;
    location    "5.3e-06";
    object      N_electronMean;
}
// * * * * * * * * * * * * * * * * * * * * * * * * * * * * * * * * * * * * * //

dimensions      [0 0 0 1 0 0 0];

internalField   nonuniform List<scalar> 
300
(
6.00793464979548e+16
6.00778728438068e+16
6.00737803194013e+16
6.00665821158394e+16
6.0056311226088e+16
6.00429290568339e+16
6.0026412647947e+16
6.00067488265932e+16
5.99839255328188e+16
5.99579339064323e+16
5.99287676833797e+16
5.98964229367505e+16
5.98608979109292e+16
5.98221928359395e+16
5.97803098001363e+16
5.97352526236435e+16
5.96870267507534e+16
5.96356391575154e+16
5.95810982619224e+16
5.95234138389319e+16
5.9462596945377e+16
5.93986598489041e+16
5.93316159594099e+16
5.9261479758852e+16
5.91882667500503e+16
5.91119934165838e+16
5.90326771491765e+16
5.89503361724542e+16
5.88649894852281e+16
5.87766567799228e+16
5.8685358390439e+16
5.85911152781482e+16
5.84939489584543e+16
5.83938813826167e+16
5.82909348527616e+16
5.81851319538039e+16
5.80764954863855e+16
5.79650484053534e+16
5.78508137524802e+16
5.77338145880915e+16
5.76140739348506e+16
5.74916147204483e+16
5.73664597095335e+16
5.72386314413924e+16
5.71081521760221e+16
5.69750438415456e+16
5.68393279851409e+16
5.6701025729144e+16
5.65601577367105e+16
5.64167441868696e+16
5.62708047737557e+16
5.61223587099257e+16
5.59714246954327e+16
5.58180208547622e+16
5.56621646413223e+16
5.55038727372293e+16
5.53431609666787e+16
5.51800442273495e+16
5.50145364372693e+16
5.48466504833282e+16
5.46763981751673e+16
5.45037902025424e+16
5.43288360884152e+16
5.41515441776313e+16
5.39719216682623e+16
5.37899745665111e+16
5.36057075699885e+16
5.34191239970397e+16
5.32302257511628e+16
5.30390132845849e+16
5.284548556137e+16
5.26496400393785e+16
5.24514726880016e+16
5.22509779679074e+16
5.20481487668672e+16
5.18429763997819e+16
5.16354506327028e+16
5.14255596497812e+16
5.12132899663339e+16
5.09986263744413e+16
5.07815519344943e+16
5.05620478856326e+16
5.03400935596284e+16
5.01156663508756e+16
4.98887417024342e+16
4.96592931191708e+16
4.94272921281325e+16
4.91927081954925e+16
4.89555086891251e+16
4.87156588747279e+16
4.84731218831339e+16
4.82278587285753e+16
4.79798283412549e+16
4.77289874661722e+16
4.74752905682745e+16
4.72186898091781e+16
4.69591350232357e+16
4.6696573694663e+16
4.64309509353233e+16
4.61622094771266e+16
4.58902896635883e+16
4.56151294141396e+16
4.53366642304865e+16
4.50548272295776e+16
4.47695491001249e+16
4.44807580765093e+16
4.41883799424311e+16
4.38923380187886e+16
4.35925531744799e+16
4.3288943803096e+16
4.29814257877083e+16
4.26699124970897e+16
4.23543147973451e+16
4.20345410869156e+16
4.1710497310404e+16
4.13820869732997e+16
4.10492112203358e+16
4.07117688768377e+16
4.0369656409034e+16
4.0022767897188e+16
3.96709950842091e+16
3.93142274498591e+16
3.89523522751838e+16
3.85852547210797e+16
3.821281783052e+16
3.78349224775834e+16
3.74514474010412e+16
3.70622692736379e+16
3.6667262724596e+16
3.6266300376946e+16
3.58592529220773e+16
3.54459891946771e+16
3.50263762361752e+16
3.46002793566713e+16
3.41675622813966e+16
3.37280873223106e+16
3.32817154202319e+16
3.28283061312794e+16
3.23677176828841e+16
3.18998070795989e+16
3.14244301713524e+16
3.09414417164123e+16
3.0450695477543e+16
2.99520443371476e+16
2.94453404875211e+16
2.89304356309439e+16
2.84071811013513e+16
2.78754279563878e+16
2.73350270400526e+16
2.67858291290099e+16
2.62276851705518e+16
2.56604464041203e+16
2.50839645080756e+16
2.44980918487657e+16
2.39026816125433e+16
2.32975881010777e+16
2.26826670475654e+16
2.20577761361947e+16
2.1422775004896e+16
2.07775248225052e+16
2.01218848986022e+16
1.94556931379332e+16
1.87787383059286e+16
1.80907514671248e+16
1.73914232434829e+16
1.66804365371353e+16
1.59574826162606e+16
1.52222505556868e+16
1.44744230379302e+16
1.37137051648327e+16
1.29399077929674e+16
1.21530978388583e+16
1.13537837197284e+16
1.0543098898793e+16
9.7230297036166e+15
8.8966590003118e+15
8.06837122836325e+15
7.2440570868934e+15
6.43115337555702e+15
5.63846293102867e+15
4.87583932571124e+15
4.15362207220352e+15
3.48183675414713e+15
2.86933875539703e+15
2.32296368255252e+15
1.84680641612906e+15
1.44184668135939e+15
1.1059514759087e+15
834242953128808
619795559448679
454458115815572
329692486238805
237313306590343
170042067300264
121271073101207
85929831639177.8
60398274246232.2
41970333083394.9
28781147910341
19569476630763.6
13241944491009.8
8947245045187.91
6140792586478.28
4399550192986.59
3367943401140.92
2769982863863.69
2419964194843.19
2207990660265.53
2073452662602.41
1983500567300.51
1920033678255.36
1872634543845.08
1835089921133.93
1803543335769.8
1775520854107.11
1749391622525.99
1724071757614.56
1698843035341.75
1673262714942.68
1647045234634.44
1620008776746.38
1592034086818.01
1563089339407.02
1533208558120.52
1502463312280.65
1470950462145.52
1438782882986.63
1406081327809.22
1372969712364.27
1339571305616.44
1306005958137.52
1272388957025.73
1238828677501.18
1205426031212.13
1172274160817.43
1139457598311.01
1107052021047.12
1075125010382.93
1043735318643.52
1012933578437.65
982763029477.387
953259315109.428
924451317868.422
896361406192.813
869006722794.871
842399663070.13
816546908308.694
791450673461.561
767109275403.744
743517889832.775
720670298996.151
698558444088.011
677171909584.774
656498073623.59
636522826025.029
617231624812.912
598608062709.699
580632523925.504
563285856919.84
546550770536.143
530409487994.989
514843069629.758
499832544760.547
485358767199.382
471402784242.414
457946153475.949
444969504147.303
432453085240.91
420377857857.281
408724987326.307
397476143428.182
386615477026.66
376129259992.979
366005012534.364
356230990160.242
346796170210.152
337690166860.478
328903117590.018
320425982251.784
312250565122.144
304369354222.285
296774534423.188
289457415304.63
282395478002.774
275563947370.36
268958730296.947
262586816205.705
256456661255.181
250576919260.07
244929620634.209
239492584144.396
234284375803.855
229343000004.319
224664910452.664
220279820285.487
216265226297.788
212741181459.624
209956558091.407
208306548692.389
208511748005.937
)
;

boundaryField
{
    electrode
    {
        type            calculated;
        value           uniform 6.00793464981779e+16;
    }
    ground
    {
        type            calculated;
        value           uniform 210056240863.818;
    }
    otherfaces
    {
        type            empty;
    }
}


// ************************************************************************* //
