/*--------------------------------*- C++ -*----------------------------------*\
| =========                 |                                                 |
| \\      /  F ield         | foam-extend: Open Source CFD                    |
|  \\    /   O peration     | Version:     4.0                                |
|   \\  /    A nd           | Web:         http://www.foam-extend.org         |
|    \\/     M anipulation  |                                                 |
\*---------------------------------------------------------------------------*/
FoamFile
{
    version     2.0;
    format      ascii;
    class       volScalarField;
    location    "5.3e-06";
    object      PhiMean;
}
// * * * * * * * * * * * * * * * * * * * * * * * * * * * * * * * * * * * * * //

dimensions      [0 0 0 1 0 0 0];

internalField   nonuniform List<scalar> 
300
(
699.986112153333
699.984740960821
699.983103499543
699.981221340641
699.979103942518
699.976744366218
699.974141852421
699.971295188632
699.968203190082
699.964864976092
699.961279794147
699.957447047714
699.953366261348
699.949037070168
699.94445920843
699.939632498094
699.934556839391
699.929232204642
699.923658630318
699.917836209679
699.911765087413
699.905445454276
699.898877541912
699.892061617796
699.884997979334
699.877686960045
699.870128917622
699.862324229319
699.854273290637
699.845976506309
699.837434283589
699.82864704466
699.819615217935
699.810339221737
699.800819460428
699.791056319846
699.781050161927
699.770801322115
699.760310103886
699.749576772436
699.738601551671
699.727384621298
699.715926109105
699.704226086878
699.692284566017
699.680101493479
699.667676747314
699.655010133635
699.642101383165
699.628950151538
699.615556018106
699.60191849632
699.588037023887
699.573910963895
699.559539586381
699.544922060504
699.530057441072
699.514944662566
699.499582533421
699.483969729566
699.468104789235
699.451986107183
699.435611928012
699.418980339323
699.402089287449
699.384936570038
699.367519807851
699.349836439049
699.331883713149
699.31365868403
699.295158202675
699.276378908688
699.257317235697
699.237969407976
699.218331417231
699.198399024039
699.178167764416
699.157632934324
699.136789578911
699.11563246249
699.09415609184
699.072354674688
699.050222106399
699.027751962522
699.004937483099
698.981771578595
698.95824681186
698.934355371795
698.910089058696
698.885439280088
698.860397030793
698.834952875591
698.809096973061
698.782819016902
698.756108214646
698.728953271575
698.701342369429
698.673263148116
698.644702680273
698.615647453567
698.586083349328
698.555995612135
698.525368818434
698.49418687885
698.462432982733
698.430089569965
698.397138308014
698.363560042302
698.329334778286
698.294441630242
698.258858772895
698.222563400327
698.185531676085
698.147738692894
698.109158421551
698.069763643249
698.029525913443
697.988415505836
697.946401320847
697.903450804968
697.859529870539
697.814602834667
697.768632312033
697.721579147396
697.673402291501
697.624058662693
697.573503019734
697.521687845877
697.468563178795
697.414076453299
697.358172327041
697.300792494414
697.241875474185
697.181356373885
697.119166646044
697.05523386042
696.989481366188
696.92182794524
696.852187419106
696.780468259374
696.706573112061
696.630398280482
696.551833156417
696.470759575961
696.387051123455
696.300572361145
696.211177906832
696.118711419282
696.0230044136
695.92387492938
695.821126091401
695.714544347194
695.603897474967
695.488932350416
695.369372268388
695.244913820793
695.115223499171
694.97993320114
694.838635908527
694.690878581951
694.536157219687
694.373901931663
694.203447593527
694.024015960727
693.83470195778
693.634467645398
693.422128131104
693.196299779877
692.955351705574
692.697345732529
692.419989344835
692.120617986283
691.796189743012
691.44319048456
691.057597868168
690.634936870092
690.170191457991
689.657862994831
689.092164433682
688.466900776843
687.775719143234
687.012341501237
686.170613808519
685.244674398095
684.229407625055
683.120283348193
681.913565427515
680.606499959047
679.197203416883
677.684565051643
676.068156646566
674.3481259222
672.525167235134
670.600433758196
668.574977967195
666.449689561055
664.225232169304
661.902041070849
659.480510414137
656.96097958361
654.343634379559
651.62866746626
648.816371353942
645.90730934698
642.902365918094
639.802502545018
636.608728350019
633.322003020658
629.94324522469
626.473289232532
622.912916033924
619.262818298728
615.523738851036
611.696558287417
607.782142322517
603.781275041611
599.694697682376
595.523079004109
591.267055539822
586.927199070074
582.504058319676
577.998123749379
573.409870801134
568.739722737312
563.988096031536
559.155464806371
554.242425488792
549.24952271103
544.177298751855
539.026247008358
533.796863464808
528.489597281408
523.104905593973
517.643203011976
512.104916415185
506.490429578843
500.800141554522
495.034408651805
489.193605533125
483.278064429503
477.288139023203
471.224141299793
465.086410753506
458.875344824079
452.591413819781
446.235037421734
439.806663509307
433.306688702014
426.735540350891
420.093593662333
413.381257125051
406.598885896041
399.746871063652
392.825548867421
385.835294266611
378.776425586697
371.649302726738
364.454227016634
357.191544196907
349.861539471196
342.46454518105
335.00083119375
327.47071719437
319.874458249766
312.212362083059
304.484673447475
296.691699213354
288.833692602089
280.911012830746
272.923974772677
264.872965540188
256.758286510246
248.580313895668
240.339334869674
232.035715426618
223.669729027407
215.241732079942
206.751984835769
198.200834693281
189.588529183826
180.915407234317
172.181704056665
163.387750643897
154.53377027317
145.620086653921
136.646911589587
127.614562038676
118.523238643975
109.373252082353
100.164792127853
90.8981635771559
81.5735458640657
72.1912386151999
62.7514112434782
53.2543585497994
43.7002405924625
34.0893482212975
24.4218326383091
14.6979818827621
4.91793926354253
)
;

boundaryField
{
    electrode
    {
        type            calculated;
        value           uniform 700.000000000067;
    }
    ground
    {
        type            calculated;
        value           uniform 0;
    }
    otherfaces
    {
        type            empty;
    }
}


// ************************************************************************* //
