/*--------------------------------*- C++ -*----------------------------------*\
| =========                 |                                                 |
| \\      /  F ield         | foam-extend: Open Source CFD                    |
|  \\    /   O peration     | Version:     4.0                                |
|   \\  /    A nd           | Web:         http://www.foam-extend.org         |
|    \\/     M anipulation  |                                                 |
\*---------------------------------------------------------------------------*/
FoamFile
{
    version     2.0;
    format      ascii;
    class       volScalarField;
    location    "5.3e-06";
    object      Sy_electron;
}
// * * * * * * * * * * * * * * * * * * * * * * * * * * * * * * * * * * * * * //

dimensions      [1 -3 -1 0 0 0 0];

internalField   nonuniform List<scalar> 
300
(
3.41657560367937e-09
3.41737744320332e-09
3.41769710810249e-09
3.41764683377669e-09
3.41762726277519e-09
3.41756125705572e-09
3.41745856731585e-09
3.41732434342967e-09
3.41715614681957e-09
3.41695417988934e-09
3.41671819500802e-09
3.41644785313948e-09
3.41614286514627e-09
3.41580291510451e-09
3.41542767659399e-09
3.41501681278934e-09
3.41456997455063e-09
3.41408680051479e-09
3.41356691656825e-09
3.41300993534484e-09
3.41241545574337e-09
3.41178306240276e-09
3.41111232515308e-09
3.41040279846089e-09
3.40965402080685e-09
3.40886551415887e-09
3.40803678328613e-09
3.40716731512903e-09
3.40625657816367e-09
3.405304021691e-09
3.40430907512726e-09
3.40327114736812e-09
3.40218962603514e-09
3.40106387669984e-09
3.39989324216145e-09
3.39867704168293e-09
3.39741457021618e-09
3.39610509764053e-09
3.39474786793527e-09
3.39334209831257e-09
3.39188697839277e-09
3.39038166956634e-09
3.38882530469568e-09
3.38721698805373e-09
3.38555579374502e-09
3.38384075878095e-09
3.38207087117613e-09
3.38024507433014e-09
3.37836233368393e-09
3.37642176270408e-09
3.37442259748705e-09
3.37301238512105e-09
3.37200959176761e-09
3.37096657051281e-09
3.3698819260743e-09
3.36875430286555e-09
3.36758232866587e-09
3.36636459990424e-09
3.36509967602427e-09
3.36378607706018e-09
3.36242228215457e-09
3.36100672839102e-09
3.35953780975591e-09
3.35801387611934e-09
3.35643323234163e-09
3.35479413734464e-09
3.35309480314051e-09
3.35133339398272e-09
3.34950802551821e-09
3.34761676396092e-09
3.34565762526144e-09
3.34362857432921e-09
3.34152752428224e-09
3.33935233569453e-09
3.33710081583371e-09
3.33477071800214e-09
3.33235974081956e-09
3.3298655275328e-09
3.32728566539211e-09
3.3246176848809e-09
3.32185905926009e-09
3.31900720376487e-09
3.3160594750164e-09
3.31301317041727e-09
3.30986552747113e-09
3.30661372321289e-09
3.30325487353844e-09
3.29978603251866e-09
3.29620419173755e-09
3.29250627964848e-09
3.28868916081073e-09
3.28474963510674e-09
3.28068443716659e-09
3.27649023533244e-09
3.27216363085086e-09
3.26770115696686e-09
3.26309927793474e-09
3.25835438795695e-09
3.25346281003494e-09
3.24842079477832e-09
3.24322451907416e-09
3.23787008462797e-09
3.23235351637998e-09
3.22667076093198e-09
3.22081768458157e-09
3.21479007136805e-09
3.20858362091279e-09
3.20219394597811e-09
3.19561656995726e-09
3.1888469240024e-09
3.18188034394773e-09
3.17471206696673e-09
3.16733722791537e-09
3.15975085536326e-09
3.1519478672647e-09
3.14392306621491e-09
3.13567113434577e-09
3.12718662780576e-09
3.11846397060204e-09
3.10949744803126e-09
3.10028119949917e-09
3.09080921081532e-09
3.08107530563361e-09
3.07107313637963e-09
3.06079617424293e-09
3.05023769834206e-09
3.03939078399396e-09
3.02824829004049e-09
3.01680284500671e-09
3.00504683211813e-09
2.9929723730151e-09
2.98057131029262e-09
2.96783518812336e-09
2.95475523149201e-09
2.94132232465643e-09
2.92752698526045e-09
2.91335933482648e-09
2.89880908548584e-09
2.88386549061976e-09
2.86851727566068e-09
2.85275273681364e-09
2.83655966081714e-09
2.81992478229547e-09
2.80283480762041e-09
2.78536903675573e-09
2.76915185608156e-09
2.75245729826281e-09
2.7352670798935e-09
2.71756312649784e-09
2.69932653101985e-09
2.68053720336328e-09
2.6611739727197e-09
2.64121414095499e-09
2.62063376644318e-09
2.59940739942495e-09
2.5775072784857e-09
2.55490569980241e-09
2.53156890194345e-09
2.50746967630298e-09
2.48256455643301e-09
2.45683190915988e-09
2.43024505769599e-09
2.40280619407922e-09
2.37483402306685e-09
2.34638929529391e-09
2.31684468058819e-09
2.28578129887329e-09
2.25323168927758e-09
2.21934277493704e-09
2.18095063591147e-09
2.14018494929233e-09
2.09744202935817e-09
2.05186044067026e-09
2.00264109177262e-09
1.95041008659291e-09
1.89518480961496e-09
1.83534094290945e-09
1.77084436647963e-09
1.70299959574379e-09
1.62703503712712e-09
1.5427227433102e-09
1.45752065710233e-09
1.37279668437825e-09
1.29088229433898e-09
1.2159956575747e-09
1.13473019503796e-09
1.06824577886973e-09
1.02106771530819e-09
9.78905873042163e-10
9.63932956515961e-10
9.73550640909641e-10
1.01054739622498e-09
1.09087035584618e-09
1.22351063996139e-09
1.44837442980142e-09
1.81421767820667e-09
2.41313218228175e-09
3.47310931845042e-09
4.72315551998925e-09
5.81059889435149e-09
7.05604234961324e-09
7.47568033368876e-09
6.85801009117537e-09
5.6730503474741e-09
4.41103093339757e-09
3.34005707829021e-09
2.59190918704686e-09
2.09472520090365e-09
1.77596694859915e-09
1.57896196816979e-09
1.4643629084368e-09
1.38930863363551e-09
1.34927834907522e-09
1.33084157120581e-09
1.31972453447414e-09
1.31718352658504e-09
1.31944998532087e-09
1.3239254921632e-09
1.32908709952012e-09
1.3338246679937e-09
1.3374180645339e-09
1.338361811454e-09
1.33656669358137e-09
1.3326723974162e-09
1.32660322434553e-09
1.31836008730252e-09
1.30800197807547e-09
1.29562857692602e-09
1.28136742487264e-09
1.26536501013837e-09
1.2477797978816e-09
1.22877679396007e-09
1.20852324356649e-09
1.18718524469776e-09
1.1649250976433e-09
1.14189925845135e-09
1.11825679087427e-09
1.09413823689378e-09
1.06967481072081e-09
1.04498786383684e-09
1.02018818751421e-09
9.95375132351595e-10
9.70627061241999e-10
9.46018461241718e-10
9.21628261723026e-10
8.97525444033868e-10
8.73770433049416e-10
8.5041482782708e-10
8.27502069930727e-10
8.05068033823432e-10
7.83141669820921e-10
7.61745637687982e-10
7.40896921981856e-10
7.20607515457204e-10
7.00885021235297e-10
6.81734916946763e-10
6.63155369362431e-10
6.45139606136703e-10
6.27682330437758e-10
6.10778194734456e-10
5.94417511012708e-10
5.78589205810697e-10
5.63280868629658e-10
5.48479174677126e-10
5.34170117454245e-10
5.20339237140824e-10
5.06971954488346e-10
4.94053949530086e-10
4.8157040648024e-10
4.69506571541855e-10
4.57834962187745e-10
4.46529055364961e-10
4.35576140737739e-10
4.24964395552049e-10
4.14683256155024e-10
4.04722695118189e-10
3.950732978687e-10
3.85726283209308e-10
3.76673573686876e-10
3.6790785657655e-10
3.59422630661626e-10
3.51211967676487e-10
3.43065228196458e-10
3.34758638765966e-10
3.26660768420722e-10
3.18748622400073e-10
3.11033432794835e-10
3.03528941607171e-10
2.96250122652404e-10
2.88620305567008e-10
2.80523104662981e-10
2.72602345045733e-10
2.64911864886131e-10
2.56172636682014e-10
2.46865414957557e-10
2.37388927048044e-10
2.25561635346251e-10
2.12103472816921e-10
1.95132618409612e-10
1.7103502027952e-10
)
;

boundaryField
{
    electrode
    {
        type            zeroGradient;
    }
    ground
    {
        type            zeroGradient;
    }
    otherfaces
    {
        type            empty;
    }
}


// ************************************************************************* //
