/*--------------------------------*- C++ -*----------------------------------*\
| =========                 |                                                 |
| \\      /  F ield         | foam-extend: Open Source CFD                    |
|  \\    /   O peration     | Version:     4.0                                |
|   \\  /    A nd           | Web:         http://www.foam-extend.org         |
|    \\/     M anipulation  |                                                 |
\*---------------------------------------------------------------------------*/
FoamFile
{
    version     2.0;
    format      ascii;
    class       volScalarField;
    location    "5.3e-06";
    object      Te;
}
// * * * * * * * * * * * * * * * * * * * * * * * * * * * * * * * * * * * * * //

dimensions      [0 0 0 1 0 0 0];

internalField   nonuniform List<scalar> 
300
(
40279.8019372307
40280.1036274304
40280.2884609148
40280.4018700726
40280.5791781069
40280.794574206
40281.0514978042
40281.3517409693
40281.6945620596
40282.0801159064
40282.5084131936
40282.9794435079
40283.4932224771
40284.0497661504
40284.6490966572
40285.2912423775
40285.9762374671
40286.7041220604
40287.474942283
40288.2887502821
40289.1456042764
40290.045568595
40290.9887137293
40291.9751163881
40293.0048595505
40294.0780325284
40295.1947310337
40296.3550572474
40297.5591198917
40298.8070343089
40300.0989225445
40301.4349134329
40302.8151426892
40304.2397530057
40305.7088941558
40307.2227230963
40308.7814040827
40310.3851087885
40312.0340164159
40313.728313804
40315.4681955528
40317.2538642124
40319.0855306076
40320.9634142587
40322.887743326
40324.8587527424
40326.8766805013
40328.9417690981
40331.0542880901
40333.2145785375
40335.42305021
40337.6800405281
40339.985755874
40342.3404202123
40344.7443388112
40347.1978508688
40349.7013128809
40352.2550947352
40354.8595786271
40357.5151589628
40360.2222425639
40362.9812489724
40365.7926108033
40368.6567741117
40371.5741987805
40374.5453589293
40377.5707433304
40380.6508558475
40383.7862158925
40386.9773588969
40390.2248368071
40393.5292185958
40396.8910907984
40400.3110580709
40403.789743769
40407.3277905581
40410.9258610423
40414.5846384283
40418.3048272146
40422.0871539112
40425.9323677955
40429.8412416977
40433.8145728266
40437.8531836336
40441.9579227143
40446.1296657576
40450.3693165368
40454.6778079476
40459.0561031033
40463.5051964787
40468.026115115
40472.6199198823
40477.2877068081
40482.0306084797
40486.8497955093
40491.7464780873
40496.7219076162
40501.7773784274
40506.9142296001
40512.1338468765
40517.4376646848
40522.8271682814
40528.3038960137
40533.8694417107
40539.5254572239
40545.273655115
40551.1158115033
40557.0537690985
40563.0894404116
40569.2248111753
40575.4619439829
40581.8029821586
40588.2501538908
40594.8057766355
40601.4722618193
40608.2521198722
40615.147965605
40622.1625239729
40629.2986362553
40636.5592666881
40643.947509588
40651.4665970221
40659.1199070652
40666.9109727026
40674.8434914491
40682.9213357442
40691.1485642114
40699.5294338521
40708.0684133167
40716.7701972956
40725.6397222131
40734.6821833913
40743.9030536808
40753.3081039393
40762.9034258124
40772.6954559019
40782.6910019218
40792.8972778903
40803.3219312565
40813.9730672954
40824.8593359591
40835.989965238
40847.3746381946
40859.0239179869
40870.9497682449
40883.1646173902
40895.680868448
40908.5119619307
40921.6728238025
40935.1796544033
40949.049971997
40963.3028346187
40977.9588969823
40993.0407508169
41008.5731117145
41024.582846893
41041.1002004707
41058.156994649
41075.7917500577
41094.0418634901
41112.9584897619
41132.597765378
41153.0353783939
41174.4842390605
41197.0811737099
41220.7113158789
41245.3517745133
41271.1738582157
41298.4188254442
41327.3162980839
41358.0164823562
41390.6620054262
41425.1767092117
41461.5143988362
41500.3426625832
41542.0887122999
41586.3420155584
41633.4816915758
41684.6574535288
41740.0183879207
41800.2131554763
41867.4220880005
41943.2635982444
42030.3647339907
42133.7694516692
42259.1125156346
42414.3445459103
42612.1453880758
42868.3432658437
43204.1150869765
43650.8109921702
44252.9309850993
45073.4662430489
46187.3864368891
47714.7221163594
49850.8495434355
52840.811503384
57217.0058675159
62842.7666481427
69992.3060806679
81391.8335892839
97223.4260974655
118729.134851355
148425.948554002
188339.258236596
239033.400886178
298358.06671129
362029.255946172
425506.671164361
485336.182858131
539671.668721368
587846.124899363
629990.577109394
666736.594868946
698720.336035625
726607.452231457
751098.023696473
772772.229051815
792094.51488833
809445.26594059
825116.789041344
839359.571534985
852407.873493259
864442.459440756
875613.498709752
886044.414905197
895837.784042409
905078.601962555
913837.228786529
922171.931688488
930130.805935376
937753.33676357
945071.659723963
952111.590520225
958893.472346382
965432.875927147
971741.183530979
977826.082321853
983691.98084408
989340.4199963
994770.402696583
999979.806646957
1004959.74495591
1009700.67582753
1014196.2019378
1018435.65723886
1022407.20546542
1026097.54175957
1029492.21034737
1032575.70341936
1035331.58668953
1037742.6028437
1039790.74785702
1041457.37899019
1042722.89698602
1043567.22083604
1043961.958486
1043906.71173176
1043369.10986089
1042329.10099595
1040764.47918763
1038653.5280189
1035974.13947079
1032703.96045551
1028820.32400357
1024300.1886522
1019120.12131536
1013256.64247147
1006685.50318322
999386.253479881
991331.340401962
982492.198438424
972847.115503498
962368.593256299
951028.360446386
938796.572988673
925641.959706548
911531.58635489
896430.649830116
880302.212718263
863106.991886051
844803.131244106
825347.882067531
804700.550369388
782804.185713445
759598.928080384
735025.647802965
709005.311940265
681456.625504687
652293.589177977
621405.569517992
588662.715497659
553929.156598917
517016.755218195
477696.455920114
435684.035557794
390580.504570164
341829.060473805
288617.97752617
229883.753234857
)
;

boundaryField
{
    electrode
    {
        type            electronTemperature;
        seec            0.05;
        Tse             1000;
        Edepend         1;
        TFN             1000;
        field_emission  0;
        field_enhancement_factor 55;
        work_function   5;
        value           uniform 40279.8019372307;
    }
    ground
    {
        type            electronTemperature;
        seec            0.05;
        Tse             1000;
        Edepend         1;
        TFN             1000;
        field_emission  0;
        field_enhancement_factor 55;
        work_function   5;
        value           uniform 196564.964172302;
    }
    otherfaces
    {
        type            empty;
    }
}


// ************************************************************************* //
