/*--------------------------------*- C++ -*----------------------------------*\
| =========                 |                                                 |
| \\      /  F ield         | foam-extend: Open Source CFD                    |
|  \\    /   O peration     | Version:     4.0                                |
|   \\  /    A nd           | Web:         http://www.foam-extend.org         |
|    \\/     M anipulation  |                                                 |
\*---------------------------------------------------------------------------*/
FoamFile
{
    version     2.0;
    format      ascii;
    class       volVectorField;
    location    "4e-10";
    object      E;
}
// * * * * * * * * * * * * * * * * * * * * * * * * * * * * * * * * * * * * * //

dimensions      [0 0 0 1 0 0 0];

internalField   nonuniform List<vector> 
249
(
(-0 9062.2693332511 -0)
(-0 6041.51131725274 -0)
(-0 6041.5111976955 -0)
(-0 6041.51121189508 -0)
(-0 6041.51125180944 -0)
(-0 6041.51125212736 -0)
(-0 6041.51128814535 -0)
(-0 6041.51136284624 -0)
(-0 6041.51138696338 -0)
(-0 6041.51136479018 -0)
(-0 6041.51144306132 -0)
(-0 6041.51149419418 -0)
(-0 6041.51148922462 -0)
(-0 6041.51147718914 -0)
(-0 6041.5114680612 -0)
(-0 6041.5115056853 -0)
(-0 6041.51151453717 -0)
(-0 6041.51151705925 -0)
(-0 6041.51147448991 -0)
(-0 6041.51137312472 -0)
(-0 6041.51128422859 -0)
(-0 6041.51131724143 -0)
(-0 6041.5113822741 -0)
(-0 6041.51143270489 -0)
(-0 6041.51148457014 -0)
(-0 6041.51143712113 -0)
(-0 6041.51146706693 -0)
(-0 6041.51154074232 -0)
(-0 6041.51147471835 -0)
(-0 6041.51143193795 -0)
(-0 6041.51148676293 -0)
(-0 6041.51159681269 -0)
(-0 6041.51165034603 -0)
(-0 6041.51165065553 -0)
(-0 6041.51167595147 -0)
(-0 6041.51164715573 -0)
(-0 6041.51159624593 -0)
(-0 6041.51158150902 -0)
(-0 6041.51167614676 -0)
(-0 6041.51169114506 -0)
(-0 6041.51158514524 -0)
(-0 6041.51153625308 -0)
(-0 6041.51157331504 -0)
(-0 6041.51162814444 -0)
(-0 6041.51163376443 -0)
(-0 6041.51169505693 -0)
(-0 6041.51169197568 -0)
(-0 6041.51168091932 -0)
(-0 6041.51178987761 -0)
(-0 6041.51188813909 -0)
(-0 6041.51187849141 -0)
(-0 6041.51187631709 -0)
(-0 6041.51193865246 -0)
(-0 6041.51197411459 -0)
(-0 6041.51198590749 -0)
(-0 6041.51198651809 -0)
(-0 6041.51198290841 -0)
(-0 6041.51202549636 -0)
(-0 6041.51203299681 -0)
(-0 6041.512041968 -0)
(-0 6041.51207474338 -0)
(-0 6041.51208244581 -0)
(-0 6041.51209945044 -0)
(-0 6041.51214178306 -0)
(-0 6041.51216869566 -0)
(-0 6041.51220138735 -0)
(-0 6041.51225503057 -0)
(-0 6041.51225343727 -0)
(-0 6041.51223485646 -0)
(-0 6041.51221012761 -0)
(-0 6041.5122014476 -0)
(-0 6041.51219669958 -0)
(-0 6041.51219375288 -0)
(-0 6041.51219738035 -0)
(-0 6041.51223743078 -0)
(-0 6041.51226066242 -0)
(-0 6041.51228739593 -0)
(-0 6041.51227016301 -0)
(-0 6041.51224584196 -0)
(-0 6041.51224504981 -0)
(-0 6041.51221981624 -0)
(-0 6041.51221715934 -0)
(-0 6041.51219916623 -0)
(-0 6041.51219353189 -0)
(-0 6041.5121729919 -0)
(-0 6041.51217153592 -0)
(-0 6041.51220564333 -0)
(-0 6041.51222150921 -0)
(-0 6041.51221152679 -0)
(-0 6041.51218525512 -0)
(-0 6041.51219653897 -0)
(-0 6041.51224874178 -0)
(-0 6041.51228165571 -0)
(-0 6041.51229113948 -0)
(-0 6041.51230266969 -0)
(-0 6041.51228271437 -0)
(-0 6041.51230992572 -0)
(-0 6041.51230968542 -0)
(-0 6041.512226512 -0)
(-0 6041.51222359619 -0)
(-0 6041.51222565628 -0)
(-0 6041.5121729413 -0)
(-0 6041.51220573239 -0)
(-0 6041.51224155813 -0)
(-0 6041.5122467174 -0)
(-0 6041.51229119187 -0)
(-0 6041.51228413285 -0)
(-0 6041.51223130234 -0)
(-0 6041.51225618035 -0)
(-0 6041.51231172855 -0)
(-0 6041.51230731679 -0)
(-0 6041.51232960393 -0)
(-0 6041.51235904784 -0)
(-0 6041.51235507654 -0)
(-0 6041.51237354624 -0)
(-0 6041.51239597745 -0)
(-0 6041.51239536107 -0)
(-0 6041.51242741225 -0)
(-0 6041.51243114642 -0)
(-0 6041.51239387959 -0)
(-0 6041.51238644199 -0)
(-0 6041.5123903376 -0)
(-0 6041.51238192972 -0)
(-0 6041.51237012875 -0)
(-0 6041.5123959707 -0)
(-0 6041.51241229469 -0)
(-0 6041.51242712811 -0)
(-0 6041.51242125099 -0)
(-0 6041.51239249874 -0)
(-0 6041.51239374297 -0)
(-0 6041.51240925701 -0)
(-0 6041.51241746692 -0)
(-0 6041.51242097899 -0)
(-0 6041.51243977557 -0)
(-0 6041.51245860936 -0)
(-0 6041.51245857256 -0)
(-0 6041.51245688055 -0)
(-0 6041.51245728794 -0)
(-0 6041.51243752908 -0)
(-0 6041.5124530037 -0)
(-0 6041.51248721203 -0)
(-0 6041.51254060571 -0)
(-0 6041.51258080875 -0)
(-0 6041.5125902422 -0)
(-0 6041.51260326464 -0)
(-0 6041.51260418405 -0)
(-0 6041.5125910629 -0)
(-0 6041.51256769009 -0)
(-0 6041.51258415883 -0)
(-0 6041.5125932053 -0)
(-0 6041.512603314 -0)
(-0 6041.5126323723 -0)
(-0 6041.51260954005 -0)
(-0 6041.51259685647 -0)
(-0 6041.51260921773 -0)
(-0 6041.51260963241 -0)
(-0 6041.51260489102 -0)
(-0 6041.51260228016 -0)
(-0 6041.51259393474 -0)
(-0 6041.51259645074 -0)
(-0 6041.51258052669 -0)
(-0 6041.51257213784 -0)
(-0 6041.51260628316 -0)
(-0 6041.51262178604 -0)
(-0 6041.51259726579 -0)
(-0 6041.51258812475 -0)
(-0 6041.51259235785 -0)
(-0 6041.51258458842 -0)
(-0 6041.51256671539 -0)
(-0 6041.51253612102 -0)
(-0 6041.51252485219 -0)
(-0 6041.51251071306 -0)
(-0 6041.51251486261 -0)
(-0 6041.51251469262 -0)
(-0 6041.51249084597 -0)
(-0 6041.51250653497 -0)
(-0 6041.51253218501 -0)
(-0 6041.51251849848 -0)
(-0 6041.5125202044 -0)
(-0 6041.5125489135 -0)
(-0 6041.51258927482 -0)
(-0 6041.51261695461 -0)
(-0 6041.51260629019 -0)
(-0 6041.51258409542 -0)
(-0 6041.51257267109 -0)
(-0 6041.51256239517 -0)
(-0 6041.51255182146 -0)
(-0 6041.51257633908 -0)
(-0 6041.51258798413 -0)
(-0 6041.5125805089 -0)
(-0 6041.51260222488 -0)
(-0 6041.51260010109 -0)
(-0 6041.51258347986 -0)
(-0 6041.51259060382 -0)
(-0 6041.51259164882 -0)
(-0 6041.51259632211 -0)
(-0 6041.51261899431 -0)
(-0 6041.51262893219 -0)
(-0 6041.51262886547 -0)
(-0 6041.5126358965 -0)
(-0 6041.51263818821 -0)
(-0 6041.51263947351 -0)
(-0 6041.51264440502 -0)
(-0 6041.5126418409 -0)
(-0 6041.51264144068 -0)
(-0 6041.51264553371 -0)
(-0 6041.51265477428 -0)
(-0 6041.5126609962 -0)
(-0 6041.51266025491 -0)
(-0 6041.51265101213 -0)
(-0 6041.51265310365 -0)
(-0 6041.51265438813 -0)
(-0 6041.51263480724 -0)
(-0 6041.51262900637 -0)
(-0 6041.51263822804 -0)
(-0 6041.51264091446 -0)
(-0 6041.51262901519 -0)
(-0 6041.51263543631 -0)
(-0 6041.51265021624 -0)
(-0 6041.51265290113 -0)
(-0 6041.51266158556 -0)
(-0 6041.5126788502 -0)
(-0 6041.51268663438 -0)
(-0 6041.51269247208 -0)
(-0 6041.51270794807 -0)
(-0 6041.5127179968 -0)
(-0 6041.51273129097 -0)
(-0 6041.51274354345 -0)
(-0 6041.51274251277 -0)
(-0 6041.51273904538 -0)
(-0 6041.51274447099 -0)
(-0 6041.51274881975 -0)
(-0 6041.51275395489 -0)
(-0 6041.51275885787 -0)
(-0 6041.51275766893 -0)
(-0 6041.51276198309 -0)
(-0 6041.51277278277 -0)
(-0 6041.51278485615 -0)
(-0 6041.51279073093 -0)
(-0 6041.51278999115 -0)
(-0 6041.51279208199 -0)
(-0 6041.51279636555 -0)
(-0 6041.51279871363 -0)
(-0 6041.51279789528 -0)
(-0 6041.51279377496 -0)
(-0 6041.51279864429 -0)
(-0 6041.51280037227 -0)
(-0 6041.51283319121 -0)
(-0 9062.27163054104 -0)
)
;

boundaryField
{
    dielectric_2
    {
        type            calculated;
        value           nonuniform 0();
    }
    dielectric_1
    {
        type            calculated;
        value           nonuniform 0();
    }
    otherfaces
    {
        type            empty;
    }
    procBoundary0to1
    {
        type            processor;
        value           uniform (-0 9062.27057297553 -0);
    }
    procBoundary0to2
    {
        type            processor;
        value           uniform (-0 9062.27346161059 -0);
    }
}


// ************************************************************************* //
