/*--------------------------------*- C++ -*----------------------------------*\
| =========                 |                                                 |
| \\      /  F ield         | foam-extend: Open Source CFD                    |
|  \\    /   O peration     | Version:     4.0                                |
|   \\  /    A nd           | Web:         http://www.foam-extend.org         |
|    \\/     M anipulation  |                                                 |
\*---------------------------------------------------------------------------*/
FoamFile
{
    version     2.0;
    format      ascii;
    class       volVectorField;
    location    "1e-10";
    object      E;
}
// * * * * * * * * * * * * * * * * * * * * * * * * * * * * * * * * * * * * * //

dimensions      [0 0 0 1 0 0 0];

internalField   nonuniform List<vector> 
250
(
(-0 2265.72978042453 -0)
(-0 1510.71045801265 -0)
(-0 1510.71045834566 -0)
(-0 1510.71045834386 -0)
(-0 1510.71045837347 -0)
(-0 1510.7104583236 -0)
(-0 1510.71045803474 -0)
(-0 1510.71045777917 -0)
(-0 1510.71045782608 -0)
(-0 1510.71045800327 -0)
(-0 1510.71045798642 -0)
(-0 1510.7104577861 -0)
(-0 1510.71045779517 -0)
(-0 1510.71045776608 -0)
(-0 1510.71045761195 -0)
(-0 1510.71045783553 -0)
(-0 1510.71045788581 -0)
(-0 1510.71045755597 -0)
(-0 1510.71045765906 -0)
(-0 1510.71045795785 -0)
(-0 1510.71045793365 -0)
(-0 1510.71045735031 -0)
(-0 1510.71045711005 -0)
(-0 1510.71045731351 -0)
(-0 1510.71045735583 -0)
(-0 1510.71045748401 -0)
(-0 1510.71045769697 -0)
(-0 1510.71045796925 -0)
(-0 1510.7104580304 -0)
(-0 1510.71045786796 -0)
(-0 1510.71045784983 -0)
(-0 1510.71045780675 -0)
(-0 1510.71045773444 -0)
(-0 1510.71045779189 -0)
(-0 1510.7104578073 -0)
(-0 1510.71045784514 -0)
(-0 1510.71045796384 -0)
(-0 1510.71045806907 -0)
(-0 1510.71045806355 -0)
(-0 1510.71045815347 -0)
(-0 1510.71045835823 -0)
(-0 1510.71045847621 -0)
(-0 1510.71045830299 -0)
(-0 1510.71045816757 -0)
(-0 1510.71045807755 -0)
(-0 1510.71045792469 -0)
(-0 1510.71045780719 -0)
(-0 1510.710457787 -0)
(-0 1510.7104577395 -0)
(-0 1510.7104576623 -0)
(-0 1510.71045762715 -0)
(-0 1510.71045756642 -0)
(-0 1510.7104575823 -0)
(-0 1510.71045760354 -0)
(-0 1510.71045752416 -0)
(-0 1510.71045744678 -0)
(-0 1510.71045742976 -0)
(-0 1510.71045745516 -0)
(-0 1510.71045753412 -0)
(-0 1510.71045759885 -0)
(-0 1510.71045765716 -0)
(-0 1510.71045766006 -0)
(-0 1510.71045764328 -0)
(-0 1510.71045759868 -0)
(-0 1510.71045757286 -0)
(-0 1510.71045757796 -0)
(-0 1510.71045754777 -0)
(-0 1510.7104575427 -0)
(-0 1510.71045753085 -0)
(-0 1510.71045754698 -0)
(-0 1510.71045756986 -0)
(-0 1510.71045758889 -0)
(-0 1510.71045759502 -0)
(-0 1510.71045756056 -0)
(-0 1510.71045756528 -0)
(-0 1510.71045757793 -0)
(-0 1510.71045754391 -0)
(-0 1510.71045754911 -0)
(-0 1510.71045759192 -0)
(-0 1510.71045758941 -0)
(-0 1510.71045752516 -0)
(-0 1510.71045752151 -0)
(-0 1510.71045756259 -0)
(-0 1510.7104575407 -0)
(-0 1510.71045751055 -0)
(-0 1510.71045754646 -0)
(-0 1510.71045761439 -0)
(-0 1510.71045762697 -0)
(-0 1510.71045752371 -0)
(-0 1510.71045741435 -0)
(-0 1510.71045736955 -0)
(-0 1510.71045733101 -0)
(-0 1510.71045734594 -0)
(-0 1510.7104573012 -0)
(-0 1510.71045722183 -0)
(-0 1510.71045723006 -0)
(-0 1510.71045728552 -0)
(-0 1510.71045722693 -0)
(-0 1510.71045709403 -0)
(-0 1510.71045697943 -0)
(-0 1510.71045693094 -0)
(-0 1510.71045697795 -0)
(-0 1510.71045702933 -0)
(-0 1510.71045700162 -0)
(-0 1510.71045703985 -0)
(-0 1510.71045709823 -0)
(-0 1510.71045701765 -0)
(-0 1510.71045710892 -0)
(-0 1510.71045718133 -0)
(-0 1510.71045709354 -0)
(-0 1510.71045717378 -0)
(-0 1510.71045725164 -0)
(-0 1510.71045734149 -0)
(-0 1510.71045742762 -0)
(-0 1510.71045736772 -0)
(-0 1510.71045738764 -0)
(-0 1510.71045739205 -0)
(-0 1510.71045723751 -0)
(-0 1510.71045714583 -0)
(-0 1510.71045713945 -0)
(-0 1510.71045714793 -0)
(-0 1510.7104571206 -0)
(-0 1510.71045711023 -0)
(-0 1510.710457281 -0)
(-0 1510.71045747332 -0)
(-0 1510.71045759533 -0)
(-0 1510.71045753646 -0)
(-0 1510.7104574138 -0)
(-0 1510.71045754412 -0)
(-0 1510.7104577636 -0)
(-0 1510.71045774616 -0)
(-0 1510.71045780619 -0)
(-0 1510.71045793644 -0)
(-0 1510.71045794854 -0)
(-0 1510.71045812893 -0)
(-0 1510.71045819507 -0)
(-0 1510.71045788195 -0)
(-0 1510.71045751551 -0)
(-0 1510.71045739771 -0)
(-0 1510.71045780506 -0)
(-0 1510.71045841031 -0)
(-0 1510.71045848176 -0)
(-0 1510.71045822802 -0)
(-0 1510.71045817629 -0)
(-0 1510.71045835151 -0)
(-0 1510.71045822968 -0)
(-0 1510.71045799724 -0)
(-0 1510.71045813917 -0)
(-0 1510.71045849169 -0)
(-0 1510.71045871196 -0)
(-0 1510.71045883018 -0)
(-0 1510.71045897073 -0)
(-0 1510.71045878689 -0)
(-0 1510.7104586798 -0)
(-0 1510.7104587873 -0)
(-0 1510.71045880798 -0)
(-0 1510.71045894122 -0)
(-0 1510.7104589993 -0)
(-0 1510.71045907785 -0)
(-0 1510.71045916708 -0)
(-0 1510.71045914702 -0)
(-0 1510.71045903349 -0)
(-0 1510.71045919886 -0)
(-0 1510.71045987025 -0)
(-0 1510.71046010569 -0)
(-0 1510.71045973435 -0)
(-0 1510.71045933324 -0)
(-0 1510.71045940003 -0)
(-0 1510.71045939559 -0)
(-0 1510.71045899551 -0)
(-0 1510.71045893333 -0)
(-0 1510.71045885964 -0)
(-0 1510.71045875607 -0)
(-0 1510.71045866343 -0)
(-0 1510.71045855786 -0)
(-0 1510.71045856751 -0)
(-0 1510.71045870861 -0)
(-0 1510.71045891893 -0)
(-0 1510.71045862703 -0)
(-0 1510.71045851743 -0)
(-0 1510.71045889763 -0)
(-0 1510.7104585561 -0)
(-0 1510.71045801916 -0)
(-0 1510.71045825418 -0)
(-0 1510.71045805735 -0)
(-0 1510.71045790084 -0)
(-0 1510.71045818904 -0)
(-0 1510.71045775394 -0)
(-0 1510.71045775556 -0)
(-0 1510.71045820717 -0)
(-0 1510.71045796074 -0)
(-0 1510.7104576551 -0)
(-0 1510.7104578226 -0)
(-0 1510.71045765537 -0)
(-0 1510.71045696206 -0)
(-0 1510.71045693504 -0)
(-0 1510.71045683422 -0)
(-0 1510.710456652 -0)
(-0 1510.71045697023 -0)
(-0 1510.71045663146 -0)
(-0 1510.71045568175 -0)
(-0 1510.71045588459 -0)
(-0 1510.71045620302 -0)
(-0 1510.71045552449 -0)
(-0 1510.71045546327 -0)
(-0 1510.71045588934 -0)
(-0 1510.71045571622 -0)
(-0 1510.7104552936 -0)
(-0 1510.71045514512 -0)
(-0 1510.71045524779 -0)
(-0 1510.7104552382 -0)
(-0 1510.71045566928 -0)
(-0 1510.71045590892 -0)
(-0 1510.71045614363 -0)
(-0 1510.71045604713 -0)
(-0 1510.71045519222 -0)
(-0 1510.71045499999 -0)
(-0 1510.71045473837 -0)
(-0 1510.71045431189 -0)
(-0 1510.71045392244 -0)
(-0 1510.71045348557 -0)
(-0 1510.71045348633 -0)
(-0 1510.71045396374 -0)
(-0 1510.7104537533 -0)
(-0 1510.71045382461 -0)
(-0 1510.71045457933 -0)
(-0 1510.71045489681 -0)
(-0 1510.71045454945 -0)
(-0 1510.71045447097 -0)
(-0 1510.71045480396 -0)
(-0 1510.71045524836 -0)
(-0 1510.71045593024 -0)
(-0 1510.71045604239 -0)
(-0 1510.71045659636 -0)
(-0 1510.71045694364 -0)
(-0 1510.71045625678 -0)
(-0 1510.71045618139 -0)
(-0 1510.71045622997 -0)
(-0 1510.7104564867 -0)
(-0 1510.71045690769 -0)
(-0 1510.71045783463 -0)
(-0 1510.71045856899 -0)
(-0 1510.71045833234 -0)
(-0 1510.71045800199 -0)
(-0 1510.71045759228 -0)
(-0 1510.71045709691 -0)
(-0 1510.71045720309 -0)
(-0 1510.710457192 -0)
(-0 1510.7104573241 -0)
(-0 2265.91141751492 -0)
)
;

boundaryField
{
    dielectric_2
    {
        type            calculated;
        value           nonuniform 0();
    }
    dielectric_1
    {
        type            calculated;
        value           nonuniform 0();
    }
    otherfaces
    {
        type            empty;
    }
    procBoundary2to0
    {
        type            processor;
        value           uniform (-0 2265.3998824456 -0);
    }
    procBoundary2to3
    {
        type            processor;
        value           uniform (-0 2265.7815071724 -0);
    }
}


// ************************************************************************* //
