/*--------------------------------*- C++ -*----------------------------------*\
| =========                 |                                                 |
| \\      /  F ield         | foam-extend: Open Source CFD                    |
|  \\    /   O peration     | Version:     4.0                                |
|   \\  /    A nd           | Web:         http://www.foam-extend.org         |
|    \\/     M anipulation  |                                                 |
\*---------------------------------------------------------------------------*/
FoamFile
{
    version     2.0;
    format      ascii;
    class       volVectorField;
    location    "4.3e-06";
    object      E;
}
// * * * * * * * * * * * * * * * * * * * * * * * * * * * * * * * * * * * * * //

dimensions      [0 0 0 1 0 0 0];

internalField   nonuniform List<vector> 
300
(
(5.54727033058589 -0 -0)
(11.0226584942863 -0 -0)
(19.4552541993298 -0 -0)
(27.2458144170987 -0 -0)
(34.9848577524396 -0 -0)
(42.7899969998595 -0 -0)
(50.5825833885259 -0 -0)
(58.3839616735681 -0 -0)
(66.1941387578032 -0 -0)
(74.0124917519854 -0 -0)
(81.8403964555887 -0 -0)
(89.678588717502 -0 -0)
(97.5279079870616 -0 -0)
(105.389254718977 -0 -0)
(113.263547578403 -0 -0)
(121.151746426686 -0 -0)
(129.054851609464 -0 -0)
(136.973906242345 -0 -0)
(144.909999345856 -0 -0)
(152.864268443406 -0 -0)
(160.83790226329 -0 -0)
(168.832143419841 -0 -0)
(176.848291127959 -0 -0)
(184.887703875982 -0 -0)
(192.951802144295 -0 -0)
(201.042071078235 -0 -0)
(209.160063169291 -0 -0)
(217.307400994518 -0 -0)
(225.485779885288 -0 -0)
(233.696970654287 -0 -0)
(241.942822305799 -0 -0)
(250.225264779252 -0 -0)
(258.54631162672 -0 -0)
(266.908062843157 -0 -0)
(275.31270752329 -0 -0)
(283.76252669274 -0 -0)
(292.259896042564 -0 -0)
(300.807288698629 -0 -0)
(309.407278073524 -0 -0)
(318.062540609375 -0 -0)
(326.77585860973 -0 -0)
(335.550123066498 -0 -0)
(344.388336531754 -0 -0)
(353.293615937209 -0 -0)
(362.269195454435 -0 -0)
(371.318429454077 -0 -0)
(380.444795308666 -0 -0)
(389.651896415304 -0 -0)
(398.943465075615 -0 -0)
(408.323365481885 -0 -0)
(417.795596698066 -0 -0)
(427.364295706208 -0 -0)
(437.033740421834 -0 -0)
(446.808352816453 -0 -0)
(456.69270198061 -0 -0)
(466.691507384951 -0 -0)
(476.809641948619 -0 -0)
(487.052135426984 -0 -0)
(497.42417766442 -0 -0)
(507.93112195418 -0 -0)
(518.578488550909 -0 -0)
(529.371968177488 -0 -0)
(540.317425580587 -0 -0)
(551.420903338649 -0 -0)
(562.688625585392 -0 -0)
(574.127001977454 -0 -0)
(585.742631785469 -0 -0)
(597.542308038036 -0 -0)
(609.533021910026 -0 -0)
(621.721967242253 -0 -0)
(634.116545272664 -0 -0)
(646.72436949083 -0 -0)
(659.553270877864 -0 -0)
(672.611303212254 -0 -0)
(685.90674875281 -0 -0)
(699.448124215417 -0 -0)
(713.244186986574 -0 -0)
(727.303941784675 -0 -0)
(741.636647644334 -0 -0)
(756.251825291387 -0 -0)
(771.159265024275 -0 -0)
(786.369035055214 -0 -0)
(801.891490334447 -0 -0)
(817.73728205511 -0 -0)
(833.917367638962 -0 -0)
(850.443021534022 -0 -0)
(867.325846626395 -0 -0)
(884.577786565507 -0 -0)
(902.211138818594 -0 -0)
(920.238568734389 -0 -0)
(938.673124649498 -0 -0)
(957.528254002896 -0 -0)
(976.817820684634 -0 -0)
(996.556123701683 -0 -0)
(1016.75791718527 -0 -0)
(1037.43843194875 -0 -0)
(1058.6133987246 -0 -0)
(1080.29907310964 -0 -0)
(1102.51226251867 -0 -0)
(1125.27035525817 -0 -0)
(1148.59135188333 -0 -0)
(1172.49389905024 -0 -0)
(1196.99732610012 -0 -0)
(1222.12168466837 -0 -0)
(1247.88779147107 -0 -0)
(1274.31727469386 -0 -0)
(1301.43262421755 -0 -0)
(1329.25724612028 -0 -0)
(1357.81552176458 -0 -0)
(1387.13287204495 -0 -0)
(1417.23582710736 -0 -0)
(1448.15210233063 -0 -0)
(1479.91068089295 -0 -0)
(1512.5419038338 -0 -0)
(1546.07756825008 -0 -0)
(1580.55103446044 -0 -0)
(1615.99734306173 -0 -0)
(1652.45334308881 -0 -0)
(1689.95783208608 -0 -0)
(1728.55170980525 -0 -0)
(1768.27814673283 -0 -0)
(1809.18276908823 -0 -0)
(1851.31386237783 -0 -0)
(1894.72259531526 -0 -0)
(1939.46326661576 -0 -0)
(1985.59357729189 -0 -0)
(2033.17493154432 -0 -0)
(2082.27276942656 -0 -0)
(2132.9569355038 -0 -0)
(2185.30208776653 -0 -0)
(2239.38815116047 -0 -0)
(2295.30082314513 -0 -0)
(2353.13214859867 -0 -0)
(2412.98106893002 -0 -0)
(2474.95429297917 -0 -0)
(2539.16749078395 -0 -0)
(2605.74221410073 -0 -0)
(2674.81629771695 -0 -0)
(2746.55077298932 -0 -0)
(2821.11448466431 -0 -0)
(2898.68263061734 -0 -0)
(2979.44569922109 -0 -0)
(3063.61231103357 -0 -0)
(3151.41101373436 -0 -0)
(3243.09267543429 -0 -0)
(3338.93325337386 -0 -0)
(3439.23695388278 -0 -0)
(3544.33989386732 -0 -0)
(3654.61426759044 -0 -0)
(3770.47316249442 -0 -0)
(3892.37667461671 -0 -0)
(4020.83659714807 -0 -0)
(4156.42904105545 -0 -0)
(4299.79349473907 -0 -0)
(4451.65721563637 -0 -0)
(4612.83990109465 -0 -0)
(4784.24035003268 -0 -0)
(4966.97290314944 -0 -0)
(5162.12147778414 -0 -0)
(5371.16110039596 -0 -0)
(5595.70650872807 -0 -0)
(5837.50460996711 -0 -0)
(6101.3668306193 -0 -0)
(6393.08059199321 -0 -0)
(6715.25767588573 -0 -0)
(7070.15183563285 -0 -0)
(7461.74977645913 -0 -0)
(7896.18739850073 -0 -0)
(8381.95178004071 -0 -0)
(8927.86808009937 -0 -0)
(9544.42033671777 -0 -0)
(10240.5830092521 -0 -0)
(11018.5401750817 -0 -0)
(11889.1197100802 -0 -0)
(12873.7415340667 -0 -0)
(13978.0865003365 -0 -0)
(15203.175191167 -0 -0)
(16568.3555317697 -0 -0)
(18082.5176887675 -0 -0)
(19742.5218696495 -0 -0)
(21560.2598000557 -0 -0)
(23536.0891970055 -0 -0)
(25658.8331254962 -0 -0)
(27930.2209211755 -0 -0)
(30341.7729486205 -0 -0)
(32868.5629723996 -0 -0)
(35501.8398781109 -0 -0)
(38233.0075515486 -0 -0)
(41032.9898343335 -0 -0)
(43877.2597345882 -0 -0)
(46760.3119647413 -0 -0)
(49671.1175233551 -0 -0)
(52585.2967729693 -0 -0)
(55487.5426999565 -0 -0)
(58378.4536988463 -0 -0)
(61258.8628853063 -0 -0)
(64137.6680737111 -0 -0)
(67011.0264035988 -0 -0)
(69876.0491577194 -0 -0)
(72757.1375833728 -0 -0)
(75659.9553545631 -0 -0)
(78586.8418754314 -0 -0)
(81531.0204860269 -0 -0)
(84473.9235995036 -0 -0)
(87403.6363958432 -0 -0)
(90309.2300284262 -0 -0)
(93186.193541584 -0 -0)
(96034.065115595 -0 -0)
(98853.950998479 -0 -0)
(101647.812523621 -0 -0)
(104418.009108706 -0 -0)
(107167.023605267 -0 -0)
(109891.442964099 -0 -0)
(112587.079311928 -0 -0)
(115255.495435779 -0 -0)
(117898.944848159 -0 -0)
(120519.584634617 -0 -0)
(123119.440330739 -0 -0)
(125700.427430303 -0 -0)
(128264.291080367 -0 -0)
(130812.655805946 -0 -0)
(133347.001057553 -0 -0)
(135868.716002003 -0 -0)
(138379.083774032 -0 -0)
(140877.409222242 -0 -0)
(143360.47669415 -0 -0)
(145827.040698754 -0 -0)
(148278.174408647 -0 -0)
(150714.876273364 -0 -0)
(153138.036376324 -0 -0)
(155548.477189593 -0 -0)
(157946.918998103 -0 -0)
(160334.043302716 -0 -0)
(162710.456408221 -0 -0)
(165076.744559713 -0 -0)
(167433.439254373 -0 -0)
(169781.065584426 -0 -0)
(172120.097653132 -0 -0)
(174451.00714254 -0 -0)
(176774.228379471 -0 -0)
(179090.196808122 -0 -0)
(181399.312606424 -0 -0)
(183699.496523637 -0 -0)
(185988.325158305 -0 -0)
(188265.796487327 -0 -0)
(190532.263859703 -0 -0)
(192788.078975609 -0 -0)
(195033.548679132 -0 -0)
(197268.981901694 -0 -0)
(199494.655657345 -0 -0)
(201710.861804494 -0 -0)
(203917.865382898 -0 -0)
(206115.950360651 -0 -0)
(208305.380141419 -0 -0)
(210486.437730907 -0 -0)
(212659.382652368 -0 -0)
(214824.486278868 -0 -0)
(216982.004660366 -0 -0)
(219132.193031494 -0 -0)
(221275.299555648 -0 -0)
(223411.560870489 -0 -0)
(225541.213338467 -0 -0)
(227664.483744172 -0 -0)
(229781.589465113 -0 -0)
(231892.739682071 -0 -0)
(233998.145489639 -0 -0)
(236098.002370077 -0 -0)
(238190.748139258 -0 -0)
(240274.927317404 -0 -0)
(242350.563883946 -0 -0)
(244417.879633666 -0 -0)
(246477.063286767 -0 -0)
(248528.327387644 -0 -0)
(250571.851768567 -0 -0)
(252607.840180716 -0 -0)
(254636.458972803 -0 -0)
(256657.897419686 -0 -0)
(258672.305871031 -0 -0)
(260679.86034858 -0 -0)
(262680.701540154 -0 -0)
(264674.997809871 -0 -0)
(266662.880270798 -0 -0)
(268644.510040641 -0 -0)
(270620.008444171 -0 -0)
(272589.529307686 -0 -0)
(274553.189310299 -0 -0)
(276511.134325821 -0 -0)
(278463.474662812 -0 -0)
(280410.348742428 -0 -0)
(282351.863649082 -0 -0)
(284288.150456182 -0 -0)
(286219.309634548 -0 -0)
(288145.46634006 -0 -0)
(290066.720107124 -0 -0)
(291983.187052962 -0 -0)
(293894.954473053 -0 -0)
(295802.13260736 -0 -0)
(297704.788312265 -0 -0)
(299603.010302869 -0 -0)
(301496.102580364 -0 -0)
)
;

boundaryField
{
    electrode
    {
        type            calculated;
        value           uniform (4.54233133496019 -0 -0);
    }
    ground
    {
        type            calculated;
        value           uniform (302440.817090365 -0 -0);
    }
    otherfaces
    {
        type            empty;
    }
}


// ************************************************************************* //
