/*--------------------------------*- C++ -*----------------------------------*\
| =========                 |                                                 |
| \\      /  F ield         | foam-extend: Open Source CFD                    |
|  \\    /   O peration     | Version:     4.0                                |
|   \\  /    A nd           | Web:         http://www.foam-extend.org         |
|    \\/     M anipulation  |                                                 |
\*---------------------------------------------------------------------------*/
FoamFile
{
    version     2.0;
    format      ascii;
    class       volVectorField;
    location    "4.3e-06";
    object      J_Arp1;
}
// * * * * * * * * * * * * * * * * * * * * * * * * * * * * * * * * * * * * * //

dimensions      [1 -1 -1 0 0 0 0];

internalField   nonuniform List<vector> 
300
(
(1.81859172413191e+16 -0 -0)
(6.56710296225745e+16 -0 -0)
(1.17511392964004e+17 -0 -0)
(1.63389187128514e+17 -0 -0)
(2.09889361156361e+17 -0 -0)
(2.56663519446812e+17 -0 -0)
(3.03278177826882e+17 -0 -0)
(3.49909746361377e+17 -0 -0)
(3.96526069081129e+17 -0 -0)
(4.43121005961132e+17 -0 -0)
(4.89696464813156e+17 -0 -0)
(5.36249532457076e+17 -0 -0)
(5.82778571088384e+17 -0 -0)
(6.2928211596121e+17 -0 -0)
(6.7575878093861e+17 -0 -0)
(7.22207402910552e+17 -0 -0)
(7.68627016379074e+17 -0 -0)
(8.1501686838855e+17 -0 -0)
(8.61376432449897e+17 -0 -0)
(9.07705419054918e+17 -0 -0)
(9.54003786804165e+17 -0 -0)
(1.00027175285943e+18 -0 -0)
(1.04650980321411e+18 -0 -0)
(1.09271870223515e+18 -0 -0)
(1.13889950200734e+18 -0 -0)
(1.18505355097158e+18 -0 -0)
(1.23118250204668e+18 -0 -0)
(1.27728832058077e+18 -0 -0)
(1.32337329138459e+18 -0 -0)
(1.36944002549753e+18 -0 -0)
(1.41549146625949e+18 -0 -0)
(1.46153089502646e+18 -0 -0)
(1.50756193584254e+18 -0 -0)
(1.55358856032009e+18 -0 -0)
(1.59961509092219e+18 -0 -0)
(1.6456462045043e+18 -0 -0)
(1.69168693459144e+18 -0 -0)
(1.73774267317446e+18 -0 -0)
(1.78381917216769e+18 -0 -0)
(1.82992254346907e+18 -0 -0)
(1.87605925879082e+18 -0 -0)
(1.92223614856302e+18 -0 -0)
(1.96846040026822e+18 -0 -0)
(2.01473955564616e+18 -0 -0)
(2.06108150717338e+18 -0 -0)
(2.10749449419709e+18 -0 -0)
(2.15398709727916e+18 -0 -0)
(2.20056823273641e+18 -0 -0)
(2.24724714539387e+18 -0 -0)
(2.29403340095165e+18 -0 -0)
(2.34093687717919e+18 -0 -0)
(2.38796775441536e+18 -0 -0)
(2.43513650480899e+18 -0 -0)
(2.4824538809276e+18 -0 -0)
(2.52993090287359e+18 -0 -0)
(2.57757884528941e+18 -0 -0)
(2.62540922201314e+18 -0 -0)
(2.67343377116664e+18 -0 -0)
(2.72166443822005e+18 -0 -0)
(2.77011335821435e+18 -0 -0)
(2.81879283737607e+18 -0 -0)
(2.86771533330305e+18 -0 -0)
(2.91689343382154e+18 -0 -0)
(2.9663398356588e+18 -0 -0)
(3.01606732109515e+18 -0 -0)
(3.0660887341838e+18 -0 -0)
(3.11641695592614e+18 -0 -0)
(3.16706487798796e+18 -0 -0)
(3.21804537579424e+18 -0 -0)
(3.2693712804286e+18 -0 -0)
(3.32105534970159e+18 -0 -0)
(3.37311023775246e+18 -0 -0)
(3.42554846454234e+18 -0 -0)
(3.4783823835223e+18 -0 -0)
(3.5316241488822e+18 -0 -0)
(3.58528568195107e+18 -0 -0)
(3.63937863635286e+18 -0 -0)
(3.69391436280183e+18 -0 -0)
(3.74890387283405e+18 -0 -0)
(3.80435780175553e+18 -0 -0)
(3.86028637113079e+18 -0 -0)
(3.91669935047669e+18 -0 -0)
(3.97360601821106e+18 -0 -0)
(4.03101512252378e+18 -0 -0)
(4.08893484106934e+18 -0 -0)
(4.14737274098024e+18 -0 -0)
(4.20633573787944e+18 -0 -0)
(4.26583005521994e+18 -0 -0)
(4.32586118282074e+18 -0 -0)
(4.38643383560243e+18 -0 -0)
(4.4475519124354e+18 -0 -0)
(4.50921845466692e+18 -0 -0)
(4.57143560497151e+18 -0 -0)
(4.63420456654797e+18 -0 -0)
(4.6975255624782e+18 -0 -0)
(4.76139779562792e+18 -0 -0)
(4.82581940926887e+18 -0 -0)
(4.89078744808166e+18 -0 -0)
(4.95629782019953e+18 -0 -0)
(5.02234526024748e+18 -0 -0)
(5.0889232934456e+18 -0 -0)
(5.15602420085469e+18 -0 -0)
(5.22363898602596e+18 -0 -0)
(5.291757343486e+18 -0 -0)
(5.36036762859345e+18 -0 -0)
(5.42945682951645e+18 -0 -0)
(5.49901054120649e+18 -0 -0)
(5.56901294174812e+18 -0 -0)
(5.63944677091452e+18 -0 -0)
(5.71029331179568e+18 -0 -0)
(5.78153237480061e+18 -0 -0)
(5.85314228529364e+18 -0 -0)
(5.92509987405335e+18 -0 -0)
(5.99738047155546e+18 -0 -0)
(6.06995790594164e+18 -0 -0)
(6.14280450496879e+18 -0 -0)
(6.21589110204604e+18 -0 -0)
(6.28918704721624e+18 -0 -0)
(6.36266022215787e+18 -0 -0)
(6.43627706071693e+18 -0 -0)
(6.51000257441678e+18 -0 -0)
(6.58380038313196e+18 -0 -0)
(6.65763275189368e+18 -0 -0)
(6.73146063313602e+18 -0 -0)
(6.80524371517111e+18 -0 -0)
(6.87894047678459e+18 -0 -0)
(6.95250824853971e+18 -0 -0)
(7.02590328011249e+18 -0 -0)
(7.09908081465103e+18 -0 -0)
(7.17199517044817e+18 -0 -0)
(7.24459982739038e+18 -0 -0)
(7.31684750882998e+18 -0 -0)
(7.38869039404469e+18 -0 -0)
(7.46007984851496e+18 -0 -0)
(7.53096633227608e+18 -0 -0)
(7.60130729396334e+18 -0 -0)
(7.67103022909586e+18 -0 -0)
(7.74011163553588e+18 -0 -0)
(7.8085484042608e+18 -0 -0)
(7.87630069807238e+18 -0 -0)
(7.94332008496538e+18 -0 -0)
(8.00955806023593e+18 -0 -0)
(8.07496677260993e+18 -0 -0)
(8.13949908631148e+18 -0 -0)
(8.20310880897645e+18 -0 -0)
(8.26575088227332e+18 -0 -0)
(8.32738148993205e+18 -0 -0)
(8.38795836316067e+18 -0 -0)
(8.44744091727865e+18 -0 -0)
(8.50578913874815e+18 -0 -0)
(8.5629708675201e+18 -0 -0)
(8.61893758161812e+18 -0 -0)
(8.67368874832855e+18 -0 -0)
(8.72713843054771e+18 -0 -0)
(8.77932963616311e+18 -0 -0)
(8.83022021991809e+18 -0 -0)
(8.87959361815449e+18 -0 -0)
(8.92812753528301e+18 -0 -0)
(8.97434777150473e+18 -0 -0)
(9.02036434692998e+18 -0 -0)
(9.06434550384963e+18 -0 -0)
(9.10570938801992e+18 -0 -0)
(9.14986419252699e+18 -0 -0)
(9.19056346363126e+18 -0 -0)
(9.22954390609855e+18 -0 -0)
(9.26814507339903e+18 -0 -0)
(9.30381024921124e+18 -0 -0)
(9.33985825266415e+18 -0 -0)
(9.37489358848782e+18 -0 -0)
(9.4074138411291e+18 -0 -0)
(9.44310450279364e+18 -0 -0)
(9.47176927715819e+18 -0 -0)
(9.49887801483826e+18 -0 -0)
(9.5302363776245e+18 -0 -0)
(9.563823333699e+18 -0 -0)
(9.59001121191009e+18 -0 -0)
(9.60987323372553e+18 -0 -0)
(9.64062099039944e+18 -0 -0)
(9.66058813717119e+18 -0 -0)
(9.68300917655742e+18 -0 -0)
(9.70679070316855e+18 -0 -0)
(9.72012551770707e+18 -0 -0)
(9.74382719517622e+18 -0 -0)
(9.76016330225738e+18 -0 -0)
(9.77640761740968e+18 -0 -0)
(9.77808663543598e+18 -0 -0)
(9.80998877907183e+18 -0 -0)
(9.80780553215415e+18 -0 -0)
(9.83482486550473e+18 -0 -0)
(9.83597094495439e+18 -0 -0)
(9.87373388944994e+18 -0 -0)
(9.87498760789032e+18 -0 -0)
(9.91999211430401e+18 -0 -0)
(9.93790949994672e+18 -0 -0)
(1.00045496668119e+19 -0 -0)
(1.00592994573762e+19 -0 -0)
(1.01751900880552e+19 -0 -0)
(1.03148134796897e+19 -0 -0)
(1.052711148791e+19 -0 -0)
(1.07744258327084e+19 -0 -0)
(1.10290281237873e+19 -0 -0)
(1.13230991004712e+19 -0 -0)
(1.15048418296402e+19 -0 -0)
(1.16817270932285e+19 -0 -0)
(1.18247220991302e+19 -0 -0)
(1.1919196436044e+19 -0 -0)
(1.19954154195185e+19 -0 -0)
(1.20543531958151e+19 -0 -0)
(1.21085760813585e+19 -0 -0)
(1.21541654027086e+19 -0 -0)
(1.22005144435871e+19 -0 -0)
(1.22414636765189e+19 -0 -0)
(1.22845272662046e+19 -0 -0)
(1.23240011239395e+19 -0 -0)
(1.23662505528444e+19 -0 -0)
(1.24050580931323e+19 -0 -0)
(1.2447646381596e+19 -0 -0)
(1.24870820235255e+19 -0 -0)
(1.25307550422798e+19 -0 -0)
(1.25708087950188e+19 -0 -0)
(1.26151246944824e+19 -0 -0)
(1.26553090202612e+19 -0 -0)
(1.26997979369378e+19 -0 -0)
(1.27398411578977e+19 -0 -0)
(1.2784190559544e+19 -0 -0)
(1.28237251290478e+19 -0 -0)
(1.28686890966749e+19 -0 -0)
(1.29079929095031e+19 -0 -0)
(1.29528025610312e+19 -0 -0)
(1.29913148688283e+19 -0 -0)
(1.30352641871947e+19 -0 -0)
(1.30722052025208e+19 -0 -0)
(1.31147043780426e+19 -0 -0)
(1.31496734221358e+19 -0 -0)
(1.31904422626355e+19 -0 -0)
(1.32233116397174e+19 -0 -0)
(1.32623130985811e+19 -0 -0)
(1.32930334047088e+19 -0 -0)
(1.33302133732327e+19 -0 -0)
(1.33588417799226e+19 -0 -0)
(1.33942578037812e+19 -0 -0)
(1.34209040582534e+19 -0 -0)
(1.34543286638511e+19 -0 -0)
(1.34795398088296e+19 -0 -0)
(1.35113115918193e+19 -0 -0)
(1.35344634739627e+19 -0 -0)
(1.35644987489106e+19 -0 -0)
(1.35854836282189e+19 -0 -0)
(1.36136801153172e+19 -0 -0)
(1.36325230467661e+19 -0 -0)
(1.36590398672482e+19 -0 -0)
(1.36759431774069e+19 -0 -0)
(1.37010192154587e+19 -0 -0)
(1.37162851151995e+19 -0 -0)
(1.37402204429917e+19 -0 -0)
(1.37540991207202e+19 -0 -0)
(1.37770379111797e+19 -0 -0)
(1.37897631601764e+19 -0 -0)
(1.3811759039699e+19 -0 -0)
(1.38234870943803e+19 -0 -0)
(1.3844540583523e+19 -0 -0)
(1.38553490693523e+19 -0 -0)
(1.38755485646085e+19 -0 -0)
(1.38854001033872e+19 -0 -0)
(1.39047096568974e+19 -0 -0)
(1.39137110731431e+19 -0 -0)
(1.39321604358432e+19 -0 -0)
(1.39395185359385e+19 -0 -0)
(1.39594166206117e+19 -0 -0)
(1.39651590977097e+19 -0 -0)
(1.3984677155795e+19 -0 -0)
(1.39895572694906e+19 -0 -0)
(1.40087734046071e+19 -0 -0)
(1.40128638203941e+19 -0 -0)
(1.4031846561619e+19 -0 -0)
(1.40351405290004e+19 -0 -0)
(1.40538635996462e+19 -0 -0)
(1.40563019987192e+19 -0 -0)
(1.40747388751975e+19 -0 -0)
(1.4076335168839e+19 -0 -0)
(1.4094523453882e+19 -0 -0)
(1.4095280471164e+19 -0 -0)
(1.41132528160761e+19 -0 -0)
(1.41131565783531e+19 -0 -0)
(1.41309341694773e+19 -0 -0)
(1.41300366893154e+19 -0 -0)
(1.4147619200535e+19 -0 -0)
(1.41459386956575e+19 -0 -0)
(1.4163327579475e+19 -0 -0)
(1.41609180402122e+19 -0 -0)
(1.41781050978291e+19 -0 -0)
(1.41749670862465e+19 -0 -0)
(1.41919578033159e+19 -0 -0)
(1.41881655968167e+19 -0 -0)
(1.42049155286324e+19 -0 -0)
(1.42003722717215e+19 -0 -0)
(1.42168808544119e+19 -0 -0)
(1.42113621078443e+19 -0 -0)
(1.42273198151826e+19 -0 -0)
(1.42094027067906e+19 -0 -0)
)
;

boundaryField
{
    electrode
    {
        type            calculated;
        value           uniform (-5457568508.44163 -0 -0);
    }
    ground
    {
        type            calculated;
        value           uniform (1.42275671764791e+19 -0 -0);
    }
    otherfaces
    {
        type            empty;
    }
}


// ************************************************************************* //
