/*--------------------------------*- C++ -*----------------------------------*\
| =========                 |                                                 |
| \\      /  F ield         | foam-extend: Open Source CFD                    |
|  \\    /   O peration     | Version:     4.0                                |
|   \\  /    A nd           | Web:         http://www.foam-extend.org         |
|    \\/     M anipulation  |                                                 |
\*---------------------------------------------------------------------------*/
FoamFile
{
    version     2.0;
    format      ascii;
    class       volVectorField;
    location    "4.3e-06";
    object      J_electron;
}
// * * * * * * * * * * * * * * * * * * * * * * * * * * * * * * * * * * * * * //

dimensions      [1 -1 -1 0 0 0 0];

internalField   nonuniform List<vector> 
300
(
(-1.26371243823051e+19 0 0)
(-1.29639655336476e+19 0 0)
(-1.53071530164409e+19 0 0)
(-1.4848031286804e+19 0 0)
(-1.48472120489751e+19 0 0)
(-1.48363696795696e+19 0 0)
(-1.47771107794834e+19 0 0)
(-1.47330132207282e+19 0 0)
(-1.46867269754767e+19 0 0)
(-1.46398229797072e+19 0 0)
(-1.45932891363331e+19 0 0)
(-1.45466670960491e+19 0 0)
(-1.45000442873136e+19 0 0)
(-1.445342849377e+19 0 0)
(-1.4406809088177e+19 0 0)
(-1.43601883137334e+19 0 0)
(-1.43135650305829e+19 0 0)
(-1.42669380208831e+19 0 0)
(-1.42203060948719e+19 0 0)
(-1.41736677918633e+19 0 0)
(-1.41270214757775e+19 0 0)
(-1.40803652666341e+19 0 0)
(-1.40336970915561e+19 0 0)
(-1.39870146056301e+19 0 0)
(-1.39403152749948e+19 0 0)
(-1.38935963084546e+19 0 0)
(-1.38468546116864e+19 0 0)
(-1.38000869073245e+19 0 0)
(-1.37532896013765e+19 0 0)
(-1.37064588417967e+19 0 0)
(-1.365959049256e+19 0 0)
(-1.36126801940152e+19 0 0)
(-1.3565723175296e+19 0 0)
(-1.35187145430155e+19 0 0)
(-1.34716489853882e+19 0 0)
(-1.34245209806912e+19 0 0)
(-1.33773247003913e+19 0 0)
(-1.33300539679525e+19 0 0)
(-1.32827024286625e+19 0 0)
(-1.32352633674873e+19 0 0)
(-1.31877297926178e+19 0 0)
(-1.31400944253757e+19 0 0)
(-1.30923497556586e+19 0 0)
(-1.30444879695114e+19 0 0)
(-1.29965009303956e+19 0 0)
(-1.29483803764106e+19 0 0)
(-1.29001176286843e+19 0 0)
(-1.28517039005502e+19 0 0)
(-1.28031300869494e+19 0 0)
(-1.27543868781924e+19 0 0)
(-1.27054647169534e+19 0 0)
(-1.26563538823152e+19 0 0)
(-1.26070444041744e+19 0 0)
(-1.25575261986556e+19 0 0)
(-1.25077888792231e+19 0 0)
(-1.24578220910421e+19 0 0)
(-1.24076151303714e+19 0 0)
(-1.2357157302256e+19 0 0)
(-1.230643777154e+19 0 0)
(-1.22554455384926e+19 0 0)
(-1.22041695889533e+19 0 0)
(-1.21525988754708e+19 0 0)
(-1.21007221874216e+19 0 0)
(-1.20485284378845e+19 0 0)
(-1.19960064351323e+19 0 0)
(-1.19431450155866e+19 0 0)
(-1.18899331240446e+19 0 0)
(-1.18363596931431e+19 0 0)
(-1.17824137770608e+19 0 0)
(-1.1728084518331e+19 0 0)
(-1.16733612487286e+19 0 0)
(-1.16182333486963e+19 0 0)
(-1.15626905082205e+19 0 0)
(-1.15067225403771e+19 0 0)
(-1.1450319493732e+19 0 0)
(-1.1393471736415e+19 0 0)
(-1.13361698472749e+19 0 0)
(-1.12784047590049e+19 0 0)
(-1.122016775695e+19 0 0)
(-1.1161450449757e+19 0 0)
(-1.11022448566445e+19 0 0)
(-1.10425434423925e+19 0 0)
(-1.09823390466861e+19 0 0)
(-1.09216250738403e+19 0 0)
(-1.08603953236804e+19 0 0)
(-1.07986441958064e+19 0 0)
(-1.07363665612833e+19 0 0)
(-1.06735579462186e+19 0 0)
(-1.06102144034165e+19 0 0)
(-1.05463325827934e+19 0 0)
(-1.04819098245986e+19 0 0)
(-1.04169440925975e+19 0 0)
(-1.03514339952458e+19 0 0)
(-1.02853788483741e+19 0 0)
(-1.02187786585889e+19 0 0)
(-1.01516341183041e+19 0 0)
(-1.00839466787977e+19 0 0)
(-1.00157184702006e+19 0 0)
(-9.94695234513378e+18 0 0)
(-9.87765189322159e+18 0 0)
(-9.80782141949556e+18 0 0)
(-9.73746593147702e+18 0 0)
(-9.66659110293366e+18 0 0)
(-9.59520332566862e+18 0 0)
(-9.52330960716641e+18 0 0)
(-9.45091759299992e+18 0 0)
(-9.37803549306153e+18 0 0)
(-9.30467209231362e+18 0 0)
(-9.23083661463939e+18 0 0)
(-9.15653877022799e+18 0 0)
(-9.08178855472031e+18 0 0)
(-9.00659632847192e+18 0 0)
(-8.9309725907967e+18 0 0)
(-8.85492794550177e+18 0 0)
(-8.77847298441216e+18 0 0)
(-8.70161817320817e+18 0 0)
(-8.62437361731869e+18 0 0)
(-8.54674909918554e+18 0 0)
(-8.46875368180993e+18 0 0)
(-8.39039565856139e+18 0 0)
(-8.31168233902598e+18 0 0)
(-8.2326197000696e+18 0 0)
(-8.1532122644847e+18 0 0)
(-8.07346273443224e+18 0 0)
(-7.99337170522394e+18 0 0)
(-7.91293727232701e+18 0 0)
(-7.83215476345038e+18 0 0)
(-7.7510161670781e+18 0 0)
(-7.66950978319286e+18 0 0)
(-7.58761968768437e+18 0 0)
(-7.50532568865414e+18 0 0)
(-7.42259747817521e+18 0 0)
(-7.33941526031394e+18 0 0)
(-7.2557519683432e+18 0 0)
(-7.17122367263552e+18 0 0)
(-7.0871787846558e+18 0 0)
(-7.00030529294146e+18 0 0)
(-6.90868374037594e+18 0 0)
(-6.81817562793221e+18 0 0)
(-6.72943598800942e+18 0 0)
(-6.63991247605649e+18 0 0)
(-6.54915103442915e+18 0 0)
(-6.45697794528405e+18 0 0)
(-6.36320596815721e+18 0 0)
(-6.26763007154297e+18 0 0)
(-6.17002324630648e+18 0 0)
(-6.07012291144476e+18 0 0)
(-5.9676326980548e+18 0 0)
(-5.86227179828596e+18 0 0)
(-5.75343239471458e+18 0 0)
(-5.64138946876932e+18 0 0)
(-5.52406006966098e+18 0 0)
(-5.40370599617547e+18 0 0)
(-5.27644711578291e+18 0 0)
(-5.1419275058909e+18 0 0)
(-5.00998373016653e+18 0 0)
(-4.8450406177466e+18 0 0)
(-4.71366222034135e+18 0 0)
(-4.52049519303773e+18 0 0)
(-4.30517435073403e+18 0 0)
(-4.09834920677894e+18 0 0)
(-3.36002155651006e+18 0 0)
(-2.56355929515413e+18 0 0)
(-2.47042649834075e+18 0 0)
(-2.49293100242856e+18 0 0)
(-2.2980944483949e+18 0 0)
(-1.8672989802437e+18 0 0)
(-1.21850697940677e+18 0 0)
(-7.38672817310007e+17 0 0)
(-3.15900937130476e+17 0 0)
(-9.40270734509343e+16 0 0)
(-1.18293735443897e+18 0 0)
(-1.29146260745827e+18 0 0)
(-4.86562539143954e+17 0 0)
(-1.54363583769084e+18 0 0)
(-2.97555534003621e+18 0 0)
(-2.73662080640143e+18 0 0)
(-3.37601192086576e+18 0 0)
(-4.54980514210225e+18 0 0)
(-4.24137183985664e+18 0 0)
(-4.19882682725014e+18 0 0)
(-4.00386107990711e+18 0 0)
(-2.49363122852515e+18 0 0)
(-8.32732078345814e+17 0 0)
(9.02280901296128e+17 0 0)
(3.46391362767474e+18 0 0)
(5.94449789904224e+18 0 0)
(7.79336944859795e+18 0 0)
(9.37819919361769e+18 0 0)
(1.02414401316937e+19 0 0)
(1.14615819912376e+19 0 0)
(9.92714818267906e+18 0 0)
(8.26544902570692e+18 0 0)
(7.97447150643708e+18 0 0)
(5.55665606607949e+18 0 0)
(4.82532599316205e+18 0 0)
(5.38428317410735e+18 0 0)
(-4.97228233687024e+18 0 0)
(1.5438433954698e+18 0 0)
(-1.15089218418713e+18 0 0)
(-2.43645852858917e+18 0 0)
(-2.36975765540637e+18 0 0)
(-2.2925306209343e+18 0 0)
(-2.35768016781688e+18 0 0)
(-2.5649226532948e+18 0 0)
(-2.78611283405911e+18 0 0)
(-2.92982753259485e+18 0 0)
(-3.00319629216627e+18 0 0)
(-3.02409934033624e+18 0 0)
(-3.01419418839835e+18 0 0)
(-2.98988097081849e+18 0 0)
(-2.95625866789941e+18 0 0)
(-2.91539183041209e+18 0 0)
(-2.87447376765558e+18 0 0)
(-2.83075756294509e+18 0 0)
(-2.78458619109074e+18 0 0)
(-2.7368713736915e+18 0 0)
(-2.68856411064977e+18 0 0)
(-2.6402158513009e+18 0 0)
(-2.5908746588634e+18 0 0)
(-2.54238001423308e+18 0 0)
(-2.49314256152856e+18 0 0)
(-2.44396494932334e+18 0 0)
(-2.39487955840214e+18 0 0)
(-2.34603016525097e+18 0 0)
(-2.29749162505928e+18 0 0)
(-2.24935364577569e+18 0 0)
(-2.20170379253766e+18 0 0)
(-2.1546151807747e+18 0 0)
(-2.10815368771793e+18 0 0)
(-2.0623778414177e+18 0 0)
(-2.01733879823814e+18 0 0)
(-1.97308117622603e+18 0 0)
(-1.92964266910958e+18 0 0)
(-1.88705496026813e+18 0 0)
(-1.84534347680607e+18 0 0)
(-1.80452832929679e+18 0 0)
(-1.76462411096042e+18 0 0)
(-1.72564087631825e+18 0 0)
(-1.68758397456079e+18 0 0)
(-1.65045555376259e+18 0 0)
(-1.61425282934473e+18 0 0)
(-1.57898120351999e+18 0 0)
(-1.54451884082978e+18 0 0)
(-1.51112897081553e+18 0 0)
(-1.4785665817921e+18 0 0)
(-1.44686202210812e+18 0 0)
(-1.41601289857481e+18 0 0)
(-1.3860041491913e+18 0 0)
(-1.35681786989876e+18 0 0)
(-1.32843469541303e+18 0 0)
(-1.30083444293599e+18 0 0)
(-1.27399635224481e+18 0 0)
(-1.2479026502724e+18 0 0)
(-1.22253238152237e+18 0 0)
(-1.19781014843846e+18 0 0)
(-1.17382492467866e+18 0 0)
(-1.15050855278992e+18 0 0)
(-1.12777283031113e+18 0 0)
(-1.10567517140793e+18 0 0)
(-1.08416869963999e+18 0 0)
(-1.06323814650333e+18 0 0)
(-1.04286285638859e+18 0 0)
(-1.02302421378284e+18 0 0)
(-1.00370473202556e+18 0 0)
(-9.84882226738317e+17 0 0)
(-9.6655194779488e+17 0 0)
(-9.4860882045735e+17 0 0)
(-9.31247854686669e+17 0 0)
(-9.14296046527044e+17 0 0)
(-8.97746571004447e+17 0 0)
(-8.81604867464698e+17 0 0)
(-8.65859282410206e+17 0 0)
(-8.50498390688433e+17 0 0)
(-8.355102531053e+17 0 0)
(-8.20883172435375e+17 0 0)
(-8.06605863558719e+17 0 0)
(-7.92667356615103e+17 0 0)
(-7.79056469809178e+17 0 0)
(-7.65764098456898e+17 0 0)
(-7.52768811880645e+17 0 0)
(-7.40083876529287e+17 0 0)
(-7.27480335108658e+17 0 0)
(-7.15566715647897e+17 0 0)
(-7.03841021724425e+17 0 0)
(-6.9234212932795e+17 0 0)
(-6.81098849907053e+17 0 0)
(-6.70132333750957e+17 0 0)
(-6.59160537454001e+17 0 0)
(-6.48938601530676e+17 0 0)
(-6.38951682317072e+17 0 0)
(-6.29104521537416e+17 0 0)
(-6.19090932527002e+17 0 0)
(-6.10448139107366e+17 0 0)
(-6.01209725853803e+17 0 0)
(-5.93040873287318e+17 0 0)
(-5.8494994299031e+17 0 0)
(-5.78421133855943e+17 0 0)
(-5.72303869757578e+17 0 0)
(-5.62345953579418e+17 0 0)
)
;

boundaryField
{
    electrode
    {
        type            calculated;
        value           uniform (-1.50849096027114e+19 0 0);
    }
    ground
    {
        type            calculated;
        value           uniform (-5.59801006028579e+17 0 0);
    }
    otherfaces
    {
        type            empty;
    }
}


// ************************************************************************* //
