/*--------------------------------*- C++ -*----------------------------------*\
| =========                 |                                                 |
| \\      /  F ield         | foam-extend: Open Source CFD                    |
|  \\    /   O peration     | Version:     4.0                                |
|   \\  /    A nd           | Web:         http://www.foam-extend.org         |
|    \\/     M anipulation  |                                                 |
\*---------------------------------------------------------------------------*/
FoamFile
{
    version     2.0;
    format      ascii;
    class       volScalarField;
    location    "4.3e-06";
    object      Te;
}
// * * * * * * * * * * * * * * * * * * * * * * * * * * * * * * * * * * * * * //

dimensions      [0 0 0 1 0 0 0];

internalField   nonuniform List<scalar> 
300
(
40337.9932679263
40338.2982803225
40338.4867019137
40338.6042411555
40338.7873927225
40339.0100118277
40339.27547662
40339.5857061608
40339.9399309941
40340.3383075285
40340.7808490478
40341.2675439423
40341.7984082776
40342.3734585926
40342.9927176304
40343.6562146753
40344.3639850114
40345.116070142
40345.9125178118
40346.7533820443
40347.638723193
40348.568607995
40349.5431096291
40350.562307778
40351.6262886946
40352.7351452722
40353.8889771224
40355.0878906558
40356.3319991663
40357.6214229237
40358.9562892699
40360.3367327182
40361.7628950635
40363.2349254928
40364.7529807028
40366.3172250258
40367.9278305575
40369.5849772966
40371.2888532857
40373.039654759
40374.8375863013
40376.6828610124
40378.5757006753
40380.5163359341
40382.5050064841
40384.5419612628
40386.627458653
40388.7617666964
40390.9451633106
40393.1779365213
40395.4603847029
40397.7928168267
40400.175552722
40402.6089233461
40405.0932710697
40407.6289499682
40410.2163261295
40412.8557779768
40415.5476965957
40418.2924860867
40421.0905639265
40423.9423613397
40426.8483236968
40429.8089109216
40432.8245979156
40435.8958750075
40439.0232484128
40442.2072407173
40445.4483913829
40448.7472572733
40452.1044131998
40455.5204524971
40458.9959876193
40462.5316507616
40466.1280945156
40469.7859925465
40473.5060403042
40477.2889557683
40481.135480221
40485.0463790608
40489.0224426534
40493.0644872176
40497.173355758
40501.3499190388
40505.5950766041
40509.9097578491
40514.2949231418
40518.7515649994
40523.2807093207
40527.8834166881
40532.560783727
40537.3139445349
40542.1440721903
40547.0523803353
40552.0401248412
40557.1086055671
40562.2591682078
40567.4932062446
40572.812163007
40578.2175338463
40583.7108684305
40589.2937731734
40594.9679138058
40600.7350180952
40606.5968787275
40612.555356365
40618.6123828898
40624.7699648489
40631.0301871172
40637.3952167932
40643.8673073495
40650.4488030546
40657.1421436892
40663.9498695863
40670.8746270149
40677.9191739398
40685.086386197
40692.3792641081
40699.8009395819
40707.3546837529
40715.0439151886
40722.8722087402
40730.843305086
40738.9611210339
40747.2297606663
40755.6535274099
40764.2369371185
40772.9847322832
40781.9018974913
40790.9936762574
40800.2655893338
40809.7234552203
40819.3734108898
40829.2219340523
40839.2759080373
40849.5424977981
40860.0295031434
40870.7457901639
40881.7002945928
40892.9017382959
40904.3596164945
40916.0844036224
40928.087334185
40940.3804351017
40952.9766015102
40965.8896826512
40979.1345805803
40992.7273627977
41006.685381952
41021.0274538506
41035.7739308151
41050.9470928253
41066.5710597771
41082.6722828207
41099.2802706399
41116.4256406698
41134.1463518079
41152.4786740124
41171.4676330772
41191.1739782514
41211.6512820856
41233.0628585043
41255.6093504653
41279.2458963795
41303.8772529889
41329.6147067296
41356.6751598895
41385.310923795
41415.7075495329
41448.0017632915
41482.3464002755
41518.517492951
41556.6173905125
41597.6044359454
41641.5713029419
41688.0154692237
41737.8798635947
41792.1805235992
41850.9325918774
41915.4872279473
41987.9124660142
42069.8847125051
42165.0130451578
42278.5261924075
42416.3258039488
42587.7124156975
42806.2305411782
43088.5818107402
43457.9514998492
43947.3849093015
44607.2364069199
45499.5924695133
46698.0555860437
48348.5730811872
50648.2751323657
53862.2797250173
58460.2367570008
64260.2953234756
71850.2886695186
83786.8514054619
99988.8874761964
121996.02427508
152123.933078911
192127.412827431
242237.188652188
300160.860209036
361792.585230456
422925.22349037
480425.110705297
532620.872566173
578941.851003833
619535.744359255
654986.071670154
685930.967955568
712982.855286956
736774.532597973
757856.910570823
776679.846422763
793604.298109741
808935.839480107
822913.898246111
835736.879830694
847587.368659586
858609.389321008
868922.459262784
878625.339076035
887800.170162649
896515.007562018
904826.141200483
912780.038637495
920414.840044948
927761.578257185
934845.171093526
941685.237512186
948296.7745953
954690.721434686
960874.434005741
966852.087472365
972625.020643921
978192.032671818
983549.632741717
988692.274253133
993612.377305237
998302.554085519
1002750.63931591
1006942.17041079
1010865.80652396
1014508.09626951
1017854.25155244
1020888.51680404
1023594.31681407
1025954.36440552
1027950.74942982
1029564.93686498
1030777.81684704
1031568.15733609
1031912.04238754
1031805.4761426
1031218.25016126
1030130.69490245
1028521.37244446
1026369.26366991
1023653.00954077
1020351.03556712
1016441.46380907
1011902.23442814
1006710.68470041
1000846.38483625
994285.302747279
987001.262071674
978972.285499914
970174.335798489
960581.736911564
950167.749666112
938904.482644322
926762.785356503
913712.080683171
899720.166053022
884753.009538326
868774.427939852
851746.264813724
833627.016983899
814381.155859025
793960.337055061
772307.493931934
749370.993894593
725084.523911694
699370.67383381
672155.288108182
643349.30014378
612841.245600753
580507.485435654
546210.064146465
509762.237248883
470939.785889519
429460.475475374
384925.205015205
336786.000068469
284238.544068198
226229.675385607
)
;

boundaryField
{
    electrode
    {
        type            electronTemperature;
        seec            0.05;
        Tse             1000;
        Edepend         1;
        TFN             1000;
        field_emission  0;
        field_enhancement_factor 55;
        work_function   5;
        value           uniform 40337.9932679263;
    }
    ground
    {
        type            electronTemperature;
        seec            0.05;
        Tse             1000;
        Edepend         1;
        TFN             1000;
        field_emission  0;
        field_enhancement_factor 55;
        work_function   5;
        value           uniform 193311.26531472;
    }
    otherfaces
    {
        type            empty;
    }
}


// ************************************************************************* //
