/*--------------------------------*- C++ -*----------------------------------*\
| =========                 |                                                 |
| \\      /  F ield         | foam-extend: Open Source CFD                    |
|  \\    /   O peration     | Version:     4.0                                |
|   \\  /    A nd           | Web:         http://www.foam-extend.org         |
|    \\/     M anipulation  |                                                 |
\*---------------------------------------------------------------------------*/
FoamFile
{
    version     2.0;
    format      ascii;
    class       volScalarField;
    location    "4.3e-06";
    object      TeMean;
}
// * * * * * * * * * * * * * * * * * * * * * * * * * * * * * * * * * * * * * //

dimensions      [0 0 0 1 0 0 0];

internalField   nonuniform List<scalar> 
300
(
32808.8108739756
32809.0996108093
32809.1993165657
32809.1385121844
32809.0737887354
32808.9870743792
32808.8809931705
32808.7588492518
32808.6210592063
32808.4685244858
32808.3020811828
32808.1225253845
32807.9306298161
32807.7271193656
32807.5126938046
32807.2880255543
32807.0537579214
32806.8105120954
32806.5588864603
32806.2994563093
32806.0327779636
32805.7593856203
32805.4797949026
32805.1945017519
32804.9039818111
32804.608706763
32804.3091334468
32804.0056998997
32803.6988381182
32803.3889567366
32803.076439078
32802.7616796049
32802.445080242
32802.1270211695
32801.8078691184
32801.4879713521
32801.1676675678
32800.8473030297
32800.5272155874
32800.2077289691
32799.8891558098
32799.5718145529
32799.2560172196
32798.9420651214
32798.6302540178
32798.320873674
32798.0142071107
32797.7105291435
32797.4101015146
32797.1131727665
32796.8199786284
32796.5307638856
32796.2457946917
32795.965331196
32795.6896346445
32795.4189762295
32795.1536135468
32794.8937935004
32794.6397714658
32794.3918017783
32794.1501353612
32793.9150332065
32793.6867303353
32793.4654510574
32793.2514615371
32793.0450476614
32792.8464872881
32792.6560532123
32792.4740187381
32792.3006648461
32792.1362680319
32791.9810872174
32791.8354023698
32791.6995089317
32791.5736859449
32791.4581997152
32791.3533452529
32791.2594574507
32791.1768539555
32791.1058441251
32791.0467800729
32791.0000263564
32790.9659274196
32790.9448187268
32790.9370412216
32790.9429750563
32790.9630329833
32790.9976191323
32791.047132292
32791.1119949313
32791.1926204449
32791.2894302981
32791.4029258517
32791.5335974017
32791.6819302327
32791.8484557061
32792.0337080898
32792.2382403273
32792.4626160833
32792.7074227953
32792.9732941327
32793.2608427152
32793.5706990219
32793.9035683223
32794.2601730595
32794.6412514511
32795.0475623015
32795.4798969854
32795.9390972847
32796.4260342706
32796.941614461
32797.4867778185
32798.0624903608
32798.6697899553
32799.3097421132
32799.9834370313
32800.6920061386
32801.4366639285
32802.2187112061
32803.0394465241
32803.9002186271
32804.8024588762
32805.7476576558
32806.7374030651
32807.7733951149
32808.8573896738
32809.9911920072
32811.1767285585
32812.4160476577
32813.7112682167
32815.0646153774
32816.4784638223
32817.9553373506
32819.4978369311
32821.1086968348
32822.7909164197
32824.5477071352
32826.382441196
32828.2986921907
32830.3002926909
32832.3913550501
32834.5762677083
32836.8597227201
32839.2467511983
32841.7428164574
32844.3538930307
32847.0864840963
32849.9476890277
32852.9451668102
32856.0872802554
32859.3833417417
32862.8435871884
32866.4793113639
32870.3032152911
32874.3293251924
32878.5734777598
32883.0534718617
32887.7898591844
32892.8070937915
32898.1356334881
32903.8286943476
32909.9547161498
32916.5509673433
32923.6370725721
32931.2687919624
32939.5415637706
32948.5699396357
32958.4703970955
32969.3541243036
32981.308127621
32994.3603803031
33008.5784232393
33024.1446897651
33041.0739779373
33059.2661007185
33078.9294267684
33100.2405014219
33123.3219888775
33148.9877890711
33178.58594667
33214.121159918
33259.4754606279
33320.7561958018
33406.9609710861
33532.3189189032
33718.0415745223
33994.934262894
34409.1804155978
35030.2963345689
35964.155867614
37375.0341307424
39524.1731978764
42839.870514704
48160.069957763
56311.491769707
67815.8072670207
84582.9182432075
107458.568254871
138224.951872668
177174.582866323
223664.59922958
275875.465798762
331431.230187125
387554.596235745
441757.46770871
492224.528084294
537953.722627998
578621.208432902
614408.522425174
645781.829053233
673283.605694864
697457.082467541
718821.312521838
737825.727441124
754857.965826741
770250.158507698
784274.592210831
797154.807561691
809074.19353758
820183.292945619
830605.170282383
840438.835348111
849769.046485752
858669.375135012
867198.880454345
875405.747715866
883329.300863503
891001.308888045
898447.115372576
905686.5883561
912734.870828138
919603.007717745
926298.463358357
932825.444239413
939185.330501629
945377.082394995
951397.424291328
957241.104573942
962901.100455331
968368.815117129
973634.235240476
978686.054156766
983511.856665382
988098.384577034
992431.623404262
996496.762955587
1000277.98307019
1003759.05696994
1006923.49428308
1009754.06549928
1012233.88011615
1014346.08056115
1016073.17268653
1017397.47515136
1018300.95744085
1018765.40003463
1018769.54879099
1018297.85320389
1017338.37352281
1015867.52264403
1013866.88356002
1011317.50370424
1008200.6170657
1004497.27181573
1000188.31925901
995254.930936302
989677.419040105
983435.305079987
976508.507892225
968876.391613754
960517.549449929
951409.898713439
941530.725404648
930856.070482913
919360.721323548
907018.170381526
893800.490920981
879678.135217416
864619.782427921
848592.051445695
831559.437429967
813484.070862377
794330.516814483
774053.079463504
752599.279522611
729918.436313154
705947.837333741
680614.601457372
653847.81698048
625561.167585582
595648.207990107
563991.928741001
530455.905708095
494861.158367159
456992.217917094
416574.796648566
373221.621213132
326404.946121698
275353.173883937
219044.273170859
)
;

boundaryField
{
    electrode
    {
        type            calculated;
        value           uniform 32808.8108739784;
    }
    ground
    {
        type            calculated;
        value           uniform 187118.367186175;
    }
    otherfaces
    {
        type            empty;
    }
}


// ************************************************************************* //
