/*--------------------------------*- C++ -*----------------------------------*\
| =========                 |                                                 |
| \\      /  F ield         | foam-extend: Open Source CFD                    |
|  \\    /   O peration     | Version:     4.0                                |
|   \\  /    A nd           | Web:         http://www.foam-extend.org         |
|    \\/     M anipulation  |                                                 |
\*---------------------------------------------------------------------------*/
FoamFile
{
    version     2.0;
    format      ascii;
    class       volVectorField;
    location    "8e-10";
    object      E;
}
// * * * * * * * * * * * * * * * * * * * * * * * * * * * * * * * * * * * * * //

dimensions      [0 0 0 1 0 0 0];

internalField   nonuniform List<vector> 
249
(
(-0 18125.5531725886 -0)
(-0 12083.904587051 -0)
(-0 12083.9030732595 -0)
(-0 12083.901361489 -0)
(-0 12083.8998452562 -0)
(-0 12083.9001941996 -0)
(-0 12083.9011036964 -0)
(-0 12083.9016153255 -0)
(-0 12083.9018654614 -0)
(-0 12083.9026761137 -0)
(-0 12083.9038186602 -0)
(-0 12083.9038218413 -0)
(-0 12083.9026669518 -0)
(-0 12083.90084283 -0)
(-0 12083.8992531626 -0)
(-0 12083.8984416566 -0)
(-0 12083.8965909082 -0)
(-0 12083.8958087659 -0)
(-0 12083.8966015538 -0)
(-0 12083.8957092012 -0)
(-0 12083.8953334928 -0)
(-0 12083.8946398143 -0)
(-0 12083.8941914471 -0)
(-0 12083.8946799884 -0)
(-0 12083.8939155349 -0)
(-0 12083.8930654806 -0)
(-0 12083.8928380295 -0)
(-0 12083.8923180325 -0)
(-0 12083.8923942206 -0)
(-0 12083.8924040271 -0)
(-0 12083.8919384441 -0)
(-0 12083.8913574721 -0)
(-0 12083.8914626528 -0)
(-0 12083.892365486 -0)
(-0 12083.892397415 -0)
(-0 12083.891811538 -0)
(-0 12083.8923094178 -0)
(-0 12083.8941942037 -0)
(-0 12083.8946195565 -0)
(-0 12083.8937216732 -0)
(-0 12083.8925965621 -0)
(-0 12083.8916331862 -0)
(-0 12083.8922640953 -0)
(-0 12083.8934677584 -0)
(-0 12083.8930827987 -0)
(-0 12083.8921590449 -0)
(-0 12083.8925738975 -0)
(-0 12083.892977308 -0)
(-0 12083.8924066584 -0)
(-0 12083.8918502733 -0)
(-0 12083.8906409165 -0)
(-0 12083.8896158021 -0)
(-0 12083.8884201851 -0)
(-0 12083.8891949557 -0)
(-0 12083.8904602173 -0)
(-0 12083.8897585683 -0)
(-0 12083.8896276275 -0)
(-0 12083.8903132588 -0)
(-0 12083.8911888055 -0)
(-0 12083.8912122651 -0)
(-0 12083.8913670025 -0)
(-0 12083.8912619699 -0)
(-0 12083.8907237141 -0)
(-0 12083.8898627431 -0)
(-0 12083.8887904843 -0)
(-0 12083.8879919868 -0)
(-0 12083.8873490022 -0)
(-0 12083.887441704 -0)
(-0 12083.8879369804 -0)
(-0 12083.8879155211 -0)
(-0 12083.8874902915 -0)
(-0 12083.8868815925 -0)
(-0 12083.8864417436 -0)
(-0 12083.8865553475 -0)
(-0 12083.8865974493 -0)
(-0 12083.8862696283 -0)
(-0 12083.8861469091 -0)
(-0 12083.886099885 -0)
(-0 12083.8864654304 -0)
(-0 12083.8865398607 -0)
(-0 12083.8860531534 -0)
(-0 12083.8860339827 -0)
(-0 12083.8861331595 -0)
(-0 12083.885441988 -0)
(-0 12083.8847651353 -0)
(-0 12083.8838677913 -0)
(-0 12083.8836108845 -0)
(-0 12083.8843285756 -0)
(-0 12083.8843280098 -0)
(-0 12083.8841417147 -0)
(-0 12083.8840724918 -0)
(-0 12083.8841555231 -0)
(-0 12083.8847584856 -0)
(-0 12083.8852599013 -0)
(-0 12083.8849551765 -0)
(-0 12083.8849577879 -0)
(-0 12083.8852336667 -0)
(-0 12083.885336276 -0)
(-0 12083.8849032114 -0)
(-0 12083.8846742627 -0)
(-0 12083.8847265793 -0)
(-0 12083.8846270654 -0)
(-0 12083.884677171 -0)
(-0 12083.884378052 -0)
(-0 12083.8842193941 -0)
(-0 12083.8837548302 -0)
(-0 12083.8837432532 -0)
(-0 12083.8840653422 -0)
(-0 12083.8833737508 -0)
(-0 12083.8819836501 -0)
(-0 12083.8808022997 -0)
(-0 12083.8806741107 -0)
(-0 12083.8812252156 -0)
(-0 12083.8818947108 -0)
(-0 12083.8813230273 -0)
(-0 12083.8804609424 -0)
(-0 12083.8802348621 -0)
(-0 12083.8800026137 -0)
(-0 12083.8802552237 -0)
(-0 12083.8807974921 -0)
(-0 12083.880355795 -0)
(-0 12083.8798091635 -0)
(-0 12083.880161449 -0)
(-0 12083.8808794111 -0)
(-0 12083.8812116945 -0)
(-0 12083.8811337303 -0)
(-0 12083.8810442169 -0)
(-0 12083.8810215522 -0)
(-0 12083.8817970351 -0)
(-0 12083.8824095477 -0)
(-0 12083.8820021271 -0)
(-0 12083.8809378354 -0)
(-0 12083.8809268651 -0)
(-0 12083.8816170012 -0)
(-0 12083.8815756598 -0)
(-0 12083.8820072421 -0)
(-0 12083.8829685145 -0)
(-0 12083.8831336123 -0)
(-0 12083.8829385234 -0)
(-0 12083.8827310345 -0)
(-0 12083.8829068076 -0)
(-0 12083.8833825904 -0)
(-0 12083.8834190566 -0)
(-0 12083.8836230515 -0)
(-0 12083.8837783235 -0)
(-0 12083.8840342805 -0)
(-0 12083.8844461511 -0)
(-0 12083.8845284555 -0)
(-0 12083.8846382762 -0)
(-0 12083.884742017 -0)
(-0 12083.8844875029 -0)
(-0 12083.8837943716 -0)
(-0 12083.8839250165 -0)
(-0 12083.8846060161 -0)
(-0 12083.8845518165 -0)
(-0 12083.8843739848 -0)
(-0 12083.8844496793 -0)
(-0 12083.8846244578 -0)
(-0 12083.885119403 -0)
(-0 12083.8856452279 -0)
(-0 12083.885764667 -0)
(-0 12083.8859159311 -0)
(-0 12083.8855453222 -0)
(-0 12083.8854083648 -0)
(-0 12083.885760109 -0)
(-0 12083.8855118219 -0)
(-0 12083.8853950786 -0)
(-0 12083.8853761888 -0)
(-0 12083.8854370153 -0)
(-0 12083.8856048596 -0)
(-0 12083.8851182165 -0)
(-0 12083.8848833193 -0)
(-0 12083.8849705927 -0)
(-0 12083.8850824722 -0)
(-0 12083.885772011 -0)
(-0 12083.8860188737 -0)
(-0 12083.8856714322 -0)
(-0 12083.8859124445 -0)
(-0 12083.8862896502 -0)
(-0 12083.8859077999 -0)
(-0 12083.8860075915 -0)
(-0 12083.8861468545 -0)
(-0 12083.8855928867 -0)
(-0 12083.8854616937 -0)
(-0 12083.8858240953 -0)
(-0 12083.8856896142 -0)
(-0 12083.8853495489 -0)
(-0 12083.8850318247 -0)
(-0 12083.88503671 -0)
(-0 12083.8850529037 -0)
(-0 12083.8846962301 -0)
(-0 12083.8848661719 -0)
(-0 12083.8851407531 -0)
(-0 12083.8853041268 -0)
(-0 12083.885272534 -0)
(-0 12083.8849459998 -0)
(-0 12083.884991426 -0)
(-0 12083.8851784254 -0)
(-0 12083.8852293248 -0)
(-0 12083.8853540736 -0)
(-0 12083.8856877318 -0)
(-0 12083.8861820968 -0)
(-0 12083.886381237 -0)
(-0 12083.8865589347 -0)
(-0 12083.8869685581 -0)
(-0 12083.8870288053 -0)
(-0 12083.8870561058 -0)
(-0 12083.8872597094 -0)
(-0 12083.8871597601 -0)
(-0 12083.8871604105 -0)
(-0 12083.8874053428 -0)
(-0 12083.8874762137 -0)
(-0 12083.8874038961 -0)
(-0 12083.8873192171 -0)
(-0 12083.8874007718 -0)
(-0 12083.8874764682 -0)
(-0 12083.8873843653 -0)
(-0 12083.8874847886 -0)
(-0 12083.8875017736 -0)
(-0 12083.8877316038 -0)
(-0 12083.8879616598 -0)
(-0 12083.8879553297 -0)
(-0 12083.8879612705 -0)
(-0 12083.8879890561 -0)
(-0 12083.8881924694 -0)
(-0 12083.8882218462 -0)
(-0 12083.8881170361 -0)
(-0 12083.8881644614 -0)
(-0 12083.8881539462 -0)
(-0 12083.8881182206 -0)
(-0 12083.8881262098 -0)
(-0 12083.8881477526 -0)
(-0 12083.8883077252 -0)
(-0 12083.888352147 -0)
(-0 12083.8882020098 -0)
(-0 12083.8881299318 -0)
(-0 12083.8881597376 -0)
(-0 12083.8882212812 -0)
(-0 12083.8882650758 -0)
(-0 12083.8882969126 -0)
(-0 12083.8882812063 -0)
(-0 12083.8882418714 -0)
(-0 12083.8882539394 -0)
(-0 12083.88825121 -0)
(-0 12083.8882730332 -0)
(-0 12083.8882840242 -0)
(-0 12083.8882815617 -0)
(-0 12083.8884246444 -0)
(-0 18125.6026114229 -0)
)
;

boundaryField
{
    dielectric_2
    {
        type            calculated;
        value           nonuniform 0();
    }
    dielectric_1
    {
        type            calculated;
        value           nonuniform 0();
    }
    otherfaces
    {
        type            empty;
    }
    procBoundary0to1
    {
        type            processor;
        value           uniform (-0 18125.2668448747 -0);
    }
    procBoundary0to2
    {
        type            processor;
        value           uniform (-0 18125.4454105141 -0);
    }
}


// ************************************************************************* //
