/*--------------------------------*- C++ -*----------------------------------*\
| =========                 |                                                 |
| \\      /  F ield         | foam-extend: Open Source CFD                    |
|  \\    /   O peration     | Version:     4.0                                |
|   \\  /    A nd           | Web:         http://www.foam-extend.org         |
|    \\/     M anipulation  |                                                 |
\*---------------------------------------------------------------------------*/
FoamFile
{
    version     2.0;
    format      ascii;
    class       volVectorField;
    location    "9e-10";
    object      E;
}
// * * * * * * * * * * * * * * * * * * * * * * * * * * * * * * * * * * * * * //

dimensions      [0 0 0 1 0 0 0];

internalField   nonuniform List<vector> 
249
(
(-0 20390.0315497634 -0)
(-0 13593.3535315031 -0)
(-0 13593.3533744666 -0)
(-0 13593.3533816153 -0)
(-0 13593.3533940162 -0)
(-0 13593.3534130083 -0)
(-0 13593.3534320318 -0)
(-0 13593.3534513582 -0)
(-0 13593.3534707486 -0)
(-0 13593.3534901815 -0)
(-0 13593.3535096687 -0)
(-0 13593.3535292549 -0)
(-0 13593.353548882 -0)
(-0 13593.353568579 -0)
(-0 13593.353588413 -0)
(-0 13593.3536082905 -0)
(-0 13593.3536282392 -0)
(-0 13593.3536482731 -0)
(-0 13593.3536684077 -0)
(-0 13593.3536885897 -0)
(-0 13593.353708788 -0)
(-0 13593.3537291023 -0)
(-0 13593.3537494723 -0)
(-0 13593.3537699125 -0)
(-0 13593.3537903844 -0)
(-0 13593.3538109332 -0)
(-0 13593.3538315554 -0)
(-0 13593.3538522141 -0)
(-0 13593.3538729685 -0)
(-0 13593.353893794 -0)
(-0 13593.3539146799 -0)
(-0 13593.3539356313 -0)
(-0 13593.353956621 -0)
(-0 13593.3539777191 -0)
(-0 13593.3539988813 -0)
(-0 13593.354020091 -0)
(-0 13593.3540413917 -0)
(-0 13593.3540627315 -0)
(-0 13593.3540841632 -0)
(-0 13593.3541056761 -0)
(-0 13593.3541272359 -0)
(-0 13593.354148844 -0)
(-0 13593.3541704822 -0)
(-0 13593.3541922422 -0)
(-0 13593.3542140717 -0)
(-0 13593.3542359382 -0)
(-0 13593.3542579015 -0)
(-0 13593.3542799461 -0)
(-0 13593.3543020293 -0)
(-0 13593.3543242089 -0)
(-0 13593.3543464231 -0)
(-0 13593.3543686401 -0)
(-0 13593.3543909521 -0)
(-0 13593.3544133767 -0)
(-0 13593.3544358756 -0)
(-0 13593.3544584279 -0)
(-0 13593.3544810546 -0)
(-0 13593.354503708 -0)
(-0 13593.3545264583 -0)
(-0 13593.3545492707 -0)
(-0 13593.3545720701 -0)
(-0 13593.3545949654 -0)
(-0 13593.3546179331 -0)
(-0 13593.354640938 -0)
(-0 13593.354663888 -0)
(-0 13593.3546868377 -0)
(-0 13593.3547098848 -0)
(-0 13593.3547330086 -0)
(-0 13593.354756161 -0)
(-0 13593.3547793849 -0)
(-0 13593.3548027137 -0)
(-0 13593.3548261384 -0)
(-0 13593.3548496078 -0)
(-0 13593.3548731256 -0)
(-0 13593.3548966944 -0)
(-0 13593.3549203218 -0)
(-0 13593.3549440414 -0)
(-0 13593.3549678171 -0)
(-0 13593.3549916496 -0)
(-0 13593.3550155574 -0)
(-0 13593.3550395518 -0)
(-0 13593.3550636106 -0)
(-0 13593.3550877386 -0)
(-0 13593.355111958 -0)
(-0 13593.3551362416 -0)
(-0 13593.3551605741 -0)
(-0 13593.3551850587 -0)
(-0 13593.3552095912 -0)
(-0 13593.3552341605 -0)
(-0 13593.3552588221 -0)
(-0 13593.3552835455 -0)
(-0 13593.3553083105 -0)
(-0 13593.355333124 -0)
(-0 13593.3553579835 -0)
(-0 13593.3553829238 -0)
(-0 13593.3554080196 -0)
(-0 13593.3554331581 -0)
(-0 13593.355458299 -0)
(-0 13593.3554834957 -0)
(-0 13593.3555088068 -0)
(-0 13593.3555342094 -0)
(-0 13593.3555596222 -0)
(-0 13593.3555850839 -0)
(-0 13593.355610614 -0)
(-0 13593.3556362232 -0)
(-0 13593.3556619294 -0)
(-0 13593.355687682 -0)
(-0 13593.3557134807 -0)
(-0 13593.355739316 -0)
(-0 13593.3557652459 -0)
(-0 13593.3557912541 -0)
(-0 13593.3558173202 -0)
(-0 13593.3558435033 -0)
(-0 13593.3558697407 -0)
(-0 13593.355896061 -0)
(-0 13593.3559224129 -0)
(-0 13593.3559487772 -0)
(-0 13593.3559752257 -0)
(-0 13593.3560017531 -0)
(-0 13593.3560283644 -0)
(-0 13593.3560550201 -0)
(-0 13593.3560817297 -0)
(-0 13593.3561085415 -0)
(-0 13593.3561354075 -0)
(-0 13593.3561623097 -0)
(-0 13593.3561892826 -0)
(-0 13593.3562162864 -0)
(-0 13593.3562433103 -0)
(-0 13593.3562703238 -0)
(-0 13593.3562973658 -0)
(-0 13593.3563245275 -0)
(-0 13593.356351769 -0)
(-0 13593.3563791111 -0)
(-0 13593.3564065391 -0)
(-0 13593.3564340019 -0)
(-0 13593.3564615022 -0)
(-0 13593.3564890858 -0)
(-0 13593.356516696 -0)
(-0 13593.3565443244 -0)
(-0 13593.3565720419 -0)
(-0 13593.3565998366 -0)
(-0 13593.3566277095 -0)
(-0 13593.3566556437 -0)
(-0 13593.3566836519 -0)
(-0 13593.3567116939 -0)
(-0 13593.3567397881 -0)
(-0 13593.3567679887 -0)
(-0 13593.3567962504 -0)
(-0 13593.356824565 -0)
(-0 13593.3568529338 -0)
(-0 13593.3568813737 -0)
(-0 13593.3569098887 -0)
(-0 13593.3569384593 -0)
(-0 13593.3569670682 -0)
(-0 13593.3569957599 -0)
(-0 13593.3570245572 -0)
(-0 13593.3570533656 -0)
(-0 13593.3570822276 -0)
(-0 13593.3571111399 -0)
(-0 13593.3571401261 -0)
(-0 13593.3571692046 -0)
(-0 13593.3571983102 -0)
(-0 13593.3572274605 -0)
(-0 13593.3572566759 -0)
(-0 13593.3572859541 -0)
(-0 13593.3573152961 -0)
(-0 13593.3573446734 -0)
(-0 13593.3573741256 -0)
(-0 13593.3574036721 -0)
(-0 13593.3574332847 -0)
(-0 13593.3574629545 -0)
(-0 13593.3574927123 -0)
(-0 13593.3575225051 -0)
(-0 13593.3575523261 -0)
(-0 13593.3575822436 -0)
(-0 13593.3576121685 -0)
(-0 13593.3576421317 -0)
(-0 13593.3576721749 -0)
(-0 13593.357702326 -0)
(-0 13593.3577325272 -0)
(-0 13593.3577627398 -0)
(-0 13593.357793015 -0)
(-0 13593.3578233146 -0)
(-0 13593.3578536501 -0)
(-0 13593.3578840624 -0)
(-0 13593.3579146114 -0)
(-0 13593.3579451896 -0)
(-0 13593.3579757928 -0)
(-0 13593.3580064965 -0)
(-0 13593.3580372041 -0)
(-0 13593.3580679483 -0)
(-0 13593.3580987958 -0)
(-0 13593.3581296811 -0)
(-0 13593.3581606145 -0)
(-0 13593.3581916276 -0)
(-0 13593.3582226576 -0)
(-0 13593.3582537379 -0)
(-0 13593.3582848711 -0)
(-0 13593.3583160519 -0)
(-0 13593.3583473348 -0)
(-0 13593.3583786632 -0)
(-0 13593.3584100138 -0)
(-0 13593.3584414192 -0)
(-0 13593.3584729187 -0)
(-0 13593.3585044769 -0)
(-0 13593.3585360742 -0)
(-0 13593.3585677199 -0)
(-0 13593.3585993968 -0)
(-0 13593.3586311576 -0)
(-0 13593.3586629619 -0)
(-0 13593.3586947927 -0)
(-0 13593.3587267392 -0)
(-0 13593.3587587029 -0)
(-0 13593.3587906665 -0)
(-0 13593.3588227122 -0)
(-0 13593.3588548099 -0)
(-0 13593.3588869515 -0)
(-0 13593.3589191317 -0)
(-0 13593.3589513868 -0)
(-0 13593.3589836976 -0)
(-0 13593.359016042 -0)
(-0 13593.3590484347 -0)
(-0 13593.3590808811 -0)
(-0 13593.3591133767 -0)
(-0 13593.3591459194 -0)
(-0 13593.3591784919 -0)
(-0 13593.3592111375 -0)
(-0 13593.3592438564 -0)
(-0 13593.3592765912 -0)
(-0 13593.3593093766 -0)
(-0 13593.3593422275 -0)
(-0 13593.3593750932 -0)
(-0 13593.359408031 -0)
(-0 13593.3594410129 -0)
(-0 13593.3594739911 -0)
(-0 13593.3595070282 -0)
(-0 13593.3595401166 -0)
(-0 13593.3595732705 -0)
(-0 13593.3596065117 -0)
(-0 13593.3596397905 -0)
(-0 13593.3596730477 -0)
(-0 13593.3597063665 -0)
(-0 13593.3597397637 -0)
(-0 13593.3597732327 -0)
(-0 13593.3598067107 -0)
(-0 13593.3598402096 -0)
(-0 13593.3598738037 -0)
(-0 13593.3599074175 -0)
(-0 13593.3595162565 -0)
)
;

boundaryField
{
    dielectric_2
    {
        type            calculated;
        value           uniform (-0 13593.359108298 -0);
    }
    dielectric_1
    {
        type            calculated;
        value           nonuniform 0();
    }
    otherfaces
    {
        type            empty;
    }
    procBoundary3to2
    {
        type            processor;
        value           uniform (-0 20390.0321338679 -0);
    }
}


// ************************************************************************* //
