/*--------------------------------*- C++ -*----------------------------------*\
| =========                 |                                                 |
| \\      /  F ield         | foam-extend: Open Source CFD                    |
|  \\    /   O peration     | Version:     4.0                                |
|   \\  /    A nd           | Web:         http://www.foam-extend.org         |
|    \\/     M anipulation  |                                                 |
\*---------------------------------------------------------------------------*/
FoamFile
{
    version     2.0;
    format      ascii;
    class       volScalarField;
    location    "1e-06";
    object      Ar;
}
// * * * * * * * * * * * * * * * * * * * * * * * * * * * * * * * * * * * * * //

dimensions      [0 0 0 1 0 0 0];

internalField   nonuniform List<scalar> 
300
(
3.21880316445785e+22
3.21880316219584e+22
3.21880316414569e+22
3.21880316600014e+22
3.21880316843128e+22
3.21880317163052e+22
3.21880317556497e+22
3.21880318022838e+22
3.21880318561707e+22
3.21880319172832e+22
3.21880319855982e+22
3.21880320610871e+22
3.21880321437255e+22
3.21880322334877e+22
3.21880323303474e+22
3.21880324342771e+22
3.21880325452508e+22
3.21880326632367e+22
3.21880327882006e+22
3.21880329201077e+22
3.2188033058921e+22
3.21880332046009e+22
3.21880333571052e+22
3.21880335163891e+22
3.2188033682421e+22
3.21880338551378e+22
3.21880340344874e+22
3.21880342204163e+22
3.21880344128564e+22
3.21880346117451e+22
3.21880348170357e+22
3.21880350286529e+22
3.21880352465121e+22
3.21880354705384e+22
3.21880357006545e+22
3.21880359367805e+22
3.21880361788389e+22
3.21880364267431e+22
3.21880366804039e+22
3.21880369397334e+22
3.21880372046419e+22
3.21880374750358e+22
3.21880377508217e+22
3.21880380319047e+22
3.2188038318189e+22
3.21880386095779e+22
3.21880389059763e+22
3.21880392072881e+22
3.21880395134256e+22
3.2188039824295e+22
3.21880401398134e+22
3.21880404598731e+22
3.21880407843849e+22
3.21880411132369e+22
3.21880414463275e+22
3.21880417835482e+22
3.21880421248046e+22
3.21880424700043e+22
3.21880428190565e+22
3.21880431718747e+22
3.21880435283703e+22
3.2188043888459e+22
3.21880442520644e+22
3.21880446191273e+22
3.2188044989569e+22
3.21880453632921e+22
3.21880457402257e+22
3.21880461203024e+22
3.21880465034581e+22
3.21880468896327e+22
3.21880472787718e+22
3.21880476708311e+22
3.21880480657646e+22
3.21880484635215e+22
3.21880488640762e+22
3.21880492673931e+22
3.21880496734355e+22
3.21880500821825e+22
3.21880504935934e+22
3.21880509076841e+22
3.21880513244096e+22
3.21880517437635e+22
3.21880521657502e+22
3.21880525903746e+22
3.21880530176649e+22
3.21880534476327e+22
3.21880538802926e+22
3.21880543156771e+22
3.21880547538379e+22
3.21880551948144e+22
3.2188055638667e+22
3.21880560855035e+22
3.21880565353384e+22
3.21880569882487e+22
3.21880574443214e+22
3.21880579036523e+22
3.21880583663464e+22
3.21880588325184e+22
3.2188059302303e+22
3.21880597758339e+22
3.21880602532489e+22
3.21880607347008e+22
3.21880612203868e+22
3.21880617104534e+22
3.21880622050974e+22
3.21880627045272e+22
3.21880632089381e+22
3.21880637185727e+22
3.21880642336554e+22
3.21880647544282e+22
3.2188065281153e+22
3.21880658141048e+22
3.21880663535772e+22
3.2188066899871e+22
3.21880674533004e+22
3.21880680142081e+22
3.21880685829513e+22
3.21880691598563e+22
3.21880697452868e+22
3.21880703396282e+22
3.21880709432972e+22
3.21880715566834e+22
3.21880721802312e+22
3.21880728143571e+22
3.21880734594886e+22
3.21880741160779e+22
3.21880747846139e+22
3.21880754655503e+22
3.21880761593786e+22
3.21880768665904e+22
3.21880775876996e+22
3.21880783232155e+22
3.21880790736556e+22
3.21880798395642e+22
3.21880806215014e+22
3.21880814199757e+22
3.2188082235514e+22
3.21880830686745e+22
3.21880839200105e+22
3.21880847900475e+22
3.21880856793355e+22
3.21880865884237e+22
3.21880875178741e+22
3.21880884682453e+22
3.21880894400839e+22
3.2188090433887e+22
3.21880914501803e+22
3.21880924894843e+22
3.21880935523264e+22
3.21880946392437e+22
3.21880957507038e+22
3.21880968872014e+22
3.21880980492589e+22
3.21880992373261e+22
3.21881004518575e+22
3.21881016933254e+22
3.21881029621801e+22
3.21881042588081e+22
3.21881055835962e+22
3.21881069369246e+22
3.21881083191259e+22
3.2188109730475e+22
3.21881111711952e+22
3.2188112641368e+22
3.21881141410842e+22
3.21881156702842e+22
3.21881172276828e+22
3.21881188154473e+22
3.21881204288964e+22
3.21881220699543e+22
3.21881237348536e+22
3.21881253992387e+22
3.21881270874348e+22
3.21881287835933e+22
3.2188130481721e+22
3.21881321716784e+22
3.21881338567331e+22
3.2188135527662e+22
3.21881371754996e+22
3.21881387886272e+22
3.21881403180163e+22
3.21881417966512e+22
3.2188143155699e+22
3.2188144420487e+22
3.21881455408415e+22
3.21881465120037e+22
3.21881473631924e+22
3.21881480616399e+22
3.21881486529728e+22
3.21881491384002e+22
3.21881495048321e+22
3.2188149785165e+22
3.21881500405262e+22
3.21881502494807e+22
3.21881504083556e+22
3.21881505422585e+22
3.21881506332344e+22
3.21881506966461e+22
3.21881507442222e+22
3.21881507975546e+22
3.21881508524447e+22
3.21881509093581e+22
3.21881509653302e+22
3.21881510420992e+22
3.21881511127969e+22
3.21881511766621e+22
3.21881512355708e+22
3.21881512846523e+22
3.21881513244367e+22
3.21881513564187e+22
3.21881513811284e+22
3.21881514081524e+22
3.21881514516318e+22
3.21881514931912e+22
3.21881515306013e+22
3.21881515690092e+22
3.2188151599308e+22
3.21881516281337e+22
3.21881516501016e+22
3.21881516681221e+22
3.21881516819155e+22
3.21881516957864e+22
3.21881517041998e+22
3.21881517146965e+22
3.21881517295577e+22
3.21881517520877e+22
3.21881517734601e+22
3.21881517932088e+22
3.21881518129183e+22
3.21881518296009e+22
3.2188151844064e+22
3.2188151855706e+22
3.21881518649922e+22
3.21881518721481e+22
3.21881518801111e+22
3.21881518864112e+22
3.21881518947463e+22
3.21881519017018e+22
3.21881519104506e+22
3.21881519181193e+22
3.21881519236985e+22
3.21881519332129e+22
3.21881519452983e+22
3.21881519614286e+22
3.21881519702276e+22
3.21881519838326e+22
3.21881519923245e+22
3.21881520078501e+22
3.21881520185465e+22
3.21881520378734e+22
3.21881520509554e+22
3.21881520723247e+22
3.21881520861264e+22
3.21881521081887e+22
3.21881521209015e+22
3.21881521418818e+22
3.21881521531244e+22
3.21881521734334e+22
3.21881521841988e+22
3.21881522045398e+22
3.21881522158815e+22
3.21881522378004e+22
3.21881522506513e+22
3.21881522740364e+22
3.21881522894163e+22
3.2188152320851e+22
3.21881523419449e+22
3.21881523788616e+22
3.21881524013354e+22
3.21881524402552e+22
3.21881524630076e+22
3.21881525026304e+22
3.21881525249107e+22
3.21881525649462e+22
3.2188152586523e+22
3.21881526266013e+22
3.21881526474751e+22
3.21881526880014e+22
3.2188152709028e+22
3.21881527506815e+22
3.21881527723839e+22
3.21881528155033e+22
3.21881528383147e+22
3.21881528833378e+22
3.21881529073957e+22
3.21881529539219e+22
3.21881529785714e+22
3.21881530257124e+22
3.21881530503764e+22
3.21881530976561e+22
3.21881531221116e+22
3.21881531692318e+22
3.21881531933e+22
3.21881532400764e+22
3.21881532637181e+22
3.21881533101935e+22
3.21881533336401e+22
3.21881533801711e+22
3.21881534037766e+22
3.21881534625249e+22
)
;

boundaryField
{
    electrode
    {
        type            zeroGradient;
    }
    ground
    {
        type            zeroGradient;
    }
    otherfaces
    {
        type            empty;
    }
}


// ************************************************************************* //
