/*--------------------------------*- C++ -*----------------------------------*\
| =========                 |                                                 |
| \\      /  F ield         | foam-extend: Open Source CFD                    |
|  \\    /   O peration     | Version:     4.0                                |
|   \\  /    A nd           | Web:         http://www.foam-extend.org         |
|    \\/     M anipulation  |                                                 |
\*---------------------------------------------------------------------------*/
FoamFile
{
    version     2.0;
    format      ascii;
    class       volScalarField;
    location    "1e-06";
    object      Arm;
}
// * * * * * * * * * * * * * * * * * * * * * * * * * * * * * * * * * * * * * //

dimensions      [0 0 0 1 0 0 0];

internalField   nonuniform List<scalar> 
300
(
3.57416452353776e+15
3.57604485662217e+15
3.57799487444394e+15
3.579300595156e+15
3.58011673064128e+15
3.58049517706459e+15
3.58048015083475e+15
3.58010307766207e+15
3.579389612246e+15
3.57836174370823e+15
3.57703523769772e+15
3.57542418106211e+15
3.57354062608957e+15
3.57139517491705e+15
3.56899728416983e+15
3.56635550432537e+15
3.56347464398366e+15
3.56036329779618e+15
3.55702981053908e+15
3.55348065865654e+15
3.54972204362191e+15
3.54575988716222e+15
3.54159987929354e+15
3.53724749869515e+15
3.53269198227016e+15
3.52795115126116e+15
3.52302868471608e+15
3.51792657196617e+15
3.51265844568801e+15
3.50722920667729e+15
3.50162500975439e+15
3.49585726565614e+15
3.48994411957783e+15
3.48389093019446e+15
3.47770278378383e+15
3.47138449055185e+15
3.46493620272812e+15
3.45836444804038e+15
3.45167630364641e+15
3.44487529806967e+15
3.4379649314791e+15
3.43095048641575e+15
3.42383584141819e+15
3.41662468814886e+15
3.40932052691052e+15
3.40192662557027e+15
3.39444392320813e+15
3.38687388729832e+15
3.37920872358935e+15
3.3714470567712e+15
3.36357621157538e+15
3.35560877854133e+15
3.34753928299059e+15
3.3393855090208e+15
3.33115555468995e+15
3.32286583339243e+15
3.31451962089391e+15
3.3061198333595e+15
3.29766904645805e+15
3.2891676661431e+15
3.28062002002595e+15
3.2720282256844e+15
3.26338895638193e+15
3.2546841761234e+15
3.24591786387426e+15
3.23711569573975e+15
3.22827971870029e+15
3.21941177254677e+15
3.21051344307909e+15
3.20158609381638e+15
3.19262888744453e+15
3.1836346487573e+15
3.17460183409372e+15
3.16553794971466e+15
3.15642938127883e+15
3.14727720632253e+15
3.138087800265e+15
3.12885696299175e+15
3.11960482552256e+15
3.11030059308369e+15
3.10097905046239e+15
3.09164226865737e+15
3.0822871421782e+15
3.07291597706122e+15
3.06351387329328e+15
3.0540886105067e+15
3.04465192546871e+15
3.03520414023646e+15
3.02573327943243e+15
3.01624716522828e+15
3.00673983421695e+15
2.99716594789248e+15
2.98758109251116e+15
2.97798680054651e+15
2.96838309779763e+15
2.95877001086202e+15
2.94914732136958e+15
2.93951461763794e+15
2.92986091996308e+15
2.92018617652906e+15
2.91049667349535e+15
2.90079374792297e+15
2.89104544260193e+15
2.88128118768165e+15
2.87149168547505e+15
2.86166754080961e+15
2.85182389753491e+15
2.84194101016826e+15
2.83202937470852e+15
2.82209444760763e+15
2.81213434463825e+15
2.80214678959993e+15
2.79212401944951e+15
2.78206383320784e+15
2.77196404171652e+15
2.76180696371241e+15
2.75157362060078e+15
2.74128895065176e+15
2.73095379645285e+15
2.72056009747605e+15
2.71008134704587e+15
2.69953067390543e+15
2.68887892291552e+15
2.67813656682894e+15
2.66731506660962e+15
2.65641224662817e+15
2.64539984915008e+15
2.6342954602902e+15
2.62308817644459e+15
2.61177600233888e+15
2.60034324275884e+15
2.58878605404251e+15
2.57709947898404e+15
2.56525740863922e+15
2.55322324460953e+15
2.54101598567634e+15
2.52863958375455e+15
2.5160689238487e+15
2.50328510304661e+15
2.49029735090522e+15
2.47708963045343e+15
2.46364531676844e+15
2.44993223284172e+15
2.43591826473412e+15
2.42157872406489e+15
2.40693357246848e+15
2.39196787476226e+15
2.3766652928692e+15
2.36099529800366e+15
2.34490883722154e+15
2.32841854119139e+15
2.31149966229273e+15
2.29408973131003e+15
2.27618771996352e+15
2.25777540103144e+15
2.23880296775531e+15
2.21922709555746e+15
2.19904735786939e+15
2.17824462376944e+15
2.15677386121526e+15
2.13459944103801e+15
2.11170636119019e+15
2.08805621804418e+15
2.06366171089456e+15
2.03850987783421e+15
2.0125459108852e+15
1.98579073681491e+15
1.95828900496755e+15
1.93006962500984e+15
1.90117453853654e+15
1.87167247424338e+15
1.84159656684135e+15
1.81103915884509e+15
1.78017187776543e+15
1.74918876693194e+15
1.71825960680474e+15
1.68756356371468e+15
1.65729959624805e+15
1.62770675744864e+15
1.5989404472283e+15
1.57115494820003e+15
1.54449741041833e+15
1.519048980851e+15
1.49492471308096e+15
1.47212432692338e+15
1.4505569761558e+15
1.43026248698859e+15
1.41118912524769e+15
1.39324782601317e+15
1.37634926670288e+15
1.3603714548815e+15
1.34526733214014e+15
1.33102141243678e+15
1.3175642526198e+15
1.30491921505607e+15
1.29341735070492e+15
1.28533261878368e+15
1.28064883126798e+15
1.2772714389813e+15
1.27204633590813e+15
1.26302404427256e+15
1.25182196550976e+15
1.24071832651289e+15
1.23059272232377e+15
1.22146826421166e+15
1.21320844038176e+15
1.20558384283345e+15
1.19847813480582e+15
1.19182199136565e+15
1.18547245935804e+15
1.17932855829891e+15
1.17344450490384e+15
1.16778145558314e+15
1.16229002060452e+15
1.1569855689011e+15
1.15183796492722e+15
1.14681530108109e+15
1.14194034444198e+15
1.13718838691797e+15
1.13255014865606e+15
1.12803102821892e+15
1.12361436583264e+15
1.11930382421875e+15
1.11510547432407e+15
1.11100964265311e+15
1.10701778808503e+15
1.10313924062658e+15
1.09936100455686e+15
1.09568512808418e+15
1.09211949846109e+15
1.0886495106823e+15
1.08527694836038e+15
1.082009036784e+15
1.0788367769182e+15
1.07575530547746e+15
1.07277716145332e+15
1.06988228120027e+15
1.06708592265662e+15
1.0643729868159e+15
1.06175043853849e+15
1.05921525005461e+15
1.05675630605971e+15
1.05438536517169e+15
1.05208519310282e+15
1.04985902912052e+15
1.04771962879656e+15
1.04565066789833e+15
1.04365767341793e+15
1.04174106371341e+15
1.03989092888323e+15
1.03811242136044e+15
1.03639964023513e+15
1.03474836916795e+15
1.03316282305815e+15
1.03163569943986e+15
1.03016589405254e+15
1.02875353117124e+15
1.0273850554082e+15
1.02607125564478e+15
1.02480634586581e+15
1.02359803853081e+15
1.02243584407739e+15
1.02132488240338e+15
1.02025915184544e+15
1.01923872390106e+15
1.01826216522474e+15
1.01732450521456e+15
1.01642553764166e+15
1.01555732525597e+15
1.01472859361081e+15
1.01393419952876e+15
1.01318177982012e+15
1.01246008162699e+15
1.01177664773726e+15
1.0111209229199e+15
1.01049293986864e+15
1.00989230018335e+15
1.00932021151953e+15
1.00877974251189e+15
1.00826543335976e+15
1.00777698720322e+15
1.00730787213764e+15
1.00685402225925e+15
1.00642429855818e+15
1.00602028256211e+15
1.00563214634872e+15
1.00526590482963e+15
1.00492105534961e+15
1.00458951296861e+15
1.00426409051911e+15
1.00395598286259e+15
1.00366276829019e+15
1.00338148382946e+15
1.00309755174057e+15
1.00282473692313e+15
1.00254907821758e+15
1.0022669098728e+15
1.00196609427506e+15
1.00163536574231e+15
1.00124921153617e+15
)
;

boundaryField
{
    electrode
    {
        type            zeroGradient;
    }
    ground
    {
        type            zeroGradient;
    }
    otherfaces
    {
        type            empty;
    }
}


// ************************************************************************* //
