/*--------------------------------*- C++ -*----------------------------------*\
| =========                 |                                                 |
| \\      /  F ield         | foam-extend: Open Source CFD                    |
|  \\    /   O peration     | Version:     4.0                                |
|   \\  /    A nd           | Web:         http://www.foam-extend.org         |
|    \\/     M anipulation  |                                                 |
\*---------------------------------------------------------------------------*/
FoamFile
{
    version     2.0;
    format      ascii;
    class       volScalarField;
    location    "1e-06";
    object      Arp1;
}
// * * * * * * * * * * * * * * * * * * * * * * * * * * * * * * * * * * * * * //

dimensions      [0 0 0 1 0 0 0];

internalField   nonuniform List<scalar> 
300
(
6.08777730761667e+16
6.0901086826577e+16
6.08853944708255e+16
6.08747909644809e+16
6.08623904392192e+16
6.08462159889375e+16
6.08265498648094e+16
6.08034203041382e+16
6.07768345892848e+16
6.07467934158112e+16
6.07132991315588e+16
6.06763601002398e+16
6.06359823283198e+16
6.05921729353024e+16
6.05449404393685e+16
6.04942942123714e+16
6.04402446721784e+16
6.03828034036105e+16
6.03219831970012e+16
6.02577980973436e+16
6.01902634738412e+16
6.01193960711131e+16
6.00452140251557e+16
5.99677369779811e+16
5.98869859997543e+16
5.98029837337066e+16
5.97157543242557e+16
5.9625323484037e+16
5.95317184530605e+16
5.94349680581456e+16
5.93351026125105e+16
5.92321539738482e+16
5.91261554790768e+16
5.90171418937247e+16
5.8905149401983e+16
5.87902155292519e+16
5.86723790856996e+16
5.85516801098032e+16
5.8428159785114e+16
5.83018603729907e+16
5.81728251132304e+16
5.80410981610342e+16
5.79067244672334e+16
5.77697497065097e+16
5.76302201657576e+16
5.74881826493211e+16
5.73436843705167e+16
5.71967728706819e+16
5.70474958559447e+16
5.6895901205795e+16
5.67420366959765e+16
5.65859501112035e+16
5.64276889112986e+16
5.6267300338152e+16
5.61048311517273e+16
5.59403276372606e+16
5.57738354510154e+16
5.56053995452505e+16
5.54350640737429e+16
5.52628722809041e+16
5.50888664605059e+16
5.49130877763271e+16
5.4735576293214e+16
5.4556370792801e+16
5.43755087194564e+16
5.41930261515324e+16
5.40089576220931e+16
5.38233361173981e+16
5.36361929820495e+16
5.34475577965953e+16
5.32574583544852e+16
5.30659205703548e+16
5.28729683476918e+16
5.26786235899488e+16
5.24829060605494e+16
5.22858332537593e+16
5.20874205205553e+16
5.18876805975774e+16
5.16866240480992e+16
5.14842586039082e+16
5.12805895463698e+16
5.10756193538337e+16
5.08693476266875e+16
5.0661771127533e+16
5.04528834985631e+16
5.02426752947383e+16
5.00311337939053e+16
4.98182429206316e+16
4.96039831650488e+16
4.9388331291196e+16
4.917126057479e+16
4.89527401835383e+16
4.87327355347804e+16
4.85112078352132e+16
4.82881140678728e+16
4.80634068922145e+16
4.78370344159587e+16
4.76089401298378e+16
4.73790627188202e+16
4.71473359994915e+16
4.69136886014138e+16
4.66780441351263e+16
4.644032068251e+16
4.62004309580868e+16
4.59582820861473e+16
4.5713775324996e+16
4.54668062425622e+16
4.521726429962e+16
4.49650329221913e+16
4.47099893731878e+16
4.44520045897736e+16
4.41909431772797e+16
4.39266633523301e+16
4.36590167807349e+16
4.33878486912193e+16
4.31129977552804e+16
4.2834296071076e+16
4.25515693246226e+16
4.22646365690669e+16
4.19733106523094e+16
4.16773978658093e+16
4.13766984903646e+16
4.10710065932698e+16
4.07601104140914e+16
4.04437924010604e+16
4.01218296185054e+16
3.97939937676025e+16
3.94600516967476e+16
3.91197655682177e+16
3.87728932660742e+16
3.8419188720926e+16
3.80584024549091e+16
3.7690281741932e+16
3.73145714194656e+16
3.6931014063566e+16
3.65393507135748e+16
3.61393212652664e+16
3.57306651625792e+16
3.53131218507166e+16
3.48864314390845e+16
3.44503352791128e+16
3.40045766957717e+16
3.35489013499481e+16
3.30830582733947e+16
3.26068002750272e+16
3.21198845524216e+16
3.16220738078645e+16
3.1113136600728e+16
3.05928481014723e+16
3.00609916337941e+16
2.95173586283223e+16
2.89617505623589e+16
2.83939799952664e+16
2.78138718266168e+16
2.72212658570003e+16
2.66160185583696e+16
2.59980060544786e+16
2.53671305551108e+16
2.47233186876908e+16
2.40665368670119e+16
2.33967978076335e+16
2.27141597620379e+16
2.20187648966333e+16
2.13108534696651e+16
2.05906880086791e+16
1.9858723735088e+16
1.91165652580412e+16
1.83623228622144e+16
1.76009404386688e+16
1.68307259986654e+16
1.6055665297349e+16
1.53005404179081e+16
1.45415641712927e+16
1.37948475661905e+16
1.30660838001452e+16
1.23642602291926e+16
1.16834747112062e+16
1.10280592103431e+16
1.03991567058959e+16
9.79739827929158e+15
9.25776385636139e+15
8.73072877745913e+15
8.26720781407564e+15
7.8242196647444e+15
7.43676504291376e+15
7.09894847826865e+15
6.77661200905952e+15
6.50404400010272e+15
6.24311935452802e+15
6.00460642888381e+15
5.81653073229317e+15
5.66129175289019e+15
5.49180404905538e+15
5.34140883116317e+15
5.22260796079803e+15
5.11699889808341e+15
5.04467504338811e+15
4.99264743320982e+15
4.95242833469338e+15
4.90642210668318e+15
4.8616224635161e+15
4.81646224188588e+15
4.77188813779008e+15
4.70540629955343e+15
4.64392228022054e+15
4.58836498164816e+15
4.53710461081578e+15
4.49513850482067e+15
4.46201221037832e+15
4.43637768103453e+15
4.41780803906285e+15
4.39666409686509e+15
4.35884444580646e+15
4.32277491079241e+15
4.29066936476219e+15
4.25741131607553e+15
4.2321397071482e+15
4.20819561370654e+15
4.19098862255676e+15
4.17761747435178e+15
4.16835633176485e+15
4.15891709298676e+15
4.15483084753504e+15
4.14855076810494e+15
4.13780502785835e+15
4.11928759996719e+15
4.1018154791438e+15
4.08586746081803e+15
4.06985697883794e+15
4.05676349720617e+15
4.04579421467715e+15
4.03754879031535e+15
4.0315545437261e+15
4.02759480417972e+15
4.02273700202124e+15
4.01943865015457e+15
4.01402159951361e+15
4.0098852811151e+15
4.00387179317682e+15
3.99884752382442e+15
3.99582482294688e+15
3.98879018135444e+15
3.97909602856611e+15
3.96528553416151e+15
3.95873168556559e+15
3.94728450415609e+15
3.94087944672293e+15
3.92736413880125e+15
3.9186009986328e+15
3.90114033507594e+15
3.88985231922884e+15
3.8702107342906e+15
3.8580747024898e+15
3.8376117901193e+15
3.82643946278358e+15
3.8069418030254e+15
3.79712388366184e+15
3.77819522600465e+15
3.76875496787286e+15
3.7496898221424e+15
3.73956697959075e+15
3.71882041087068e+15
3.70709016327668e+15
3.68478015034425e+15
3.6704297081226e+15
3.63998024000909e+15
3.61983229074391e+15
3.58382264561128e+15
3.56222474598402e+15
3.52414111840322e+15
3.50219021796531e+15
3.46332673265946e+15
3.44177485299755e+15
3.40242923420807e+15
3.3815142837835e+15
3.3420699550843e+15
3.32180260823133e+15
3.28185404033161e+15
3.2613732138951e+15
3.22023931879176e+15
3.19903036439154e+15
3.15638484098247e+15
3.1340319778479e+15
3.08944313496578e+15
3.06579357791378e+15
3.0196596811277e+15
2.9953804966532e+15
2.94858830701868e+15
2.92425956559905e+15
2.87730897510252e+15
2.85316503988264e+15
2.8063413600166e+15
2.78255755226168e+15
2.73606811063822e+15
2.71270193399869e+15
2.6665046651399e+15
2.64334225428392e+15
2.59711357756392e+15
2.5738393100696e+15
2.51547598884482e+15
)
;

boundaryField
{
    electrode
    {
        type            driftDiffusionPositiveIonDensity;
        seec            0;
        fieldName       Arp1;
        value           uniform 6.07988817741736e+16;
    }
    ground
    {
        type            driftDiffusionPositiveIonDensity;
        seec            0;
        fieldName       Arp1;
        value           uniform 2.51547598884482e+15;
    }
    otherfaces
    {
        type            empty;
    }
}


// ************************************************************************* //
