/*--------------------------------*- C++ -*----------------------------------*\
| =========                 |                                                 |
| \\      /  F ield         | foam-extend: Open Source CFD                    |
|  \\    /   O peration     | Version:     4.0                                |
|   \\  /    A nd           | Web:         http://www.foam-extend.org         |
|    \\/     M anipulation  |                                                 |
\*---------------------------------------------------------------------------*/
FoamFile
{
    version     2.0;
    format      ascii;
    class       volVectorField;
    location    "1e-06";
    object      E;
}
// * * * * * * * * * * * * * * * * * * * * * * * * * * * * * * * * * * * * * //

dimensions      [0 0 0 1 0 0 0];

internalField   nonuniform List<vector> 
300
(
(3.83775707463175 -0 -0)
(8.70702560051837 -0 -0)
(14.8320397963531 -0 -0)
(20.8945537122365 -0 -0)
(26.8561545793683 -0 -0)
(32.8187878997913 -0 -0)
(38.784593603403 -0 -0)
(44.7508037335056 -0 -0)
(50.7173062422323 -0 -0)
(56.6841765733966 -0 -0)
(62.6511580614763 -0 -0)
(68.6178307590664 -0 -0)
(74.5837447052596 -0 -0)
(80.5483282406689 -0 -0)
(86.5108821412894 -0 -0)
(92.4705947272241 -0 -0)
(98.4265376993678 -0 -0)
(104.377665098577 -0 -0)
(110.322816619658 -0 -0)
(116.260721279291 -0 -0)
(122.190002391222 -0 -0)
(128.109183927806 -0 -0)
(134.01669734375 -0 -0)
(139.910890585572 -0 -0)
(145.790037155149 -0 -0)
(151.652345885264 -0 -0)
(157.49597252618 -0 -0)
(163.319030682675 -0 -0)
(169.119603463104 -0 -0)
(174.895756356599 -0 -0)
(180.645549306709 -0 -0)
(186.367048818321 -0 -0)
(192.058341214071 -0 -0)
(197.717544482577 -0 -0)
(203.342820277689 -0 -0)
(208.932386087956 -0 -0)
(214.484526335511 -0 -0)
(219.997603197141 -0 -0)
(225.470067037626 -0 -0)
(230.900466143014 -0 -0)
(236.287455647418 -0 -0)
(241.62980598044 -0 -0)
(246.926410664452 -0 -0)
(252.176293109813 -0 -0)
(257.378613063877 -0 -0)
(262.53267219753 -0 -0)
(267.637918918652 -0 -0)
(272.693952968499 -0 -0)
(277.700528597575 -0 -0)
(282.657558459075 -0 -0)
(287.565115503238 -0 -0)
(292.423435603623 -0 -0)
(297.23291939809 -0 -0)
(301.994133292158 -0 -0)
(306.707811398329 -0 -0)
(311.374855799179 -0 -0)
(315.996337958732 -0 -0)
(320.573499341979 -0 -0)
(325.10775230248 -0 -0)
(329.600680769347 -0 -0)
(334.054041990805 -0 -0)
(338.469766938896 -0 -0)
(342.84996219967 -0 -0)
(347.196912599302 -0 -0)
(351.513081979433 -0 -0)
(355.801117198108 -0 -0)
(360.063851163925 -0 -0)
(364.304305734624 -0 -0)
(368.525697300205 -0 -0)
(372.731441149222 -0 -0)
(376.925156790534 -0 -0)
(381.11067549311 -0 -0)
(385.292046350998 -0 -0)
(389.473544377882 -0 -0)
(393.65968026593 -0 -0)
(397.855208016144 -0 -0)
(402.065137758348 -0 -0)
(406.294744514961 -0 -0)
(410.549582113879 -0 -0)
(414.835496387237 -0 -0)
(419.158636591523 -0 -0)
(423.525474195539 -0 -0)
(427.942815346609 -0 -0)
(432.417818851991 -0 -0)
(436.958014513087 -0 -0)
(441.571320475196 -0 -0)
(446.266063265693 -0 -0)
(451.050998163993 -0 -0)
(455.935331526621 -0 -0)
(460.928740309053 -0 -0)
(466.041398522513 -0 -0)
(471.283999842107 -0 -0)
(476.66778083826 -0 -0)
(482.204550431067 -0 -0)
(487.906713368583 -0 -0)
(493.787299045471 -0 -0)
(499.859990270357 -0 -0)
(506.139151444547 -0 -0)
(512.639859075231 -0 -0)
(519.37793363604 -0 -0)
(526.369968890834 -0 -0)
(533.633366915701 -0 -0)
(541.186371191877 -0 -0)
(549.048098440086 -0 -0)
(557.238578397011 -0 -0)
(565.778786512702 -0 -0)
(574.690682758513 -0 -0)
(583.997251923983 -0 -0)
(593.722541035515 -0 -0)
(603.891703634829 -0 -0)
(614.531042515744 -0 -0)
(625.668054386815 -0 -0)
(637.331480028571 -0 -0)
(649.551353400287 -0 -0)
(662.35905553248 -0 -0)
(675.78737398114 -0 -0)
(689.870562546675 -0 -0)
(704.644410171103 -0 -0)
(720.146312078861 -0 -0)
(736.415351299055 -0 -0)
(753.492385094451 -0 -0)
(771.420140786694 -0 -0)
(790.243325826727 -0 -0)
(810.008745244602 -0 -0)
(830.765435465118 -0 -0)
(852.564816465712 -0 -0)
(875.460860055928 -0 -0)
(899.510280040309 -0 -0)
(924.772751009867 -0 -0)
(951.311152290573 -0 -0)
(979.191846043972 -0 -0)
(1008.48499750708 -0 -0)
(1039.26493379021 -0 -0)
(1071.61055677408 -0 -0)
(1105.60581690634 -0 -0)
(1141.34024966081 -0 -0)
(1178.90959278448 -0 -0)
(1218.41649457235 -0 -0)
(1259.97132601072 -0 -0)
(1303.69311081958 -0 -0)
(1349.71059848205 -0 -0)
(1398.1635032455 -0 -0)
(1449.20392416396 -0 -0)
(1502.99799365916 -0 -0)
(1559.72779008626 -0 -0)
(1619.5935386234 -0 -0)
(1682.81618891392 -0 -0)
(1749.64041484165 -0 -0)
(1820.33809546755 -0 -0)
(1895.21242641173 -0 -0)
(1974.60272682048 -0 -0)
(2058.89009139105 -0 -0)
(2148.50410098797 -0 -0)
(2243.93074855939 -0 -0)
(2345.72188801778 -0 -0)
(2454.50651340126 -0 -0)
(2571.00427262813 -0 -0)
(2696.04184277104 -0 -0)
(2830.57243086638 -0 -0)
(2975.69971552286 -0 -0)
(3132.70734793806 -0 -0)
(3303.09402674678 -0 -0)
(3488.61773915612 -0 -0)
(3691.34997111947 -0 -0)
(3913.73434931634 -0 -0)
(4158.6860310295 -0 -0)
(4429.73524829909 -0 -0)
(4730.9632630116 -0 -0)
(5067.44867466626 -0 -0)
(5445.55718876327 -0 -0)
(5873.79811632971 -0 -0)
(6365.5177916199 -0 -0)
(6935.98290110174 -0 -0)
(7601.24908406678 -0 -0)
(8381.3520897349 -0 -0)
(9299.6807062992 -0 -0)
(10380.1677121273 -0 -0)
(11645.2441952392 -0 -0)
(13115.1179372072 -0 -0)
(14806.712200721 -0 -0)
(16736.5887952566 -0 -0)
(18911.1094577483 -0 -0)
(21327.2835730904 -0 -0)
(23972.3907528838 -0 -0)
(26823.3672215016 -0 -0)
(29854.535331997 -0 -0)
(33025.8870517175 -0 -0)
(36295.6377815172 -0 -0)
(39621.9539654104 -0 -0)
(42963.5036474802 -0 -0)
(46297.1730128561 -0 -0)
(49610.3681449399 -0 -0)
(52883.1110484266 -0 -0)
(56094.6561680341 -0 -0)
(59248.3062232688 -0 -0)
(62350.9827684554 -0 -0)
(65407.2785514608 -0 -0)
(68429.5606732596 -0 -0)
(71425.1864570797 -0 -0)
(74395.7567549986 -0 -0)
(77340.1818850101 -0 -0)
(80257.894909491 -0 -0)
(83148.7145673339 -0 -0)
(86006.1204795382 -0 -0)
(88824.9827939175 -0 -0)
(91608.5725764316 -0 -0)
(94359.9654740258 -0 -0)
(97083.2558620403 -0 -0)
(99783.900937596 -0 -0)
(102466.819219454 -0 -0)
(105136.402455377 -0 -0)
(107794.007741893 -0 -0)
(110433.832024772 -0 -0)
(113051.371402125 -0 -0)
(115648.34986014 -0 -0)
(118225.618620032 -0 -0)
(120785.236563574 -0 -0)
(123330.013471371 -0 -0)
(125862.382107705 -0 -0)
(128385.532187454 -0 -0)
(130901.863007965 -0 -0)
(133412.561961111 -0 -0)
(135919.190804811 -0 -0)
(138422.704654719 -0 -0)
(140921.096204969 -0 -0)
(143410.675228748 -0 -0)
(145889.413653185 -0 -0)
(148358.086599751 -0 -0)
(150817.135153359 -0 -0)
(153267.41938022 -0 -0)
(155710.459125857 -0 -0)
(158147.716553767 -0 -0)
(160580.692191798 -0 -0)
(163010.679575588 -0 -0)
(165438.022463296 -0 -0)
(167862.920666551 -0 -0)
(170285.205817431 -0 -0)
(172704.625001651 -0 -0)
(175120.998075348 -0 -0)
(177534.055901574 -0 -0)
(179944.700772794 -0 -0)
(182352.32337974 -0 -0)
(184754.911222333 -0 -0)
(187150.423214306 -0 -0)
(189539.80425621 -0 -0)
(191923.767639095 -0 -0)
(194302.360235525 -0 -0)
(196674.956999445 -0 -0)
(199040.847017293 -0 -0)
(201398.842066726 -0 -0)
(203748.17882411 -0 -0)
(206088.198677087 -0 -0)
(208418.64506512 -0 -0)
(210739.269352467 -0 -0)
(213050.361220817 -0 -0)
(215352.211270608 -0 -0)
(217645.227958218 -0 -0)
(219929.582717489 -0 -0)
(222205.389656044 -0 -0)
(224472.60739704 -0 -0)
(226731.030915519 -0 -0)
(228980.152358705 -0 -0)
(231219.486398342 -0 -0)
(233448.563080521 -0 -0)
(235666.594386179 -0 -0)
(237871.119128592 -0 -0)
(240060.388881564 -0 -0)
(242232.732617185 -0 -0)
(244387.709663884 -0 -0)
(246524.693958923 -0 -0)
(248643.578392909 -0 -0)
(250744.127342067 -0 -0)
(252826.460827434 -0 -0)
(254890.433224126 -0 -0)
(256936.236314671 -0 -0)
(258963.84018718 -0 -0)
(260973.440152476 -0 -0)
(262964.884341618 -0 -0)
(264938.108754268 -0 -0)
(266892.755478875 -0 -0)
(268828.605271773 -0 -0)
(270745.202131559 -0 -0)
(272642.200821075 -0 -0)
(274519.015925798 -0 -0)
(276375.255813074 -0 -0)
(278210.454094973 -0 -0)
(280024.42047065 -0 -0)
(281816.956108024 -0 -0)
(283588.045697603 -0 -0)
(285337.641270312 -0 -0)
(287065.798387609 -0 -0)
(288772.555056357 -0 -0)
(290458.019692556 -0 -0)
(292122.292976005 -0 -0)
(293765.500608229 -0 -0)
(295387.730588934 -0 -0)
(296989.043664298 -0 -0)
(298569.430483794 -0 -0)
(300128.880488013 -0 -0)
(301663.691574982 -0 -0)
)
;

boundaryField
{
    electrode
    {
        type            calculated;
        value           uniform (2.01270203660897 -0 -0);
    }
    ground
    {
        type            calculated;
        value           uniform (302422.275859312 -0 -0);
    }
    otherfaces
    {
        type            empty;
    }
}


// ************************************************************************* //
