/*--------------------------------*- C++ -*----------------------------------*\
| =========                 |                                                 |
| \\      /  F ield         | foam-extend: Open Source CFD                    |
|  \\    /   O peration     | Version:     4.0                                |
|   \\  /    A nd           | Web:         http://www.foam-extend.org         |
|    \\/     M anipulation  |                                                 |
\*---------------------------------------------------------------------------*/
FoamFile
{
    version     2.0;
    format      ascii;
    class       volScalarField;
    location    "1e-06";
    object      electron;
}
// * * * * * * * * * * * * * * * * * * * * * * * * * * * * * * * * * * * * * //

dimensions      [0 0 0 1 0 0 0];

internalField   nonuniform List<scalar> 
300
(
6.08828223704885e+16
6.08802484504545e+16
6.08744923794636e+16
6.08652457126389e+16
6.0852518745102e+16
6.08363224844483e+16
6.08166591764692e+16
6.0793531829331e+16
6.07669442736529e+16
6.07369009587661e+16
6.07034069954631e+16
6.06664682742625e+16
6.06260915196701e+16
6.05822843371793e+16
6.05350552812608e+16
6.04844139198845e+16
6.04303708965327e+16
6.03729379923896e+16
6.03121281867249e+16
6.02479557143015e+16
6.01804361191866e+16
6.01095863041256e+16
6.00354245749022e+16
5.99579706789252e+16
5.9877245837392e+16
5.97932727707813e+16
5.97060757170106e+16
5.96156804419578e+16
5.95221142423374e+16
5.94254059404937e+16
5.93255858710649e+16
5.92226858597834e+16
5.91167391942284e+16
5.90077805867208e+16
5.8895846129806e+16
5.87809732443993e+16
5.86632006209993e+16
5.85425681544682e+16
5.841911687274e+16
5.82928888599268e+16
5.81639271743861e+16
5.80322757622758e+16
5.78979793670739e+16
5.77610834356747e+16
5.76216340215853e+16
5.74796776857135e+16
5.73352613953363e+16
5.71884324216582e+16
5.70392382365383e+16
5.688772640871e+16
5.67339444999527e+16
5.65779399616629e+16
5.64197600319566e+16
5.62594516338209e+16
5.60970612743837e+16
5.59326349455798e+16
5.5766218026421e+16
5.559785518686e+16
5.54275902934379e+16
5.52554663167538e+16
5.50815252406185e+16
5.49058079729855e+16
5.47283542586784e+16
5.45492025934352e+16
5.4368390139556e+16
5.41859526428728e+16
5.40019243505613e+16
5.38163379300778e+16
5.36292243886779e+16
5.34406129932307e+16
5.32505311904324e+16
5.30590045267618e+16
5.28660565680717e+16
5.26717088187699e+16
5.24759806398364e+16
5.22788891659011e+16
5.20804492207914e+16
5.18806732314196e+16
5.16795711399451e+16
5.14771503133497e+16
5.12734154511838e+16
5.10683684904386e+16
5.08620085075519e+16
5.06543316179488e+16
5.04453308721151e+16
5.02349961486565e+16
5.00233140442431e+16
4.98102677601942e+16
4.95958369855721e+16
4.93799977773519e+16
4.91627224372793e+16
4.89439793852247e+16
4.8723733030229e+16
4.8501943638367e+16
4.8278567198012e+16
4.80535552832497e+16
4.78268549150641e+16
4.75984084211912e+16
4.73681532950791e+16
4.71360220540906e+16
4.69019420980982e+16
4.66658355688668e+16
4.64276192105223e+16
4.61872042328963e+16
4.59444961776527e+16
4.56993947883552e+16
4.54517938860693e+16
4.52015812505241e+16
4.49486385087446e+16
4.46928410320945e+16
4.44340578425753e+16
4.41721515302947e+16
4.39069781828146e+16
4.36383873278241e+16
4.33662218908635e+16
4.30903181687818e+16
4.28105058206749e+16
4.2526607877535e+16
4.2238440771768e+16
4.19458143877889e+16
4.16485321346408e+16
4.13463910421385e+16
4.10391818807116e+16
4.0726689305877e+16
4.04086920283085e+16
4.00849630091168e+16
3.97552696805504e+16
3.94193741923348e+16
3.90770336825374e+16
3.87280005721257e+16
3.83720228824472e+16
3.80088445732086e+16
3.7638205899131e+16
3.72598437830428e+16
3.68734922014194e+16
3.64788825791338e+16
3.60757441894505e+16
3.56638045538764e+16
3.52427898363536e+16
3.4812425226137e+16
3.43724353026695e+16
3.39225443742863e+16
3.34624767836167e+16
3.29919571715205e+16
3.25107106890012e+16
3.20184631493708e+16
3.15149411108404e+16
3.09998718775542e+16
3.04729834124681e+16
2.99340041512002e+16
2.93826627064306e+16
2.88186874591804e+16
2.82418060290473e+16
2.7651744620969e+16
2.70482272520103e+16
2.64309748644931e+16
2.57997043452294e+16
2.51541274698802e+16
2.44939498353373e+16
2.38188698568916e+16
2.31285778785835e+16
2.24227556130189e+16
2.1701076148085e+16
2.09632047354911e+16
2.02088013030187e+16
1.94375247299622e+16
1.86490348274757e+16
1.78430094198288e+16
1.70191568607576e+16
1.61772031819222e+16
1.53168612842816e+16
1.44376714579544e+16
1.35390033910335e+16
1.26204235321319e+16
1.16820379712458e+16
1.07248297512221e+16
9.75125496414293e+15
8.76600649136986e+15
7.77666874346929e+15
6.79407515160324e+15
5.83212106918367e+15
4.90720051460738e+15
4.03715038299223e+15
3.2395088167377e+15
2.52944772313266e+15
1.91771016106282e+15
1.40919307968954e+15
1.00242501270816e+15
689991566009217
460003699925003
297647118412960
187673216105640
116056882939899
70962011804414
43537738729665.2
26747283161326.1
16180427353803.8
9481224783513.86
5502583982652.6
3402312925753.84
2334555176791.64
1783670681312.53
1489403191195.02
1327965980239.26
1238749290102.85
1190727167044.7
1167044608601.01
1157379235572.54
1155373947968.64
1157444222552.57
1161302859401.59
1165354131190.8
1168574883104.74
1170213639697.83
1170074473681.1
1167822584257.63
1163337855049.3
1156596348152.12
1147643909723.53
1136571272688.98
1123473110848.59
1108476708596.53
1091758056858.06
1073503267095.79
1053905148507.02
1033157102445.09
1011449323843.89
988964516017.619
965875212541.507
942342396825.221
918514389725.936
894526339008.841
870500191466.147
846544937141.97
822757241003.348
799222130966.945
776013619303.828
753195370117.382
730821307050.58
708936288203.937
687576612225.552
666770856968.162
646540692663.506
626902116620.611
607859131353.821
589408555635.891
571550756480.373
554285815482.117
537610801280.926
521520093931.992
506005614164.613
491057132139.121
476662570284.237
462808290208.967
449479464947.8
436660103843.749
424335277285.231
412487362425.744
401094976162.446
390141028645.253
379610191771.146
369485522242.88
359750470813.912
350388859190.877
341385071066.943
332724233176.377
324392272207.363
316375831037.392
308661959315.004
301237978671.893
294087528457.623
287190556568.576
280532222159.611
274103131233.4
267894897949.139
261899996790.833
256111510906.587
250523154041.792
245129300239.637
239925023229.41
234906116612.312
230068956430.817
225409828798.7
220920696406.473
216576800210.277
212362805010.744
208287221444.563
204361070962.567
200596468163.59
196989881936.933
193519672314.951
190192295910.011
187050573542.107
184095913089.57
181349296576.646
178886537044.18
176817679584.231
175377713485.797
174864628267.206
176008769549.336
)
;

boundaryField
{
    electrode
    {
        type            driftDiffusionElectronDensity;
        seec            0.05;
        Edepend         1;
        field_emission  0;
        field_enhancement_factor 55;
        work_function   5;
        value           uniform 6.08828223704885e+16;
    }
    ground
    {
        type            driftDiffusionElectronDensity;
        seec            0.05;
        Edepend         1;
        field_emission  0;
        field_enhancement_factor 55;
        work_function   5;
        value           uniform 177849709426.688;
    }
    otherfaces
    {
        type            empty;
    }
}


// ************************************************************************* //
