/*--------------------------------*- C++ -*----------------------------------*\
| =========                 |                                                 |
| \\      /  F ield         | foam-extend: Open Source CFD                    |
|  \\    /   O peration     | Version:     4.0                                |
|   \\  /    A nd           | Web:         http://www.foam-extend.org         |
|    \\/     M anipulation  |                                                 |
\*---------------------------------------------------------------------------*/
FoamFile
{
    version     2.0;
    format      ascii;
    class       volVectorField;
    location    "1e-06";
    object      J_Arp1;
}
// * * * * * * * * * * * * * * * * * * * * * * * * * * * * * * * * * * * * * //

dimensions      [1 -1 -1 0 0 0 0];

internalField   nonuniform List<vector> 
300
(
(1.65077579833645e+16 -0 -0)
(5.30940518727275e+16 -0 -0)
(9.15906110042606e+16 -0 -0)
(1.28027410544634e+17 -0 -0)
(1.64462450922207e+17 -0 -0)
(2.00932626316695e+17 -0 -0)
(2.3736756585447e+17 -0 -0)
(2.73754992165402e+17 -0 -0)
(3.10089148687775e+17 -0 -0)
(3.46364523375412e+17 -0 -0)
(3.82573118518621e+17 -0 -0)
(4.18706158870778e+17 -0 -0)
(4.54754892546911e+17 -0 -0)
(4.90709725392897e+17 -0 -0)
(5.26560352235098e+17 -0 -0)
(5.6229585678137e+17 -0 -0)
(5.97904671460517e+17 -0 -0)
(6.33374588424109e+17 -0 -0)
(6.68692793630635e+17 -0 -0)
(7.03845899715676e+17 -0 -0)
(7.38819988559467e+17 -0 -0)
(7.73600664527049e+17 -0 -0)
(8.08173105749263e+17 -0 -0)
(8.42522135956686e+17 -0 -0)
(8.76632289266528e+17 -0 -0)
(9.10487882977641e+17 -0 -0)
(9.44073101074041e+17 -0 -0)
(9.77372071112354e+17 -0 -0)
(1.01036894460553e+18 -0 -0)
(1.0430479875102e+18 -0 -0)
(1.07539366013909e+18 -0 -0)
(1.10739069749594e+18 -0 -0)
(1.13902419869723e+18 -0 -0)
(1.17027970067426e+18 -0 -0)
(1.2011432553902e+18 -0 -0)
(1.23160150609251e+18 -0 -0)
(1.26164175356896e+18 -0 -0)
(1.29125202111115e+18 -0 -0)
(1.32042111445873e+18 -0 -0)
(1.34913867661401e+18 -0 -0)
(1.37739523488139e+18 -0 -0)
(1.40518224531826e+18 -0 -0)
(1.43249213009146e+18 -0 -0)
(1.45931830799435e+18 -0 -0)
(1.48565522173323e+18 -0 -0)
(1.51149835821034e+18 -0 -0)
(1.53684426224983e+18 -0 -0)
(1.5616905511232e+18 -0 -0)
(1.58603591199171e+18 -0 -0)
(1.60988011470817e+18 -0 -0)
(1.6332239959747e+18 -0 -0)
(1.65606946362119e+18 -0 -0)
(1.67841948094881e+18 -0 -0)
(1.70027805514943e+18 -0 -0)
(1.72165022592366e+18 -0 -0)
(1.74254204384062e+18 -0 -0)
(1.76296055697616e+18 -0 -0)
(1.78291378936061e+18 -0 -0)
(1.80241072337357e+18 -0 -0)
(1.82146127645319e+18 -0 -0)
(1.84007628990851e+18 -0 -0)
(1.85826749989838e+18 -0 -0)
(1.87604752582377e+18 -0 -0)
(1.89342985801246e+18 -0 -0)
(1.9104288298243e+18 -0 -0)
(1.92705961825772e+18 -0 -0)
(1.9433382274777e+18 -0 -0)
(1.95928147488391e+18 -0 -0)
(1.9749069953224e+18 -0 -0)
(1.99023322941177e+18 -0 -0)
(2.00527942117071e+18 -0 -0)
(2.02006562912299e+18 -0 -0)
(2.03461271869099e+18 -0 -0)
(2.04894237359195e+18 -0 -0)
(2.0630771137992e+18 -0 -0)
(2.07704028555476e+18 -0 -0)
(2.0908561098563e+18 -0 -0)
(2.10454965933274e+18 -0 -0)
(2.11814691494068e+18 -0 -0)
(2.13167476784759e+18 -0 -0)
(2.14516103757473e+18 -0 -0)
(2.15863452439703e+18 -0 -0)
(2.17212500530706e+18 -0 -0)
(2.18566328271944e+18 -0 -0)
(2.19928121005265e+18 -0 -0)
(2.2130117181971e+18 -0 -0)
(2.22688884963466e+18 -0 -0)
(2.24094778630642e+18 -0 -0)
(2.25522489469144e+18 -0 -0)
(2.26975772219868e+18 -0 -0)
(2.28458507069874e+18 -0 -0)
(2.29974698930344e+18 -0 -0)
(2.31528480716959e+18 -0 -0)
(2.33124117225322e+18 -0 -0)
(2.34766004665112e+18 -0 -0)
(2.36458673801528e+18 -0 -0)
(2.38206790648717e+18 -0 -0)
(2.4001515676121e+18 -0 -0)
(2.41888709209496e+18 -0 -0)
(2.43832521283899e+18 -0 -0)
(2.45851798241538e+18 -0 -0)
(2.47951878615641e+18 -0 -0)
(2.50138229151976e+18 -0 -0)
(2.52416440178732e+18 -0 -0)
(2.54792223912213e+18 -0 -0)
(2.5727140444357e+18 -0 -0)
(2.59859913366829e+18 -0 -0)
(2.62563780842051e+18 -0 -0)
(2.65389124653508e+18 -0 -0)
(2.68342141136044e+18 -0 -0)
(2.71429091585538e+18 -0 -0)
(2.74656288112192e+18 -0 -0)
(2.78030080025865e+18 -0 -0)
(2.81556835078852e+18 -0 -0)
(2.85242922013861e+18 -0 -0)
(2.89094691476862e+18 -0 -0)
(2.93118452655046e+18 -0 -0)
(2.9732045313419e+18 -0 -0)
(3.01706851297328e+18 -0 -0)
(3.06283694671782e+18 -0 -0)
(3.11056889222623e+18 -0 -0)
(3.16032173677016e+18 -0 -0)
(3.21215089896544e+18 -0 -0)
(3.26610952997357e+18 -0 -0)
(3.32224819694146e+18 -0 -0)
(3.38061459771362e+18 -0 -0)
(3.4412532246035e+18 -0 -0)
(3.50420506535044e+18 -0 -0)
(3.56950730004853e+18 -0 -0)
(3.63719299851054e+18 -0 -0)
(3.70729082296681e+18 -0 -0)
(3.77982478914584e+18 -0 -0)
(3.85481396982654e+18 -0 -0)
(3.93227230430685e+18 -0 -0)
(4.01220838303503e+18 -0 -0)
(4.09462528869777e+18 -0 -0)
(4.17952045874569e+18 -0 -0)
(4.26688562054337e+18 -0 -0)
(4.35670674789229e+18 -0 -0)
(4.44896407657773e+18 -0 -0)
(4.54363217773889e+18 -0 -0)
(4.64068013100124e+18 -0 -0)
(4.74007166374835e+18 -0 -0)
(4.84176547834366e+18 -0 -0)
(4.94571559402153e+18 -0 -0)
(5.05187168700277e+18 -0 -0)
(5.16017966730504e+18 -0 -0)
(5.27058219941945e+18 -0 -0)
(5.38301921411436e+18 -0 -0)
(5.49742877520673e+18 -0 -0)
(5.6137476049751e+18 -0 -0)
(5.73191191297699e+18 -0 -0)
(5.85185820315489e+18 -0 -0)
(5.97352390145622e+18 -0 -0)
(6.09684822783898e+18 -0 -0)
(6.22177273331434e+18 -0 -0)
(6.34824165310326e+18 -0 -0)
(6.47620333210968e+18 -0 -0)
(6.60560802211624e+18 -0 -0)
(6.73640980711166e+18 -0 -0)
(6.8685671577651e+18 -0 -0)
(7.00203609242034e+18 -0 -0)
(7.1367758834381e+18 -0 -0)
(7.27275048359075e+18 -0 -0)
(7.40987044111156e+18 -0 -0)
(7.54802515725647e+18 -0 -0)
(7.68767439683321e+18 -0 -0)
(7.8273372151716e+18 -0 -0)
(7.96848980429833e+18 -0 -0)
(8.10992226508144e+18 -0 -0)
(8.252584382465e+18 -0 -0)
(8.39363555611609e+18 -0 -0)
(8.52939667825505e+18 -0 -0)
(8.66977719266186e+18 -0 -0)
(8.80719732806433e+18 -0 -0)
(8.94009400113737e+18 -0 -0)
(9.06330712646095e+18 -0 -0)
(9.20565968610972e+18 -0 -0)
(9.29401528298461e+18 -0 -0)
(9.43016307094203e+18 -0 -0)
(9.5257273091301e+18 -0 -0)
(9.64144096161746e+18 -0 -0)
(9.73166178279797e+18 -0 -0)
(9.81920611795601e+18 -0 -0)
(9.9106732229593e+18 -0 -0)
(9.98361148181029e+18 -0 -0)
(1.00818293909761e+19 -0 -0)
(1.0133621321276e+19 -0 -0)
(1.01839442545479e+19 -0 -0)
(1.02359150775903e+19 -0 -0)
(1.02837714536604e+19 -0 -0)
(1.03375466262023e+19 -0 -0)
(1.04003513281524e+19 -0 -0)
(1.04364156787886e+19 -0 -0)
(1.04805676616757e+19 -0 -0)
(1.05047249865544e+19 -0 -0)
(1.0613588430937e+19 -0 -0)
(1.07753987077364e+19 -0 -0)
(1.0937153589796e+19 -0 -0)
(1.10618776079914e+19 -0 -0)
(1.11655788656423e+19 -0 -0)
(1.12457881710801e+19 -0 -0)
(1.13173561877257e+19 -0 -0)
(1.13809697950227e+19 -0 -0)
(1.14369767469787e+19 -0 -0)
(1.14898477350334e+19 -0 -0)
(1.15371549669579e+19 -0 -0)
(1.15932501292714e+19 -0 -0)
(1.16589208235949e+19 -0 -0)
(1.17322124513927e+19 -0 -0)
(1.18133330836088e+19 -0 -0)
(1.18829827736827e+19 -0 -0)
(1.19485544864881e+19 -0 -0)
(1.20088212091367e+19 -0 -0)
(1.20708502657925e+19 -0 -0)
(1.21207578139521e+19 -0 -0)
(1.21851374558605e+19 -0 -0)
(1.22457810038458e+19 -0 -0)
(1.23189856205255e+19 -0 -0)
(1.23970748951831e+19 -0 -0)
(1.24814174152937e+19 -0 -0)
(1.25594728861317e+19 -0 -0)
(1.26482245718765e+19 -0 -0)
(1.27250563822013e+19 -0 -0)
(1.28030464506659e+19 -0 -0)
(1.28763599540986e+19 -0 -0)
(1.29479056468594e+19 -0 -0)
(1.30195229334542e+19 -0 -0)
(1.30863295156149e+19 -0 -0)
(1.31580969121861e+19 -0 -0)
(1.32326332026474e+19 -0 -0)
(1.33122050124235e+19 -0 -0)
(1.33955692070517e+19 -0 -0)
(1.34822758585171e+19 -0 -0)
(1.35626017012553e+19 -0 -0)
(1.36448592885976e+19 -0 -0)
(1.37165917187583e+19 -0 -0)
(1.37893558156373e+19 -0 -0)
(1.38523278139197e+19 -0 -0)
(1.39153494536134e+19 -0 -0)
(1.3982142899775e+19 -0 -0)
(1.40411736637921e+19 -0 -0)
(1.41148485565503e+19 -0 -0)
(1.41709135558778e+19 -0 -0)
(1.42501415925553e+19 -0 -0)
(1.43091197812405e+19 -0 -0)
(1.43837723892048e+19 -0 -0)
(1.44298101358346e+19 -0 -0)
(1.44905992822181e+19 -0 -0)
(1.45163954462697e+19 -0 -0)
(1.45622904321252e+19 -0 -0)
(1.45740112320127e+19 -0 -0)
(1.46111214698598e+19 -0 -0)
(1.46138366445993e+19 -0 -0)
(1.46491596437627e+19 -0 -0)
(1.464991610397e+19 -0 -0)
(1.46853183837082e+19 -0 -0)
(1.46829399387831e+19 -0 -0)
(1.47149418153454e+19 -0 -0)
(1.47069111585635e+19 -0 -0)
(1.47315242633286e+19 -0 -0)
(1.47118530831281e+19 -0 -0)
(1.47254188988365e+19 -0 -0)
(1.46945475574613e+19 -0 -0)
(1.46930203290897e+19 -0 -0)
(1.46443668549164e+19 -0 -0)
(1.46415017910182e+19 -0 -0)
(1.45716458352825e+19 -0 -0)
(1.45575937837782e+19 -0 -0)
(1.4473366675952e+19 -0 -0)
(1.44526514412347e+19 -0 -0)
(1.43594352702912e+19 -0 -0)
(1.43353682678246e+19 -0 -0)
(1.42346038627103e+19 -0 -0)
(1.42084446615785e+19 -0 -0)
(1.41019811966635e+19 -0 -0)
(1.40740670983976e+19 -0 -0)
(1.39604402127422e+19 -0 -0)
(1.39273502149377e+19 -0 -0)
(1.38038140437488e+19 -0 -0)
(1.37634757888659e+19 -0 -0)
(1.36287194057326e+19 -0 -0)
(1.35794219602649e+19 -0 -0)
(1.34316312542449e+19 -0 -0)
(1.33727541342202e+19 -0 -0)
(1.32137083292985e+19 -0 -0)
(1.31482435673769e+19 -0 -0)
(1.29819559319229e+19 -0 -0)
(1.29126179209941e+19 -0 -0)
(1.27414978444893e+19 -0 -0)
(1.26695310082421e+19 -0 -0)
(1.24950782311637e+19 -0 -0)
(1.24214827359388e+19 -0 -0)
(1.22448679934872e+19 -0 -0)
(1.21701250529252e+19 -0 -0)
(1.19914038214255e+19 -0 -0)
(1.19147617906864e+19 -0 -0)
(1.17326942688575e+19 -0 -0)
(1.16529728284666e+19 -0 -0)
(1.14126401505129e+19 -0 -0)
)
;

boundaryField
{
    electrode
    {
        type            calculated;
        value           uniform (20250091254.9369 -0 -0);
    }
    ground
    {
        type            calculated;
        value           uniform (1.14240489617313e+19 -0 -0);
    }
    otherfaces
    {
        type            empty;
    }
}


// ************************************************************************* //
