/*--------------------------------*- C++ -*----------------------------------*\
| =========                 |                                                 |
| \\      /  F ield         | foam-extend: Open Source CFD                    |
|  \\    /   O peration     | Version:     4.0                                |
|   \\  /    A nd           | Web:         http://www.foam-extend.org         |
|    \\/     M anipulation  |                                                 |
\*---------------------------------------------------------------------------*/
FoamFile
{
    version     2.0;
    format      ascii;
    class       volVectorField;
    location    "1e-06";
    object      J_electron;
}
// * * * * * * * * * * * * * * * * * * * * * * * * * * * * * * * * * * * * * //

dimensions      [1 -1 -1 0 0 0 0];

internalField   nonuniform List<vector> 
300
(
(-1.26491100258474e+19 0 0)
(-1.2555086273803e+19 0 0)
(-1.4423825757977e+19 0 0)
(-1.44468434430132e+19 0 0)
(-1.43541013898716e+19 0 0)
(-1.43187171172383e+19 0 0)
(-1.42847888044592e+19 0 0)
(-1.42498579183316e+19 0 0)
(-1.42147674677568e+19 0 0)
(-1.41802085950856e+19 0 0)
(-1.41459710622116e+19 0 0)
(-1.41118869039596e+19 0 0)
(-1.40780970960293e+19 0 0)
(-1.40446094065696e+19 0 0)
(-1.40114154951129e+19 0 0)
(-1.39785305397977e+19 0 0)
(-1.39459642636015e+19 0 0)
(-1.39137211111741e+19 0 0)
(-1.38818049878989e+19 0 0)
(-1.38502178427614e+19 0 0)
(-1.38189596451085e+19 0 0)
(-1.37880299521371e+19 0 0)
(-1.37574250608359e+19 0 0)
(-1.37271413328166e+19 0 0)
(-1.36971742482916e+19 0 0)
(-1.3667516669308e+19 0 0)
(-1.36381625479729e+19 0 0)
(-1.36091048241246e+19 0 0)
(-1.35803347509171e+19 0 0)
(-1.35518447902447e+19 0 0)
(-1.35236274196854e+19 0 0)
(-1.34956733793229e+19 0 0)
(-1.34679755278065e+19 0 0)
(-1.34405263946959e+19 0 0)
(-1.3413318198737e+19 0 0)
(-1.33863446147141e+19 0 0)
(-1.3359599518726e+19 0 0)
(-1.33330771969518e+19 0 0)
(-1.33067726905816e+19 0 0)
(-1.32806819052289e+19 0 0)
(-1.32548011493184e+19 0 0)
(-1.32291272670016e+19 0 0)
(-1.32036581578409e+19 0 0)
(-1.31783917310617e+19 0 0)
(-1.31533266207053e+19 0 0)
(-1.312846212133e+19 0 0)
(-1.31037970762414e+19 0 0)
(-1.30793319436192e+19 0 0)
(-1.3055065276924e+19 0 0)
(-1.30309980089835e+19 0 0)
(-1.30071291646158e+19 0 0)
(-1.29834581746128e+19 0 0)
(-1.2959984948856e+19 0 0)
(-1.29367071330473e+19 0 0)
(-1.2913624153476e+19 0 0)
(-1.28907327730554e+19 0 0)
(-1.28680302430774e+19 0 0)
(-1.28455124059784e+19 0 0)
(-1.28231747707014e+19 0 0)
(-1.28010103283916e+19 0 0)
(-1.27790132192952e+19 0 0)
(-1.27571746931501e+19 0 0)
(-1.27354840493872e+19 0 0)
(-1.27139325233749e+19 0 0)
(-1.26925059026539e+19 0 0)
(-1.26711906660733e+19 0 0)
(-1.26499726728346e+19 0 0)
(-1.26288333025968e+19 0 0)
(-1.2607754932424e+19 0 0)
(-1.25867179014887e+19 0 0)
(-1.25656988112e+19 0 0)
(-1.25446756288808e+19 0 0)
(-1.25236229636091e+19 0 0)
(-1.25025123161735e+19 0 0)
(-1.24813179068408e+19 0 0)
(-1.24600058035658e+19 0 0)
(-1.24385475048935e+19 0 0)
(-1.24169067595275e+19 0 0)
(-1.23950477470833e+19 0 0)
(-1.23729368263861e+19 0 0)
(-1.23505296585838e+19 0 0)
(-1.23277903755398e+19 0 0)
(-1.23046748680749e+19 0 0)
(-1.22811386701498e+19 0 0)
(-1.22571380206653e+19 0 0)
(-1.2232625224842e+19 0 0)
(-1.22075523562566e+19 0 0)
(-1.21818681386682e+19 0 0)
(-1.21555252217528e+19 0 0)
(-1.21284669676396e+19 0 0)
(-1.21006416770556e+19 0 0)
(-1.20719968871802e+19 0 0)
(-1.20424721664164e+19 0 0)
(-1.2012015103391e+19 0 0)
(-1.19805663835644e+19 0 0)
(-1.1948067538958e+19 0 0)
(-1.19144609467062e+19 0 0)
(-1.18796869480056e+19 0 0)
(-1.18436847046828e+19 0 0)
(-1.18063975567359e+19 0 0)
(-1.17677628755201e+19 0 0)
(-1.17277214861642e+19 0 0)
(-1.16862174225566e+19 0 0)
(-1.16431864739109e+19 0 0)
(-1.15985752282833e+19 0 0)
(-1.15523247753983e+19 0 0)
(-1.15043771563403e+19 0 0)
(-1.14546805759033e+19 0 0)
(-1.14031781724197e+19 0 0)
(-1.13498185950466e+19 0 0)
(-1.12945520753335e+19 0 0)
(-1.12373269297543e+19 0 0)
(-1.11780975138843e+19 0 0)
(-1.1116818131875e+19 0 0)
(-1.10534426713417e+19 0 0)
(-1.09879315382823e+19 0 0)
(-1.09202416230979e+19 0 0)
(-1.0850335850247e+19 0 0)
(-1.07781740339685e+19 0 0)
(-1.07037203448332e+19 0 0)
(-1.06269392769479e+19 0 0)
(-1.05477914963581e+19 0 0)
(-1.0466242490698e+19 0 0)
(-1.03822540830005e+19 0 0)
(-1.02957843404025e+19 0 0)
(-1.02067910584398e+19 0 0)
(-1.01152279140872e+19 0 0)
(-1.00210396254013e+19 0 0)
(-9.92416779717208e+18 0 0)
(-9.82454462763133e+18 0 0)
(-9.72208793961942e+18 0 0)
(-9.61670836996486e+18 0 0)
(-9.50829804694117e+18 0 0)
(-9.3967289826746e+18 0 0)
(-9.28185671205729e+18 0 0)
(-9.16350918700774e+18 0 0)
(-9.04148531975448e+18 0 0)
(-8.91555117114537e+18 0 0)
(-8.7854374516236e+18 0 0)
(-8.65082928508646e+18 0 0)
(-8.5113595504739e+18 0 0)
(-8.36661269264597e+18 0 0)
(-8.21610373330239e+18 0 0)
(-8.05927130539911e+18 0 0)
(-7.89548643003138e+18 0 0)
(-7.72401258526723e+18 0 0)
(-7.54400978747366e+18 0 0)
(-7.35453731387186e+18 0 0)
(-7.15449345645425e+18 0 0)
(-6.94263965411915e+18 0 0)
(-6.71757282285558e+18 0 0)
(-6.47767180279336e+18 0 0)
(-6.22111707935906e+18 0 0)
(-5.94582725296495e+18 0 0)
(-5.64944035445316e+18 0 0)
(-5.32929416245595e+18 0 0)
(-4.98229264421434e+18 0 0)
(-4.6051225042598e+18 0 0)
(-4.19390235795155e+18 0 0)
(-3.74406702504503e+18 0 0)
(-3.25115286085488e+18 0 0)
(-2.70973098361828e+18 0 0)
(-2.11374986686261e+18 0 0)
(-1.45997606038484e+18 0 0)
(-7.38317455648096e+17 0 0)
(8.54539592752169e+16 0 0)
(9.23178196422099e+17 0 0)
(1.93176927034409e+18 0 0)
(3.17587081034046e+18 0 0)
(4.7901745784564e+18 0 0)
(7.56459990401889e+18 0 0)
(9.97668368846894e+18 0 0)
(1.14507815107586e+19 0 0)
(1.28289854584447e+19 0 0)
(1.35504730623647e+19 0 0)
(1.27701029319009e+19 0 0)
(1.03027918210125e+19 0 0)
(6.78011876499312e+18 0 0)
(2.95737839156042e+18 0 0)
(6.84956204941705e+17 0 0)
(-3.78949750822535e+17 0 0)
(1.6635479234655e+18 0 0)
(7.69711287491258e+18 0 0)
(1.76027537084829e+19 0 0)
(3.06769262616636e+19 0 0)
(4.38373914990388e+19 0 0)
(5.51305002475219e+19 0 0)
(6.20966627795544e+19 0 0)
(6.2627720178292e+19 0 0)
(5.9604876849033e+19 0 0)
(4.879634369403e+19 0 0)
(3.76988317952125e+19 0 0)
(2.57000883544786e+19 0 0)
(1.42097685712859e+19 0 0)
(1.00980091583572e+19 0 0)
(1.7894928391735e+18 0 0)
(-7.14975826091459e+16 0 0)
(-2.21403865092807e+18 0 0)
(-1.90441273029027e+18 0 0)
(-2.21692589401732e+18 0 0)
(-2.5245971960899e+18 0 0)
(-2.72132863313441e+18 0 0)
(-2.80567650946404e+18 0 0)
(-2.82662658303239e+18 0 0)
(-2.81914039453155e+18 0 0)
(-2.79313469434747e+18 0 0)
(-2.76335884446599e+18 0 0)
(-2.72221164495857e+18 0 0)
(-2.67641988927292e+18 0 0)
(-2.63024189789485e+18 0 0)
(-2.58461918159649e+18 0 0)
(-2.53736613415314e+18 0 0)
(-2.48886835971758e+18 0 0)
(-2.44030833192694e+18 0 0)
(-2.39226611985064e+18 0 0)
(-2.34321256540563e+18 0 0)
(-2.29412074860224e+18 0 0)
(-2.24501972180595e+18 0 0)
(-2.19608766515144e+18 0 0)
(-2.14718438773668e+18 0 0)
(-2.09928897685837e+18 0 0)
(-2.05151072276848e+18 0 0)
(-2.00437686425348e+18 0 0)
(-1.95791593130509e+18 0 0)
(-1.91222221533949e+18 0 0)
(-1.86734278091714e+18 0 0)
(-1.82332728722149e+18 0 0)
(-1.78022721286808e+18 0 0)
(-1.73807413956519e+18 0 0)
(-1.69689429999254e+18 0 0)
(-1.65670886392704e+18 0 0)
(-1.61753028738405e+18 0 0)
(-1.5793659772251e+18 0 0)
(-1.54221918573591e+18 0 0)
(-1.50608456941967e+18 0 0)
(-1.47095555228594e+18 0 0)
(-1.43682061543828e+18 0 0)
(-1.4036655364308e+18 0 0)
(-1.37147457835422e+18 0 0)
(-1.34022623426573e+18 0 0)
(-1.30990615952947e+18 0 0)
(-1.2804861379859e+18 0 0)
(-1.25195392881783e+18 0 0)
(-1.22418993750556e+18 0 0)
(-1.19738438795632e+18 0 0)
(-1.17137472404646e+18 0 0)
(-1.14610970482164e+18 0 0)
(-1.12160123731504e+18 0 0)
(-1.09782311190033e+18 0 0)
(-1.07475146206598e+18 0 0)
(-1.05236252520961e+18 0 0)
(-1.03063209132872e+18 0 0)
(-1.00953706102779e+18 0 0)
(-9.89055392538492e+17 0 0)
(-9.69160068816882e+17 0 0)
(-9.4985991160197e+17 0 0)
(-9.31034887322374e+17 0 0)
(-9.12790958908857e+17 0 0)
(-8.95092907432641e+17 0 0)
(-8.7781545123568e+17 0 0)
(-8.61033517325257e+17 0 0)
(-8.44701547352509e+17 0 0)
(-8.28807022462009e+17 0 0)
(-8.13332427392419e+17 0 0)
(-7.98263871235516e+17 0 0)
(-7.83583886887991e+17 0 0)
(-7.69279511316269e+17 0 0)
(-7.5533356530909e+17 0 0)
(-7.4173867046122e+17 0 0)
(-7.28433545840498e+17 0 0)
(-7.15498670608023e+17 0 0)
(-7.0293274581332e+17 0 0)
(-6.90619100855427e+17 0 0)
(-6.78600486437624e+17 0 0)
(-6.6686356500084e+17 0 0)
(-6.55402041002911e+17 0 0)
(-6.44207426911118e+17 0 0)
(-6.33271062884974e+17 0 0)
(-6.22584996522052e+17 0 0)
(-6.1214075201465e+17 0 0)
(-6.01929400985804e+17 0 0)
(-5.9193920505709e+17 0 0)
(-5.82132710611942e+17 0 0)
(-5.72467313854972e+17 0 0)
(-5.63360331000036e+17 0 0)
(-5.54268447228283e+17 0 0)
(-5.45389511856341e+17 0 0)
(-5.3670407256376e+17 0 0)
(-5.2809458388645e+17 0 0)
(-5.19793542281389e+17 0 0)
(-5.11972170598421e+17 0 0)
(-5.0415806680868e+17 0 0)
(-4.96191563046495e+17 0 0)
(-4.8923126872231e+17 0 0)
(-4.81962563575082e+17 0 0)
(-4.75320220135134e+17 0 0)
(-4.69017406891119e+17 0 0)
(-4.63644131900383e+17 0 0)
(-4.58637413205476e+17 0 0)
(-4.50687608327519e+17 0 0)
)
;

boundaryField
{
    electrode
    {
        type            calculated;
        value           uniform (-1.45148081930133e+19 0 0);
    }
    ground
    {
        type            calculated;
        value           uniform (-4.48704919837559e+17 0 0);
    }
    otherfaces
    {
        type            empty;
    }
}


// ************************************************************************* //
