/*--------------------------------*- C++ -*----------------------------------*\
| =========                 |                                                 |
| \\      /  F ield         | foam-extend: Open Source CFD                    |
|  \\    /   O peration     | Version:     4.0                                |
|   \\  /    A nd           | Web:         http://www.foam-extend.org         |
|    \\/     M anipulation  |                                                 |
\*---------------------------------------------------------------------------*/
FoamFile
{
    version     2.0;
    format      ascii;
    class       volScalarField;
    location    "1e-06";
    object      N_electronMean;
}
// * * * * * * * * * * * * * * * * * * * * * * * * * * * * * * * * * * * * * //

dimensions      [0 0 0 1 0 0 0];

internalField   nonuniform List<scalar> 
300
(
6.09589462321383e+16
6.09592763121202e+16
6.09574511505543e+16
6.09524006443841e+16
6.09441210485094e+16
6.09324354886633e+16
6.09172279373223e+16
6.08984141853843e+16
6.08759185951072e+16
6.08496794835423e+16
6.0819646619018e+16
6.0785780117429e+16
6.07480494613448e+16
6.07064325635189e+16
6.06609151135131e+16
6.06114899295789e+16
6.05581564174151e+16
6.05009201121917e+16
6.04397922382768e+16
6.03747892990298e+16
6.0305932723428e+16
6.02332485389336e+16
6.01567670626526e+16
6.00765225891333e+16
5.99925531844173e+16
5.99049005445645e+16
5.98136096824831e+16
5.97187286229328e+16
5.96203081752569e+16
5.95184016019944e+16
5.94130644445893e+16
5.93043545575764e+16
5.91923318344567e+16
5.90770577030469e+16
5.89585948032964e+16
5.88370067614225e+16
5.87123579760864e+16
5.85847134406359e+16
5.84541385412474e+16
5.83206988553723e+16
5.81844600197073e+16
5.80454875950781e+16
5.79038468758686e+16
5.77596027321227e+16
5.76128194993374e+16
5.74635608790064e+16
5.73118898612039e+16
5.71578686789472e+16
5.70015588190265e+16
5.68430210881042e+16
5.66823158051783e+16
5.65195030007207e+16
5.63546424191627e+16
5.61877933556108e+16
5.60190143378883e+16
5.58483627939474e+16
5.56758947939493e+16
5.5501664888341e+16
5.53257260275816e+16
5.51481294898521e+16
5.49689248361602e+16
5.47881598824836e+16
5.46058806476882e+16
5.44221314882277e+16
5.42369554567935e+16
5.40503942534979e+16
5.38624877950585e+16
5.36732740250572e+16
5.34827889072435e+16
5.32910664111111e+16
5.30981384914992e+16
5.29040351643966e+16
5.27087847684803e+16
5.25124140210626e+16
5.2314947836948e+16
5.21164094828902e+16
5.19168208543055e+16
5.17162024444523e+16
5.15145730225368e+16
5.13119494786928e+16
5.11083469063836e+16
5.09037782488923e+16
5.06982539573754e+16
5.04917819394499e+16
5.02843675856517e+16
5.00760139319992e+16
4.98667215349951e+16
4.9656488108179e+16
4.94453083919353e+16
4.92331741919663e+16
4.90200742555545e+16
4.88059944081891e+16
4.85909177553846e+16
4.83748241651612e+16
4.81576897726111e+16
4.79394868521166e+16
4.77201836739338e+16
4.74997443535254e+16
4.72781286913e+16
4.70552920760858e+16
4.68311853698985e+16
4.66057546335583e+16
4.63789410600741e+16
4.61506810332026e+16
4.59209057648357e+16
4.56895410078226e+16
4.54565069094032e+16
4.52217177636491e+16
4.49850818674652e+16
4.47465011777362e+16
4.45058708869073e+16
4.42630791464225e+16
4.4018006852984e+16
4.37705275396136e+16
4.35205071355e+16
4.32678037115695e+16
4.30122675443397e+16
4.27537409650929e+16
4.24920577611193e+16
4.22270426270885e+16
4.19585109991294e+16
4.16862690078664e+16
4.14101133639452e+16
4.11298313038436e+16
4.08452001173952e+16
4.05559863812659e+16
4.02619456300068e+16
3.99628222071831e+16
3.9658348861781e+16
3.93482464185331e+16
3.90322236428026e+16
3.87099771081176e+16
3.83811910053155e+16
3.80455369523206e+16
3.77026742562231e+16
3.73522503444925e+16
3.69939005042225e+16
3.66272475049071e+16
3.62519018701228e+16
3.58674622041895e+16
3.54735150918567e+16
3.50696350844106e+16
3.46553850172091e+16
3.42303165158528e+16
3.3793970867259e+16
3.33458798012667e+16
3.28855657503792e+16
3.24125420748418e+16
3.19263133476693e+16
3.14263761851429e+16
3.09122206081402e+16
3.03833307762416e+16
2.98391858746014e+16
2.92792613766926e+16
2.87030297492353e+16
2.81099614425812e+16
2.74995263743704e+16
2.68711952642614e+16
2.6224440404369e+16
2.55587362587365e+16
2.48735602181424e+16
2.41683916016943e+16
2.34427086950178e+16
2.26959834878001e+16
2.19276677651851e+16
2.11371622648806e+16
2.03237804734775e+16
1.94867375172786e+16
1.86251627251168e+16
1.77381351118378e+16
1.68247301896376e+16
1.58840809722144e+16
1.49156031155707e+16
1.3919381490258e+16
1.28965660384104e+16
1.18497349920236e+16
1.0783376193332e+16
9.70449399499066e+15
8.62290824208294e+15
7.55128195904749e+15
6.50486703288194e+15
5.50078439015446e+15
4.55688558651087e+15
3.69019362616223e+15
2.91520764357177e+15
2.24225548396047e+15
1.67628917867827e+15
1.21638594087863e+15
856017254563668
584186048134348
387029904375616
249575285606890
157456848628524
98020185057987.4
60964459353836
38547953029435.7
25204337233952.7
17239016932197.3
12359100665703.1
9346738708552.42
7552093080208.25
6526972470579.09
5921874994957.85
5524796380862.86
5232259361445.82
4996156576021.29
4793594053398.89
4612940005760.65
4447660165132.6
4293802620437.98
4148948276999.37
4011577028425.5
3880553286276.2
3755019723452.46
3634329937350.11
3517977009655.97
3405557973429.39
3296750208638.85
3191288980590.63
3088961473543.41
2989598342611.33
2893048262828.82
2799191909572.31
2707932586231.26
2619187655317.81
2532886717457.97
2448969775110.92
2367382201092.28
2288075764867.92
2211005375899.54
2136127052567.87
2063401152113.7
1992786688467.87
1924243120433.56
1857731785675.15
1793213138424.92
1730646063319.98
1669991621739.76
1611208201796.34
1554253753104.35
1499087816377.79
1445668074404.97
1393954378775.66
1343905482431.41
1295479646159.44
1248636916037.55
1203336504483.21
1159538128407.87
1117200374758.06
1076282379937.83
1036743802726.32
998543518278.505
961641202049.001
925996136321.561
891569269846.035
858323799826.298
826223427144.504
795232928033.887
765318812702.683
736448027183
708589047194.557
681709662831.626
655778571147.622
630763862985.45
606634564415.05
583362013182.78
560918771023.516
539279171140.016
518417757538.344
498310524794.515
478932211279
460257762819.314
442263517874.073
424928572745.473
408232857403.263
392157315924.488
376683364440.04
361792152245.565
347465965175.293
333688273485.37
320442862272.424
307711684636.403
295477800504.059
283724576743.366
272433892052.619
261592383558.607
251191467748.271
241221476090.358
231672195066.586
222530222711.281
213783279962.391
205427736814.562
197463741008.118
189887797041.488
182710769911.737
175956193190.172
169668183428.675
163940814707.204
158945925207.684
154953591600.149
)
;

boundaryField
{
    electrode
    {
        type            calculated;
        value           uniform 6.09589462333172e+16;
    }
    ground
    {
        type            calculated;
        value           uniform 153684869242.68;
    }
    otherfaces
    {
        type            empty;
    }
}


// ************************************************************************* //
