/*--------------------------------*- C++ -*----------------------------------*\
| =========                 |                                                 |
| \\      /  F ield         | foam-extend: Open Source CFD                    |
|  \\    /   O peration     | Version:     4.0                                |
|   \\  /    A nd           | Web:         http://www.foam-extend.org         |
|    \\/     M anipulation  |                                                 |
\*---------------------------------------------------------------------------*/
FoamFile
{
    version     2.0;
    format      ascii;
    class       volScalarField;
    location    "1e-06";
    object      Phi;
}
// * * * * * * * * * * * * * * * * * * * * * * * * * * * * * * * * * * * * * //

dimensions      [0 0 0 1 0 0 0];

internalField   nonuniform List<scalar> 
300
(
699.999966454966
699.999777694562
699.999385986593
699.998788891909
699.997993016345
699.996998481604
699.995805097152
699.99441284203
699.992821710237
699.99103168828
699.989042765132
699.98685494441
699.984468243081
699.981882694763
699.979098354532
699.97611530262
699.972933648217
699.96955353344
699.96597513721
699.962198678999
699.958224422458
699.95405267884
699.949683810196
699.94511823235
699.94035641749
699.93539889654
699.930246261098
699.924899165038
699.919358325719
699.913624524807
699.907698608629
699.901581488186
699.895274138708
699.888777598772
699.882092969075
699.875221410754
699.868164143336
699.860922442331
699.853497636456
699.845891104529
699.838104272047
699.830138607486
699.821995618314
699.813676846775
699.805183865441
699.796518272571
699.787681687294
699.778675744643
699.76950209043
699.76016237607
699.750658253199
699.740991368369
699.731163357492
699.72117584041
699.711030415273
699.700728652983
699.690272091553
699.679662230452
699.66890052493
699.657988380299
699.646927146212
699.635718110833
699.624362495082
699.612861446686
699.601216034243
699.589427241221
699.577495959763
699.565422984477
699.553209006047
699.540854604656
699.528360243304
699.515726260871
699.502952864937
699.490040124447
699.476987961979
699.463796145763
699.450464281445
699.436991803246
699.423377965144
699.409621831105
699.395722265385
699.381677921998
699.367487233772
699.353148400975
699.338659379182
699.324017866674
699.30922129115
699.29426679579
699.279151224606
699.263871107021
699.248422641919
699.232801680453
699.217003708596
699.201023828397
699.184856738567
699.168496714173
699.151937585297
699.135172714822
699.118194975201
699.100996724216
699.083569779625
699.065905392957
699.047994221831
699.029826301544
699.011391015268
698.992677062985
698.9736724295
698.954364350801
698.934739279372
698.914782848065
698.894479832463
698.873814111897
698.852768628837
698.831325346562
698.809465205277
698.787168076193
698.764412713679
698.741176705357
698.717436419667
698.693166951218
698.668342062914
698.642934125545
698.616914053529
698.590251237156
698.562913470512
698.534866874792
698.506075816081
698.476502817455
698.446108464079
698.414851300721
698.382687720592
698.349571844319
698.315455387425
698.280287515399
698.24401468364
698.206580460939
698.167925333663
698.127986488087
698.086697567358
698.043988399686
697.999784693303
697.95400769312
697.906573793087
697.857394098176
697.806373926843
697.753412245504
697.698401024268
697.641224499576
697.581758329945
697.519868626545
697.455410834851
697.388228444757
697.318151495425
697.244994838024
697.168556112187
697.088613378824
697.004922344627
696.917213093982
696.825186221776
696.728508265257
696.626806240741
696.519661108728
696.406599972291
696.287086592784
696.160509974217
696.026170969496
695.883264238815
695.730855286276
695.567866687947
695.393025374632
695.20482954203
695.001438833543
694.780461689255
694.53903997347
694.273711750317
693.980283167487
693.653733036564
693.288271986679
692.877383423548
692.413930790865
691.890269276834
691.298158204514
690.629528646317
689.876339299642
689.031369262791
688.088114818208
687.041066907325
685.886389014761
684.62135772189
683.244925417067
681.757124145391
680.15844721621
678.449766269062
676.632906479648
674.710122524527
672.683019398097
670.553390339963
668.322534161332
665.991419628413
663.560855064194
661.031702511413
658.404842938526
655.681176184113
652.861595300704
649.947434818811
646.939929781109
643.840196647049
640.649265416175
637.367979589579
633.997005353668
630.536858308281
626.987911856642
623.350591125489
619.625656388325
615.813833032015
611.915766397649
607.932125124013
603.86341729341
599.710124225921
595.472591819564
591.151088746758
586.745800952365
582.256917949351
577.684521565377
573.028737639036
568.28978181838
563.46802595712
558.563820908167
553.57748685047
548.509345231276
543.359658891788
538.12864795622
532.816477788204
527.423268476765
521.949099149832
516.394066979212
510.758237772061
505.041719924717
499.244596105285
493.366986719693
487.408992378513
481.370673334841
475.252170819864
469.053679253352
462.775475938909
456.417692302938
449.980558096305
443.464201620569
436.868894296341
430.194811819417
423.442304825226
416.611599897809
409.703091580087
402.717023560135
395.653806956589
388.513666145412
381.296992871882
374.003984281531
366.635020690716
359.190291637795
351.670180197579
344.074889576762
336.404836707
328.660257150205
320.841599168298
312.949150857794
304.983524559724
296.945124932356
288.83467571858
280.652610954764
272.399696121318
264.076372395236
255.683420965179
247.221275006738
238.690725416903
230.092192585762
221.426469404426
212.693963242264
203.895477114985
195.031422658646
186.102626749727
177.109515640527
168.052946607623
158.933368919123
149.751678879236
140.508351864919
131.204315272904
121.840057166875
112.416518199037
102.9341874537
93.3940087810141
83.7964675611946
74.1425051105919
64.4325995816898
54.6676855788591
44.8482328744762
34.9751702062635
25.0489632968556
15.0705415073419
5.04037126432026
)
;

boundaryField
{
    electrode
    {
        type            fixedValue;
        value           uniform 700;
    }
    ground
    {
        type            fixedValue;
        value           uniform 0;
    }
    otherfaces
    {
        type            empty;
    }
}


// ************************************************************************* //
