/*--------------------------------*- C++ -*----------------------------------*\
| =========                 |                                                 |
| \\      /  F ield         | foam-extend: Open Source CFD                    |
|  \\    /   O peration     | Version:     4.0                                |
|   \\  /    A nd           | Web:         http://www.foam-extend.org         |
|    \\/     M anipulation  |                                                 |
\*---------------------------------------------------------------------------*/
FoamFile
{
    version     2.0;
    format      ascii;
    class       volScalarField;
    location    "1e-06";
    object      PhiMean;
}
// * * * * * * * * * * * * * * * * * * * * * * * * * * * * * * * * * * * * * //

dimensions      [0 0 0 1 0 0 0];

internalField   nonuniform List<scalar> 
300
(
699.926656101382
699.920284556103
699.913620088614
699.906702217387
699.8995416496
699.892115272815
699.884417138706
699.876440725667
699.86818019493
699.85963101858
699.850789418803
699.841652450554
699.832217813651
699.822483804903
699.812449257933
699.802113484042
699.791476225444
699.780537624554
699.769298185122
699.757758735814
699.745920406273
699.733784601751
699.721352980719
699.708627431695
699.695610048109
699.682303166048
699.668709306763
699.6548311594
699.64067158038
699.626233553119
699.611520160889
699.596534660616
699.581280446497
699.565760972629
699.549979743306
699.53394029947
699.517646202127
699.501101030805
699.484308367436
699.467271777012
699.449994805579
699.432480979791
699.414733781224
699.396756639463
699.378552925819
699.360125947406
699.341478941687
699.322615077362
699.303537455814
699.284249132121
699.264753130142
699.245052516634
699.225150365915
699.205049784475
699.184753835233
699.164265518828
699.143587726887
699.122723233866
699.101674693283
699.08044462825
699.059035431219
699.037449360537
699.01568853333
698.993754917437
698.971650445279
698.949377004006
698.926936318009
698.904329950098
698.881559302802
698.858625614654
698.835529956958
698.812273224178
698.788856199066
698.76527957335
698.741543862238
698.717649453068
698.69359668058
698.669385787519
698.645016910901
698.620489968008
698.595804826243
698.570961130878
698.545958283646
698.520795454952
698.495471552354
698.46998530708
698.44433523509
698.418519554843
698.392536171409
698.366382715827
698.340056505324
698.313554518921
698.286873593352
698.260010185934
698.232960337092
698.205719664698
698.178283333695
698.150646045394
698.122801993143
698.094744862024
698.066467815024
698.037963435032
698.009223667614
697.980239946637
697.951003021367
697.921502933205
697.891729027315
697.861669831176
697.831313108309
697.800645744562
697.76965365965
697.738321766858
697.706633897753
697.674572789971
697.642120030828
697.609255928424
697.575959564877
697.542208762382
697.507979879812
697.473247687959
697.4379852702
697.402164049581
697.365753599439
697.328721695471
697.291034100642
697.252654312986
697.213543412913
697.173660016343
697.132959992409
697.091396303549
697.048918820402
697.00547414186
696.961005355686
696.915451762007
696.868748653383
696.820827283046
696.77161439495
696.721031780128
696.668995993644
696.615418073676
696.560202965277
696.503249001521
696.444447390613
696.383681638062
696.320827003644
696.255749934981
696.188307058865
696.118344255661
696.045695487036
695.970181559378
695.891609128788
695.809768980517
695.724434174806
695.635358352978
695.542273008173
695.444884835358
695.342872602201
695.235883439734
695.123528262684
695.005376112791
694.880947950745
694.749708436016
694.611055175681
694.464306433492
694.30868372208
694.143285190247
693.967046194613
693.77870170155
693.576746283825
693.35937643306
693.124436083552
692.869307904978
692.590827033964
692.285267229265
691.948252509312
691.574690535148
691.158639316865
690.693461859145
690.17184578502
689.585759032799
688.92680322173
688.186187620537
687.355256890815
686.425576352663
685.389401464991
684.23999302014
682.97162692626
681.580266527967
680.062985358804
678.418140845621
676.645581614061
674.745786563185
672.71992997234
670.570026853292
668.298240219103
665.906787418822
663.397814112374
660.773550344192
658.036117178903
655.18737555259
652.228985994547
649.16251596618
645.989534999131
642.711651662153
639.330590498772
635.847975356857
632.265337896832
628.584125526493
624.805722278564
620.931455871061
616.962619853248
612.900475038947
608.746297854039
604.50139844921
600.167034005769
595.744411246524
591.234696815958
586.639015679758
581.958466511406
577.19411486487
572.347011999917
567.418185972433
562.408660832045
557.319448224801
552.151572399166
546.906069378339
541.583974577742
536.18629368604
530.714014108314
525.168097263449
519.549489264083
513.859114065014
508.097890004169
502.266731958019
496.36655565565
490.39826839188
484.362778397835
478.260987366269
472.093799417022
465.862115388866
459.566841388549
453.208887585676
446.789182179031
440.308634052763
433.768160929118
427.168645143355
420.510983016993
413.796033061011
407.024672078157
400.197735299841
393.316080385559
386.380519140983
379.391890276875
372.350982494019
365.258616516712
358.115558756895
350.922613564744
343.680526550392
336.390087346042
329.052021972179
321.667106635697
314.236048254154
306.759610265691
299.238480581186
291.67340987379
284.065087968386
276.414295359
268.721720762629
260.988132181408
253.214194094895
245.40065827321
237.548163571851
229.657445432468
221.72911686567
213.763897550581
205.762374769274
197.725253237285
189.653094892251
181.546590360521
173.406276431343
165.232830126822
157.026762967757
148.78873869576
140.519243352297
132.21892761831
123.88825168066
115.527853206899
107.138166283972
98.7198159408719
90.2732101757032
81.7989619395395
73.2974534159442
64.7692861300474
56.2148167236815
47.634635982345
39.0290754187258
30.3987158413014
21.7438640199153
13.0650915459481
4.36268102911088
)
;

boundaryField
{
    electrode
    {
        type            calculated;
        value           uniform 699.999999999958;
    }
    ground
    {
        type            calculated;
        value           uniform 0;
    }
    otherfaces
    {
        type            empty;
    }
}


// ************************************************************************* //
