/*--------------------------------*- C++ -*----------------------------------*\
| =========                 |                                                 |
| \\      /  F ield         | foam-extend: Open Source CFD                    |
|  \\    /   O peration     | Version:     4.0                                |
|   \\  /    A nd           | Web:         http://www.foam-extend.org         |
|    \\/     M anipulation  |                                                 |
\*---------------------------------------------------------------------------*/
FoamFile
{
    version     2.0;
    format      ascii;
    class       volScalarField;
    location    "1e-06";
    object      Sy_electron;
}
// * * * * * * * * * * * * * * * * * * * * * * * * * * * * * * * * * * * * * //

dimensions      [1 -3 -1 0 0 0 0];

internalField   nonuniform List<scalar> 
300
(
3.27215983177746e-15
3.27560320795814e-15
3.27917595349035e-15
3.28156917803998e-15
3.28306539021233e-15
3.28375915273775e-15
3.28373129709306e-15
3.28303945849465e-15
3.28173088116104e-15
3.2798462363718e-15
3.27741490588466e-15
3.27446329618483e-15
3.27101417189936e-15
3.26708771596872e-15
3.26270207899617e-15
3.25787381030239e-15
3.25261267677617e-15
3.24693541029218e-15
3.24085831640161e-15
3.23439432089523e-15
3.22755587546702e-15
3.22035494478512e-15
3.21280309005377e-15
3.20491150242787e-15
3.1966619934349e-15
3.18808818862838e-15
3.17919807714765e-15
3.16999661775713e-15
3.16050974695188e-15
3.1507476128292e-15
3.14068672799788e-15
3.13034903137234e-15
3.11976840832656e-15
3.10895574278353e-15
3.09792139793276e-15
3.08667521033228e-15
3.07521871424227e-15
3.06356476133339e-15
3.05172711104028e-15
3.0397131860594e-15
3.02753032999298e-15
3.01518898790742e-15
3.00269708399696e-15
2.9900621747323e-15
2.97729144257357e-15
2.96439162622918e-15
2.95136537867066e-15
2.93821626732262e-15
2.92493181815915e-15
2.91151077734741e-15
2.89793245917442e-15
2.88421982470435e-15
2.87036467016547e-15
2.85639868031427e-15
2.84233672885744e-15
2.8282077150329e-15
2.81401796211995e-15
2.79977313353313e-15
2.78547827195037e-15
2.77113472422791e-15
2.75675042380957e-15
2.74232952797057e-15
2.7278670595499e-15
2.71333358238288e-15
2.69873658866646e-15
2.68411948014501e-15
2.66948612716293e-15
2.65484002317661e-15
2.64018421216771e-15
2.62552134615708e-15
2.61085045459476e-15
2.59616024865609e-15
2.58144873067241e-15
2.56672860722032e-15
2.55197830083849e-15
2.53720017450093e-15
2.52240508938937e-15
2.50758684059545e-15
2.49277818285072e-15
2.4779303600269e-15
2.46309936665764e-15
2.44828873063816e-15
2.43349376822277e-15
2.41871837311295e-15
2.40393939643501e-15
2.38916945526746e-15
2.37442718852946e-15
2.35971326285686e-15
2.34500928040248e-15
2.33032766193349e-15
2.31565944606091e-15
2.30093534090993e-15
2.28624138553404e-15
2.2715800792022e-15
2.25695160042833e-15
2.24235612854041e-15
2.22779347241488e-15
2.21326315429203e-15
2.19874884542067e-15
2.18425077975969e-15
2.16977864134151e-15
2.15533463649811e-15
2.14087164287562e-15
2.12643377285081e-15
2.11200759072578e-15
2.09757970514935e-15
2.08317275960744e-15
2.06875830629314e-15
2.05435216609717e-15
2.03996266379551e-15
2.02558744067104e-15
2.01122361477019e-15
1.99686050487609e-15
1.98249551661832e-15
1.96812611981645e-15
1.95372791666607e-15
1.93927505303627e-15
1.92480374315955e-15
1.91031597628016e-15
1.89580132145172e-15
1.88122391883938e-15
1.86660329046649e-15
1.85190044769896e-15
1.8371314102541e-15
1.82231333107946e-15
1.80744456538616e-15
1.79248818610967e-15
1.7774697755469e-15
1.76237625315107e-15
1.74720672107354e-15
1.7319420974145e-15
1.71657940334205e-15
1.70111430448988e-15
1.685514818295e-15
1.66973591125251e-15
1.65380586205187e-15
1.63773303549191e-15
1.62148828111912e-15
1.60505111371047e-15
1.58843749279024e-15
1.57163114067141e-15
1.55461554263875e-15
1.53735520836812e-15
1.51981573300384e-15
1.50197297374057e-15
1.48385871373067e-15
1.46546153241068e-15
1.44676891257169e-15
1.42775185728619e-15
1.40836029745665e-15
1.38861959172723e-15
1.36851067352251e-15
1.34797128133606e-15
1.32701335414197e-15
1.30562935079268e-15
1.28377659560329e-15
1.2614221720913e-15
1.23858375323272e-15
1.21525872135522e-15
1.19141724553426e-15
1.16704241250704e-15
1.14214197428109e-15
1.11670014118455e-15
1.09075785189059e-15
1.06432947806978e-15
1.03738779519412e-15
1.00998649235758e-15
9.82202886919009e-16
9.54097117811182e-16
9.25741160553941e-16
8.97230941942108e-16
8.68625250209345e-16
8.40036223261802e-16
8.11642923221916e-16
7.83633869654556e-16
7.56163942569233e-16
7.29385367884259e-16
7.03455986600203e-16
6.78555003328936e-16
6.5477925832317e-16
6.32216517470178e-16
6.10941493454875e-16
5.90971353376809e-16
5.72347133302658e-16
5.5501973890091e-16
5.3887553160571e-16
5.23903449055236e-16
5.10029003038826e-16
4.9716807417123e-16
4.85394628166591e-16
4.76424491727749e-16
5.42301498531103e-16
5.29699602286887e-15
2.83668989384434e-13
9.81761511351086e-11
1.16766688376467e-09
3.05073824158304e-09
3.69595721759986e-09
3.1972679785723e-09
2.54290850949237e-09
2.03295099482296e-09
1.70809864438887e-09
1.51059301277101e-09
1.39924774362468e-09
1.33845411877561e-09
1.31037182813336e-09
1.29851613910666e-09
1.30002633566955e-09
1.30852964655078e-09
1.31965276450078e-09
1.32869866055246e-09
1.33750972639328e-09
1.34499549917393e-09
1.35034823625743e-09
1.35337952774431e-09
1.35373323534954e-09
1.3512954633499e-09
1.34605592698485e-09
1.33808141792883e-09
1.32748835903006e-09
1.31439313099851e-09
1.29894904895903e-09
1.2805010017177e-09
1.26000346182402e-09
1.23787710277213e-09
1.21434979293978e-09
1.18964560610594e-09
1.16397981793545e-09
1.13755579694114e-09
1.11056341726788e-09
1.08317775689363e-09
1.05555850307433e-09
1.02784992068711e-09
1.00018113191812e-09
9.7266685676327e-10
9.45408214424011e-10
9.18493440903922e-10
8.9199866334528e-10
8.65988600706057e-10
8.40517347242988e-10
8.15628945989317e-10
7.91358370414846e-10
7.67732465210745e-10
7.44771518640493e-10
7.22481397219949e-10
7.00859363045382e-10
6.79907220108838e-10
6.59626431060949e-10
6.40014826775222e-10
6.210670341477e-10
6.02774737089434e-10
5.85127038888404e-10
5.68110815503594e-10
5.51711050786763e-10
5.35911281110821e-10
5.20693581474048e-10
5.06041345080951e-10
4.91934059454008e-10
4.78348382349952e-10
4.65264360322887e-10
4.52664698682255e-10
4.40530058407575e-10
4.28841559268393e-10
4.17580712078208e-10
4.06729650483447e-10
3.96271349827852e-10
3.86189695288703e-10
3.76469384546369e-10
3.67095552651894e-10
3.58053674778136e-10
3.49324779187169e-10
3.40885378081971e-10
3.32718266690018e-10
3.24812718923136e-10
3.17159088949597e-10
3.09748708291822e-10
3.02573576770301e-10
2.95626390577966e-10
2.88900571167606e-10
2.82390307397352e-10
2.76090572091619e-10
2.69996957109603e-10
2.63968846301831e-10
2.57783471131049e-10
2.51754120828138e-10
2.4586237518673e-10
2.40117677504742e-10
2.34531358610215e-10
2.29115774712127e-10
2.23378820577932e-10
2.17312152315413e-10
2.11380481642804e-10
2.05626340718653e-10
1.98959366713831e-10
1.9193996874495e-10
1.84655659669884e-10
1.75680984778881e-10
1.65298922091974e-10
1.521366673441e-10
1.33493582375644e-10
)
;

boundaryField
{
    electrode
    {
        type            zeroGradient;
    }
    ground
    {
        type            zeroGradient;
    }
    otherfaces
    {
        type            empty;
    }
}


// ************************************************************************* //
