/*--------------------------------*- C++ -*----------------------------------*\
| =========                 |                                                 |
| \\      /  F ield         | foam-extend: Open Source CFD                    |
|  \\    /   O peration     | Version:     4.0                                |
|   \\  /    A nd           | Web:         http://www.foam-extend.org         |
|    \\/     M anipulation  |                                                 |
\*---------------------------------------------------------------------------*/
FoamFile
{
    version     2.0;
    format      ascii;
    class       volScalarField;
    location    "1e-06";
    object      Te;
}
// * * * * * * * * * * * * * * * * * * * * * * * * * * * * * * * * * * * * * //

dimensions      [0 0 0 1 0 0 0];

internalField   nonuniform List<scalar> 
300
(
24484.5445280434
24484.6355808659
24484.6674778469
24484.6370385273
24484.5968407694
24484.5484208156
24484.4901690512
24484.42204095
24484.3440347522
24484.2561068927
24484.1582002127
24484.0502670398
24483.9322597441
24483.8041259875
24483.6658127254
24483.5172659944
24483.3584304107
24483.1892494461
24483.0096655733
24482.8196203217
24482.6190543747
24482.4079076269
24482.186119277
24481.953627909
24481.7103715111
24481.4562875703
24481.1913131135
24480.9153847062
24480.6284385294
24480.330410398
24480.021235732
24479.7008496112
24479.3691867726
24479.0261815699
24478.6717680015
24478.3058796886
24477.9284498406
24477.5394112487
24477.138696266
24476.7262367725
24476.3019641513
24475.8658092737
24475.417702464
24474.9575734806
24474.485351503
24474.000965102
24473.5043422412
24472.9954102489
24472.4740958329
24471.9403250704
24471.3940233978
24470.8351156553
24470.2635260611
24469.679178262
24469.0819953451
24468.4718998596
24467.8488138742
24467.2126589973
24466.5633564201
24465.9008269907
24465.2249912422
24464.5357694329
24463.8330816737
24463.1168479145
24462.3869880304
24461.6434219443
24460.8860696056
24460.1148511193
24459.329686827
24458.5304973121
24457.7172035454
24456.8897269274
24456.0479893154
24455.1919131843
24454.3214216005
24453.4364383472
24452.5368879633
24451.6226957648
24450.6937880213
24449.7500918155
24448.7915352489
24447.8180474452
24446.8295584689
24445.8259995198
24444.8073028374
24443.7734017106
24442.7242305119
24441.6597247056
24440.5798207119
24439.4844559537
24438.3735688639
24437.2470986001
24436.1049851719
24434.9471692687
24433.7735920357
24432.584195077
24431.3789201823
24430.1577091351
24428.9205035709
24427.6672446074
24426.3978726146
24425.1123269919
24423.8105456036
24422.4924645937
24421.1580179153
24419.80713673
24418.4397491276
24417.0557794011
24415.6551474998
24414.2377684728
24412.803551633
24411.3523999495
24409.884209236
24408.3988672221
24406.8962528162
24405.3762350728
24403.8386722189
24402.2834106412
24400.7102837962
24399.1191111191
24397.5096967303
24395.8818283834
24394.2352761665
24392.569791108
24390.8851040371
24389.1809242229
24387.4569379279
24385.7128072138
24383.9481686083
24382.1626316783
24380.3557779621
24378.527159701
24376.676298626
24374.8026851871
24372.9057775905
24370.9850010493
24369.0397474921
24367.0693754301
24365.073210042
24363.050543796
24361.0006378536
24358.9227236633
24356.8160054571
24354.6796642879
24352.5128622991
24350.3147489326
24348.0844695816
24345.8211747764
24343.5240334346
24341.1922496307
24338.8250816186
24336.4218679202
24333.9820589512
24331.5052557679
24328.9912596655
24326.4401320483
24323.8522739371
24321.2285142814
24318.5702234779
24315.8794808627
24313.1592298401
24310.41348697
24307.6476542633
24304.8686185127
24302.0853726876
24299.3120074804
24296.5605070017
24293.851037568
24291.2286765199
24288.7670943234
24286.6508804113
24285.0296087676
24283.8417384749
24283.0429939209
24282.6221151966
24282.3609024541
24281.7972320905
24280.3632198083
24277.5175088716
24273.0429357715
24267.056804703
24260.2857192848
24255.2076436247
24256.9478227161
24274.9882947101
24325.1130328191
24432.4979537317
24637.8859140004
25004.7854302386
25640.6525852543
26718.866478009
28516.8289325592
31550.7375490524
36679.4610293283
45737.7438592976
61507.5737342452
85739.77724372
120912.82740514
166258.81312951
223383.307286641
287294.477472304
351937.612464067
412579.438056636
466941.03444616
514396.22014981
555321.388148292
590473.924434856
620749.951528952
647101.691224041
670246.793338156
690721.895881049
708991.826854502
725470.283457828
740479.866628044
754264.318508616
767033.290671498
778968.468668278
790211.292779928
800878.776450655
811069.555200527
820855.409643177
830296.946015856
839453.815393498
848370.188714022
857082.158768489
865618.577704948
874002.445703111
882251.439456509
890378.586492985
898392.959881763
906300.078577594
914102.296337017
921799.153168112
929387.625344464
936862.416464244
944216.200040187
951439.790873803
958522.346691665
965451.507335706
972213.596239145
978793.660968314
985175.659518481
991342.496065608
997278.138079238
1002962.63780997
1008373.27864818
1013491.66303394
1018299.10651196
1022775.59748965
1026900.80097613
1030654.08298517
1034014.60849122
1036961.41240839
1039473.41333906
1041529.612287
1043108.17648423
1044189.49805363
1044737.93817006
1044760.07670067
1044220.97066543
1043100.54682718
1041376.905515
1039029.03266542
1036035.71753564
1032375.62383317
1028027.29503401
1022969.14836352
1017179.47189867
1010636.18438302
1003318.85461581
995205.664376312
986270.458758229
976490.231317639
965842.806720663
954302.388824704
941842.039928559
928433.27323952
914046.01416349
898648.37669621
882206.418255938
864683.921980177
846042.252126448
826241.656220109
805245.612202766
783001.009482302
759451.527946669
734542.70224134
708199.638901627
680346.568148586
650901.986969164
619760.708779893
586799.418436858
551889.005092875
514848.635644046
475458.484453977
433444.543009814
388413.742703909
339832.857610399
286922.683650661
228637.759775774
)
;

boundaryField
{
    electrode
    {
        type            electronTemperature;
        seec            0.05;
        Tse             1000;
        Edepend         1;
        TFN             1000;
        field_emission  0;
        field_enhancement_factor 55;
        work_function   5;
        value           uniform 24484.5445280434;
    }
    ground
    {
        type            electronTemperature;
        seec            0.05;
        Tse             1000;
        Edepend         1;
        TFN             1000;
        field_emission  0;
        field_enhancement_factor 55;
        work_function   5;
        value           uniform 195647.313768187;
    }
    otherfaces
    {
        type            empty;
    }
}


// ************************************************************************* //
