/*--------------------------------*- C++ -*----------------------------------*\
| =========                 |                                                 |
| \\      /  F ield         | foam-extend: Open Source CFD                    |
|  \\    /   O peration     | Version:     4.0                                |
|   \\  /    A nd           | Web:         http://www.foam-extend.org         |
|    \\/     M anipulation  |                                                 |
\*---------------------------------------------------------------------------*/
FoamFile
{
    version     2.0;
    format      ascii;
    class       volScalarField;
    location    "1e-06";
    object      TeMean;
}
// * * * * * * * * * * * * * * * * * * * * * * * * * * * * * * * * * * * * * //

dimensions      [0 0 0 1 0 0 0];

internalField   nonuniform List<scalar> 
300
(
33874.958373527
33875.4952501702
33875.4409404538
33874.8619533539
33874.1191625972
33873.1689797748
33872.02404249
33870.6947816973
33869.1838605462
33867.4951537196
33865.6322374035
33863.5985735258
33861.3974909706
33859.0321027429
33856.5054020325
33853.8202512723
33850.9793750535
33847.9853900306
33844.8408018407
33841.548003812
33838.10929455
33834.5268642916
33830.8028100531
33826.9391307382
33822.9377243704
33818.8004582139
33814.5291218413
33810.1254099585
33805.5909771456
33800.9273632137
33796.1359846666
33791.2182912585
33786.175749998
33781.0097194066
33775.7214849613
33770.3122330476
33764.7831018972
33759.1352378505
33753.3697392896
33747.4876275613
33741.4898597407
33735.3774010359
33729.1511718988
33722.8120292969
33716.360788569
33709.7982211733
33703.1250511244
33696.3419483316
33689.449507247
33682.4482459365
33675.3386072849
33668.1210525477
33660.7961138113
33653.3642757839
33645.82600576
33638.1817911066
33630.4320374267
33622.5770804122
33614.6172675551
33606.5529165421
33598.3843043096
33590.1117242339
33581.7353303108
33573.2552019339
33564.671568995
33555.9847157252
33547.1948604146
33538.302167086
33529.3067683268
33520.2087949745
33511.0083225818
33501.7053138422
33492.2997833326
33482.7917721292
33473.1812092542
33463.4679258983
33453.6518319665
33443.7329624388
33433.7112299114
33423.5864612488
33413.3586150649
33403.0276493436
33392.5933792386
33382.0555226893
33371.4137601501
33360.6678771092
33349.8177330306
33338.8630812812
33327.8035803333
33316.6389154629
33305.3686546102
33293.9923187367
33282.5096870001
33270.9204018646
33259.2239910955
33247.4200831965
33235.5082173356
33223.4879063981
33211.3585977664
33199.1197242165
33186.7707948354
33174.3110997935
33161.7398713913
33149.0565221449
33136.2603899673
33123.3507246304
33110.3267004272
33097.1874591837
33083.9321778467
33070.5599679766
33057.0698918934
33043.4609429714
33029.7320020356
33015.8820215876
33001.9098221013
32987.814064757
32973.5933068361
32959.2461647657
32944.7713098495
32930.1670678651
32915.4316234233
32900.5631364054
32885.5596157144
32870.4190587933
32855.1394834056
32839.7186547966
32824.1540233602
32808.4429954357
32792.5828949939
32776.5706979648
32760.4031357392
32744.0768268279
32727.5882150385
32710.9331931544
32694.1072668585
32677.1060509323
32659.9248501188
32642.5583530938
32625.0009364207
32607.2467285545
32589.289385803
32571.1219455203
32552.736795148
32534.1256276489
32515.2796131711
32496.1894775128
32476.8452779383
32457.2363513773
32437.3507630753
32417.1754698239
32396.6968622364
32375.8999989518
32354.7685929256
32333.2853936962
32311.4313780568
32289.1857534239
32266.5261511965
32243.4285736584
32219.8671817498
32195.8138631553
32171.2392548415
32146.1129138659
32120.4034294492
32094.082876172
32067.1330663646
32039.5398173291
32011.2753001214
31982.2976780918
31952.5520420322
31921.9743159802
31890.4890415186
31857.9095799288
31823.9016981742
31788.052364147
31749.8757454311
31708.6608720688
31663.3508360587
31612.8234131427
31555.8950727907
31491.2947888945
31418.0194151372
31335.5858988038
31244.6506111454
31147.6224281402
31049.7077238554
30960.2145686956
30894.1506733473
30875.3594246404
30940.0732764312
31143.9061864571
31575.1081940376
32373.7339267487
33773.5932287917
36200.9014284746
40356.8989450449
47467.1324265896
59721.7061845167
79350.0446234359
109221.863288377
151206.618388812
206923.581792518
274283.470112971
348828.886070968
423968.025231796
494077.062418574
555991.198874797
608976.018408383
653657.428336077
691244.095389378
723039.820618629
750128.225866606
773376.03772794
793490.198009031
811053.550093765
826530.443792166
840291.700358445
852634.213469513
863797.968322696
873976.214328369
883317.761426242
891941.766443097
899955.033753224
907446.933862388
914487.19560599
921132.885727668
927430.503557832
933417.835662262
939125.360201115
944577.403230804
949792.969072025
954786.541147696
959568.755473011
964146.946819083
968525.120358496
972704.599625799
976684.735230535
980462.791978728
984034.274679215
987393.104993412
990531.850858402
993441.835465007
996113.325941469
998535.777290329
1000697.75288706
1002587.05476329
1004191.22578658
1005497.52117054
1006492.66257134
1007163.09541064
1007495.03271565
1007474.4974959
1007087.45272662
1006319.78913245
1005157.39268205
1003586.08821799
1001591.78004022
999160.28990659
996278.296916721
992932.900285675
989109.051643644
984793.012367409
979970.917989752
974628.999804437
968753.382273931
962330.17495109
955345.34062933
947784.68533921
939633.805548244
930878.05973126
921502.748494685
911492.059308829
900829.32641731
889498.161723265
877481.028785676
864759.11205286
851312.412039148
837119.74181985
822158.502037116
806404.72361917
789832.709102081
772414.707001334
754120.832374767
734919.181095687
714773.324017984
693641.631078184
671479.379818023
648235.821587424
623852.800648554
598266.798332505
571402.73024853
543172.222811868
513473.196586114
482182.773007058
449148.139774299
414180.087797247
377034.772398242
337363.14046811
294706.462869997
248405.140266574
197546.486100583
)
;

boundaryField
{
    electrode
    {
        type            calculated;
        value           uniform 33874.9583735392;
    }
    ground
    {
        type            calculated;
        value           uniform 168841.684648217;
    }
    otherfaces
    {
        type            empty;
    }
}


// ************************************************************************* //
