/*--------------------------------*- C++ -*----------------------------------*\
| =========                 |                                                 |
| \\      /  F ield         | foam-extend: Open Source CFD                    |
|  \\    /   O peration     | Version:     4.0                                |
|   \\  /    A nd           | Web:         http://www.foam-extend.org         |
|    \\/     M anipulation  |                                                 |
\*---------------------------------------------------------------------------*/
FoamFile
{
    version     2.0;
    format      ascii;
    class       volVectorField;
    location    "7e-10";
    object      E;
}
// * * * * * * * * * * * * * * * * * * * * * * * * * * * * * * * * * * * * * //

dimensions      [0 0 0 1 0 0 0];

internalField   nonuniform List<vector> 
252
(
(-0 10561.1668974511 -0)
(-0 10561.1127022119 -0)
(-0 10561.1039407661 -0)
(-0 10561.1199628592 -0)
(-0 10561.1218988821 -0)
(-0 10561.1325633362 -0)
(-0 10561.1315265183 -0)
(-0 10561.1224875385 -0)
(-0 10561.131384086 -0)
(-0 10561.1669768274 -0)
(-0 10561.198239935 -0)
(-0 10561.2052984988 -0)
(-0 10561.1879339329 -0)
(-0 10561.186644231 -0)
(-0 10561.2085952618 -0)
(-0 10561.19517445 -0)
(-0 10561.1779154836 -0)
(-0 10561.1739856511 -0)
(-0 10561.2001527074 -0)
(-0 10561.2665245714 -0)
(-0 10561.271119252 -0)
(-0 10561.2467756723 -0)
(-0 10561.2810884791 -0)
(-0 10561.2870477214 -0)
(-0 10561.2816838439 -0)
(-0 10561.2989658208 -0)
(-0 10561.276436589 -0)
(-0 10561.2651708556 -0)
(-0 10561.2753009444 -0)
(-0 10561.2713501231 -0)
(-0 10561.2725404542 -0)
(-0 10561.2691156501 -0)
(-0 10561.2917452156 -0)
(-0 10561.3044428615 -0)
(-0 10561.2854653398 -0)
(-0 10561.2924713677 -0)
(-0 10561.3287503496 -0)
(-0 10561.3420959377 -0)
(-0 10561.2884209604 -0)
(-0 10561.2460712718 -0)
(-0 10561.2532106461 -0)
(-0 10561.2761756383 -0)
(-0 10561.285323642 -0)
(-0 10561.2378605199 -0)
(-0 10561.2367419004 -0)
(-0 10561.2564340333 -0)
(-0 10561.2696537394 -0)
(-0 10561.3433859309 -0)
(-0 10561.3978050962 -0)
(-0 10561.4009736229 -0)
(-0 10561.3906773834 -0)
(-0 10561.3922978964 -0)
(-0 10561.3957013062 -0)
(-0 10561.4008983414 -0)
(-0 10561.4252986838 -0)
(-0 10561.4344782992 -0)
(-0 10561.418308953 -0)
(-0 10561.4201592038 -0)
(-0 10561.4510687249 -0)
(-0 10561.4587268672 -0)
(-0 10561.4256379453 -0)
(-0 10561.3971270463 -0)
(-0 10561.386873585 -0)
(-0 10561.3556564654 -0)
(-0 10561.3471324122 -0)
(-0 10561.3580312959 -0)
(-0 10561.3833447052 -0)
(-0 10561.3941027283 -0)
(-0 10561.36604211 -0)
(-0 10561.3672640693 -0)
(-0 10561.3780244019 -0)
(-0 10561.3652969097 -0)
(-0 10561.3387938062 -0)
(-0 10561.3343900869 -0)
(-0 10561.3186121742 -0)
(-0 10561.3017976141 -0)
(-0 10561.2828849416 -0)
(-0 10561.2826819615 -0)
(-0 10561.2834116555 -0)
(-0 10561.2640874774 -0)
(-0 10561.27327907 -0)
(-0 10561.2631188108 -0)
(-0 10561.2544705132 -0)
(-0 10561.253194245 -0)
(-0 10561.2235720384 -0)
(-0 10561.239297751 -0)
(-0 10561.2623818591 -0)
(-0 10561.2894119574 -0)
(-0 10561.3354347169 -0)
(-0 10561.3360203142 -0)
(-0 10561.3118989369 -0)
(-0 10561.2796880341 -0)
(-0 10561.273026995 -0)
(-0 10561.2965203855 -0)
(-0 10561.307252339 -0)
(-0 10561.3200663446 -0)
(-0 10561.3551732793 -0)
(-0 10561.36289554 -0)
(-0 10561.3493975188 -0)
(-0 10561.3550804564 -0)
(-0 10561.3626130793 -0)
(-0 10561.3520425976 -0)
(-0 10561.3318980714 -0)
(-0 10561.3251875537 -0)
(-0 10561.3274509349 -0)
(-0 10561.3283267504 -0)
(-0 10561.3126655465 -0)
(-0 10561.3027291152 -0)
(-0 10561.3007979281 -0)
(-0 10561.2929900779 -0)
(-0 10561.291135284 -0)
(-0 10561.2702802229 -0)
(-0 10561.2698233064 -0)
(-0 10561.2709034207 -0)
(-0 10561.2433279256 -0)
(-0 10561.2357347995 -0)
(-0 10561.2639880718 -0)
(-0 10561.2771996845 -0)
(-0 10561.2633124521 -0)
(-0 10561.2470861628 -0)
(-0 10561.2420489357 -0)
(-0 10561.2419677809 -0)
(-0 10561.2206403233 -0)
(-0 10561.1991980188 -0)
(-0 10561.1993071931 -0)
(-0 10561.2192765674 -0)
(-0 10561.2146045039 -0)
(-0 10561.203546982 -0)
(-0 10561.2011040378 -0)
(-0 10561.2171448353 -0)
(-0 10561.2111999146 -0)
(-0 10561.1877362037 -0)
(-0 10561.1831866757 -0)
(-0 10561.1854293904 -0)
(-0 10561.1924094252 -0)
(-0 10561.1990976881 -0)
(-0 10561.1984467717 -0)
(-0 10561.2073769206 -0)
(-0 10561.2401500532 -0)
(-0 10561.2520914494 -0)
(-0 10561.2605550437 -0)
(-0 10561.2739383001 -0)
(-0 10561.2966746992 -0)
(-0 10561.3071177205 -0)
(-0 10561.3108117287 -0)
(-0 10561.3225937982 -0)
(-0 10561.3206294196 -0)
(-0 10561.3138297088 -0)
(-0 10561.3360712488 -0)
(-0 10561.3528267929 -0)
(-0 10561.3444563094 -0)
(-0 10561.3377912666 -0)
(-0 10561.3304938099 -0)
(-0 10561.3278981153 -0)
(-0 10561.3097153025 -0)
(-0 10561.3092286309 -0)
(-0 10561.3275972981 -0)
(-0 10561.3208227695 -0)
(-0 10561.2829029908 -0)
(-0 10561.2619044121 -0)
(-0 10561.2740356029 -0)
(-0 10561.2735729374 -0)
(-0 10561.2637179908 -0)
(-0 10561.2611690385 -0)
(-0 10561.268593148 -0)
(-0 10561.2808351004 -0)
(-0 10561.2811302916 -0)
(-0 10561.2801031796 -0)
(-0 10561.3002352136 -0)
(-0 10561.3127039226 -0)
(-0 10561.3134056663 -0)
(-0 10561.3128670936 -0)
(-0 10561.2990581772 -0)
(-0 10561.2999155516 -0)
(-0 10561.3028417262 -0)
(-0 10561.2901003816 -0)
(-0 10561.2845465639 -0)
(-0 10561.2862435118 -0)
(-0 10561.2799492343 -0)
(-0 10561.2765225034 -0)
(-0 10561.2852612098 -0)
(-0 10561.2926281036 -0)
(-0 10561.2978183837 -0)
(-0 10561.3020001461 -0)
(-0 10561.3039277382 -0)
(-0 10561.3050661153 -0)
(-0 10561.3149906039 -0)
(-0 10561.318632968 -0)
(-0 10561.3098342445 -0)
(-0 10561.3184008707 -0)
(-0 10561.3224151802 -0)
(-0 10561.3213368196 -0)
(-0 10561.32460118 -0)
(-0 10561.3307898446 -0)
(-0 10561.34000262 -0)
(-0 10561.3302050859 -0)
(-0 10561.3259265781 -0)
(-0 10561.3334252485 -0)
(-0 10561.3377245977 -0)
(-0 10561.3455596769 -0)
(-0 10561.3443667356 -0)
(-0 10561.3408635 -0)
(-0 10561.3450101398 -0)
(-0 10561.3398935294 -0)
(-0 10561.3390364846 -0)
(-0 10561.346995891 -0)
(-0 10561.3504568611 -0)
(-0 10561.3520840922 -0)
(-0 10561.3487123768 -0)
(-0 10561.3435695368 -0)
(-0 10561.3366606131 -0)
(-0 10561.334031597 -0)
(-0 10561.3272453443 -0)
(-0 10561.3210575619 -0)
(-0 10561.32266522 -0)
(-0 10561.3177536418 -0)
(-0 10561.3106639778 -0)
(-0 10561.3084997785 -0)
(-0 10561.3118177906 -0)
(-0 10561.3115269638 -0)
(-0 10561.3097961049 -0)
(-0 10561.3045339057 -0)
(-0 10561.3046317468 -0)
(-0 10561.3097165101 -0)
(-0 10561.3087819663 -0)
(-0 10561.3078801544 -0)
(-0 10561.3076913851 -0)
(-0 10561.3060413203 -0)
(-0 10561.3060664829 -0)
(-0 10561.3075952767 -0)
(-0 10561.3075086674 -0)
(-0 10561.305874395 -0)
(-0 10561.3069795483 -0)
(-0 10561.3120795982 -0)
(-0 10561.3143829903 -0)
(-0 10561.3119622009 -0)
(-0 10561.3130063399 -0)
(-0 10561.3177741312 -0)
(-0 10561.321548528 -0)
(-0 10561.3213719252 -0)
(-0 10561.3204331711 -0)
(-0 10561.321291313 -0)
(-0 10561.3230695459 -0)
(-0 10561.3247723192 -0)
(-0 10561.3263063338 -0)
(-0 10561.326352581 -0)
(-0 10561.3234926825 -0)
(-0 10561.3233721818 -0)
(-0 10561.3236362856 -0)
(-0 10561.3229089224 -0)
(-0 10561.3223785874 -0)
(-0 15849.311747518 -0)
)
;

boundaryField
{
    dielectric_2
    {
        type            calculated;
        value           nonuniform 0();
    }
    dielectric_1
    {
        type            calculated;
        value           uniform (-0 10561.1978493991 -0);
    }
    otherfaces
    {
        type            empty;
    }
    procBoundary1to0
    {
        type            processor;
        value           uniform (-0 15856.3885634875 -0);
    }
}


// ************************************************************************* //
