/*--------------------------------*- C++ -*----------------------------------*\
| =========                 |                                                 |
| \\      /  F ield         | foam-extend: Open Source CFD                    |
|  \\    /   O peration     | Version:     4.0                                |
|   \\  /    A nd           | Web:         http://www.foam-extend.org         |
|    \\/     M anipulation  |                                                 |
\*---------------------------------------------------------------------------*/
FoamFile
{
    version     2.0;
    format      ascii;
    class       volScalarField;
    location    "9e-07";
    object      Ar;
}
// * * * * * * * * * * * * * * * * * * * * * * * * * * * * * * * * * * * * * //

dimensions      [0 0 0 1 0 0 0];

internalField   nonuniform List<scalar> 
300
(
3.21880314667789e+22
3.21880314444409e+22
3.21880314642661e+22
3.21880314826384e+22
3.21880315070994e+22
3.2188031539283e+22
3.21880315787916e+22
3.21880316256406e+22
3.21880316797688e+22
3.21880317411543e+22
3.21880318097813e+22
3.21880318856226e+22
3.21880319686573e+22
3.2188032058864e+22
3.21880321562197e+22
3.21880322607007e+22
3.21880323722849e+22
3.21880324909436e+22
3.21880326166463e+22
3.21880327493612e+22
3.21880328890541e+22
3.2188033035688e+22
3.21880331892229e+22
3.21880333496159e+22
3.21880335168368e+22
3.21880336908235e+22
3.21880338715244e+22
3.21880340588864e+22
3.21880342528408e+22
3.21880344533243e+22
3.21880346602888e+22
3.21880348736577e+22
3.21880350933441e+22
3.21880353192705e+22
3.21880355513567e+22
3.21880357895196e+22
3.21880360336779e+22
3.21880362837413e+22
3.21880365396161e+22
3.218803680121e+22
3.21880370684286e+22
3.21880373411734e+22
3.21880376193458e+22
3.21880379028457e+22
3.21880381915722e+22
3.2188038485423e+22
3.21880387842976e+22
3.21880390880944e+22
3.21880393967205e+22
3.21880397100763e+22
3.2188040028074e+22
3.21880403506003e+22
3.21880406775608e+22
3.21880410088385e+22
3.21880413443268e+22
3.21880416839123e+22
3.21880420274958e+22
3.21880423749801e+22
3.21880427262699e+22
3.21880430812743e+22
3.21880434399002e+22
3.21880438020593e+22
3.21880441676709e+22
3.21880445366717e+22
3.21880449089791e+22
3.21880452844918e+22
3.2188045663135e+22
3.21880460448375e+22
3.21880464295316e+22
3.21880468171532e+22
3.21880472076443e+22
3.21880476009567e+22
3.21880479970408e+22
3.21880483958417e+22
3.21880487973302e+22
3.21880492014665e+22
3.218804960821e+22
3.21880500175357e+22
3.21880504293985e+22
3.21880508438099e+22
3.21880512607206e+22
3.21880516801194e+22
3.2188052102006e+22
3.21880525263801e+22
3.2188052953265e+22
3.21880533826671e+22
3.21880538145954e+22
3.21880542490767e+22
3.21880546861571e+22
3.218805512587e+22
3.21880555682695e+22
3.21880560134574e+22
3.21880564614415e+22
3.21880569122925e+22
3.21880573660906e+22
3.21880578229249e+22
3.21880582828936e+22
3.21880587461044e+22
3.21880592126851e+22
3.21880596827627e+22
3.2188060156468e+22
3.2188060633947e+22
3.21880611153904e+22
3.21880616009384e+22
3.21880620907811e+22
3.21880625851214e+22
3.21880630841487e+22
3.21880635881007e+22
3.2188064097197e+22
3.21880646116752e+22
3.21880651317938e+22
3.2188065657825e+22
3.21880661900601e+22
3.21880667287989e+22
3.21880672743551e+22
3.2188067827072e+22
3.21880683873088e+22
3.21880689553947e+22
3.21880695316977e+22
3.21880701166084e+22
3.21880707105509e+22
3.2188071313923e+22
3.2188071927179e+22
3.21880725507472e+22
3.2188073185068e+22
3.21880738306084e+22
3.21880744878741e+22
3.21880751573367e+22
3.21880758395075e+22
3.21880765348998e+22
3.21880772440504e+22
3.21880779674931e+22
3.21880787057713e+22
3.21880794594566e+22
3.21880802291374e+22
3.21880810153516e+22
3.2188081818656e+22
3.21880826396395e+22
3.2188083478886e+22
3.21880843369519e+22
3.21880852144177e+22
3.21880861118618e+22
3.21880870298752e+22
3.21880879690432e+22
3.21880889299375e+22
3.2188089913078e+22
3.21880909190101e+22
3.21880919482707e+22
3.21880930014001e+22
3.21880940789439e+22
3.21880951813736e+22
3.21880963091827e+22
3.21880974628873e+22
3.21880986429253e+22
3.21880998497333e+22
3.21881010837605e+22
3.21881023454282e+22
3.21881036350887e+22
3.21881049530928e+22
3.21881062997739e+22
3.21881076754229e+22
3.21881090802742e+22
3.2188110514503e+22
3.218811197819e+22
3.21881134713564e+22
3.21881149936326e+22
3.21881165447661e+22
3.21881181264058e+22
3.21881197313803e+22
3.2188121366386e+22
3.21881230285214e+22
3.21881246899258e+22
3.21881263733332e+22
3.21881280590179e+22
3.21881297673587e+22
3.21881314662386e+22
3.21881331373052e+22
3.21881348471422e+22
3.21881364908068e+22
3.21881381172125e+22
3.21881396868184e+22
3.2188141197409e+22
3.21881425997231e+22
3.21881438947925e+22
3.21881450747233e+22
3.21881460981457e+22
3.21881470359275e+22
3.21881477920268e+22
3.21881483903965e+22
3.21881489209662e+22
3.21881493244406e+22
3.21881496324758e+22
3.21881499250261e+22
3.21881501412161e+22
3.21881503094321e+22
3.21881504398769e+22
3.21881505534026e+22
3.21881506402871e+22
3.21881507073569e+22
3.21881507636393e+22
3.21881508269474e+22
3.2188150886434e+22
3.2188150937939e+22
3.2188151011107e+22
3.21881510682979e+22
3.21881511236659e+22
3.21881511730058e+22
3.2188151224476e+22
3.21881512695398e+22
3.21881513089612e+22
3.21881513414839e+22
3.21881513682182e+22
3.21881514100775e+22
3.21881514416003e+22
3.21881514691402e+22
3.21881514956109e+22
3.2188151518794e+22
3.21881515408652e+22
3.21881515617005e+22
3.21881515810246e+22
3.21881515963139e+22
3.21881516131005e+22
3.21881516213168e+22
3.21881516304412e+22
3.21881516457041e+22
3.21881516620568e+22
3.21881516749758e+22
3.21881516912831e+22
3.21881517035284e+22
3.218815172092e+22
3.21881517345003e+22
3.21881517507168e+22
3.21881517638325e+22
3.21881517757531e+22
3.21881517861824e+22
3.2188151793213e+22
3.21881517998668e+22
3.21881518057019e+22
3.21881518115209e+22
3.2188151818148e+22
3.21881518290771e+22
3.21881518509996e+22
3.21881518730828e+22
3.21881519002532e+22
3.21881519225319e+22
3.21881519493298e+22
3.21881519702885e+22
3.21881519950487e+22
3.21881520139731e+22
3.21881520383012e+22
3.21881520566e+22
3.21881520819267e+22
3.21881521017737e+22
3.21881521290035e+22
3.21881521504697e+22
3.21881521803591e+22
3.21881522034767e+22
3.218815223527e+22
3.21881522601216e+22
3.21881522941534e+22
3.21881523199239e+22
3.21881523552255e+22
3.21881523815052e+22
3.21881524174175e+22
3.21881524450683e+22
3.21881524877905e+22
3.21881525186343e+22
3.21881525615767e+22
3.2188152591884e+22
3.21881526355684e+22
3.21881526663924e+22
3.21881527119235e+22
3.2188152743655e+22
3.21881527908931e+22
3.21881528234046e+22
3.21881528723413e+22
3.21881529052211e+22
3.21881529549518e+22
3.21881529870249e+22
3.21881530366858e+22
3.21881530675936e+22
3.21881531171858e+22
3.21881531469398e+22
3.2188153196334e+22
3.21881532248427e+22
3.21881532740187e+22
3.21881533015839e+22
3.21881533508433e+22
3.21881533778487e+22
3.21881534274454e+22
3.21881534541221e+22
3.21881535040551e+22
3.21881535303921e+22
3.21881535806356e+22
3.2188153606672e+22
3.21881536571764e+22
3.21881536829209e+22
3.21881537336212e+22
3.21881537591793e+22
3.21881538224653e+22
)
;

boundaryField
{
    electrode
    {
        type            zeroGradient;
    }
    ground
    {
        type            zeroGradient;
    }
    otherfaces
    {
        type            empty;
    }
}


// ************************************************************************* //
