/*--------------------------------*- C++ -*----------------------------------*\
| =========                 |                                                 |
| \\      /  F ield         | foam-extend: Open Source CFD                    |
|  \\    /   O peration     | Version:     4.0                                |
|   \\  /    A nd           | Web:         http://www.foam-extend.org         |
|    \\/     M anipulation  |                                                 |
\*---------------------------------------------------------------------------*/
FoamFile
{
    version     2.0;
    format      ascii;
    class       volScalarField;
    location    "9e-07";
    object      Arm;
}
// * * * * * * * * * * * * * * * * * * * * * * * * * * * * * * * * * * * * * //

dimensions      [0 0 0 1 0 0 0];

internalField   nonuniform List<scalar> 
300
(
3.57416526096019e+15
3.57604568369301e+15
3.57799573711438e+15
3.57930145044368e+15
3.58011758347547e+15
3.58049602769609e+15
3.58048099977797e+15
3.58010392509292e+15
3.57939045824152e+15
3.57836258847791e+15
3.5770360812311e+15
3.57542502336813e+15
3.57354146715286e+15
3.5713960147098e+15
3.56899812265339e+15
3.56635634160449e+15
3.56347547979329e+15
3.5603641320713e+15
3.55703064329753e+15
3.55348148983966e+15
3.5497228731716e+15
3.54576071502151e+15
3.54160070540458e+15
3.53724832379168e+15
3.53269280487581e+15
3.52795197200918e+15
3.52302950362633e+15
3.51792738840353e+15
3.51265926002469e+15
3.50723001977967e+15
3.50162582031908e+15
3.49585807329408e+15
3.48994492486741e+15
3.48389173309915e+15
3.47770358426817e+15
3.47138528879878e+15
3.46493699837648e+15
3.45836524101859e+15
3.4516770940873e+15
3.444876085933e+15
3.43796571663724e+15
3.43095126890001e+15
3.42383662120046e+15
3.41662546520343e+15
3.40932130121454e+15
3.40192739720557e+15
3.39444469211682e+15
3.38687465390516e+15
3.37920948754556e+15
3.37144781860105e+15
3.36357696999916e+15
3.35560953441736e+15
3.34754003514113e+15
3.33938625789534e+15
3.33115629985322e+15
3.32286657547108e+15
3.31452035988511e+15
3.30612056926152e+15
3.29766977935995e+15
3.28916839583398e+15
3.28062074659892e+15
3.27202894939268e+15
3.26338967793485e+15
3.2546848944171e+15
3.24591857782175e+15
3.2371164064937e+15
3.22828042626009e+15
3.21941247691448e+15
3.21051414425605e+15
3.20158679190227e+15
3.19262958274317e+15
3.18363534098047e+15
3.17460252278549e+15
3.16553863590749e+15
3.15643006423776e+15
3.14727788577549e+15
3.1380884767248e+15
3.12885763524897e+15
3.11960549608219e+15
3.11030125870201e+15
3.10097971274775e+15
3.09164292786149e+15
3.0822877980302e+15
3.07291663040536e+15
3.06351452300549e+15
3.05408925638704e+15
3.04465256807754e+15
3.03520478017745e+15
3.02573391572509e+15
3.01624779854866e+15
3.00674046650114e+15
2.99716657415235e+15
2.98758171540848e+15
2.977987420153e+15
2.968383714111e+15
2.95877062389137e+15
2.94914793112174e+15
2.9395152246305e+15
2.92986152365208e+15
2.92018677659613e+15
2.91049727017965e+15
2.90079434285998e+15
2.89104603275474e+15
2.88128177495305e+15
2.87149226986124e+15
2.86166812109054e+15
2.85182447542211e+15
2.84194158415903e+15
2.83202994504065e+15
2.82209501463265e+15
2.81213490836423e+15
2.80214735028543e+15
2.79212457680644e+15
2.78206438722052e+15
2.77196459313228e+15
2.76180751257489e+15
2.75157416472077e+15
2.74128949119708e+15
2.73095433384098e+15
2.72056063259323e+15
2.71008187790975e+15
2.69953120257298e+15
2.68887944740064e+15
2.67813708705057e+15
2.66731558320989e+15
2.65641276086068e+15
2.64540035871806e+15
2.63429596656261e+15
2.62308867894509e+15
2.61177650170353e+15
2.6003437383615e+15
2.5887865458943e+15
2.57709996808197e+15
2.56525789545e+15
2.55322372633523e+15
2.54101646300397e+15
2.52864005806176e+15
2.51606939477009e+15
2.50328556913279e+15
2.49029781333983e+15
2.47709008920074e+15
2.46364577252713e+15
2.44993268553538e+15
2.43591871391786e+15
2.42157916745538e+15
2.40693401170677e+15
2.39196830983639e+15
2.3766657243949e+15
2.36099572680662e+15
2.34490926016627e+15
2.32841896002837e+15
2.31150007878618e+15
2.29409014232779e+15
2.27618812625137e+15
2.25777580404166e+15
2.23880336705929e+15
2.21922748892643e+15
2.19904774611327e+15
2.17824500805271e+15
2.15677424095775e+15
2.13459981510456e+15
2.11170673061647e+15
2.08805658019187e+15
2.06366206691445e+15
2.03851022967671e+15
2.01254625470296e+15
1.98579107133162e+15
1.95828933086325e+15
1.93006994155673e+15
1.90117484433966e+15
1.871672770998e+15
1.84159685157949e+15
1.81103942762723e+15
1.78017212948195e+15
1.74918900280494e+15
1.71825982642859e+15
1.68756376620449e+15
1.65729977976007e+15
1.6277069262905e+15
1.59894060168864e+15
1.57115508891825e+15
1.54449754099282e+15
1.51904910000688e+15
1.49492482694924e+15
1.47212444044335e+15
1.45055708336978e+15
1.43026259289487e+15
1.41118923214988e+15
1.39324793434534e+15
1.37634937844426e+15
1.36037156664713e+15
1.34526744262848e+15
1.33102152451744e+15
1.31756436189204e+15
1.30491919609116e+15
1.29320173373585e+15
1.28298933222181e+15
1.27590257741019e+15
1.27167388754981e+15
1.2666354813078e+15
1.2580790638981e+15
1.24729775942166e+15
1.23646288408955e+15
1.22646290950215e+15
1.21739942977065e+15
1.20910623614061e+15
1.20144325070701e+15
1.19425973572253e+15
1.18750561413078e+15
1.18105416545882e+15
1.17483648040861e+15
1.16888141287787e+15
1.16315370915625e+15
1.15760662352619e+15
1.15225660269565e+15
1.14707433698488e+15
1.14202843476734e+15
1.13714171706803e+15
1.13238924350831e+15
1.12776139568716e+15
1.12326317631395e+15
1.11888039264003e+15
1.11461927723897e+15
1.11047836126198e+15
1.10644694729223e+15
1.10252566049498e+15
1.09872300904203e+15
1.0950252014157e+15
1.091433531928e+15
1.08795518008956e+15
1.08457487849578e+15
1.08129380112923e+15
1.0781186153634e+15
1.07503981316693e+15
1.0720520730638e+15
1.06916752832528e+15
1.06636575162913e+15
1.06366168970559e+15
1.0610399698802e+15
1.05850732803235e+15
1.05606054306563e+15
1.05368833803008e+15
1.05140234110857e+15
1.04918522663079e+15
1.04704019636545e+15
1.0449799652661e+15
1.04298815224926e+15
1.04107024972089e+15
1.03922665645519e+15
1.03744745713544e+15
1.03573781499212e+15
1.03409184985265e+15
1.03250537640565e+15
1.03098265003301e+15
1.02951641343722e+15
1.02810561199926e+15
1.0267504220784e+15
1.02543735413763e+15
1.02417725739912e+15
1.02296440967262e+15
1.02180657721996e+15
1.02069332922432e+15
1.0196298458033e+15
1.01861018265008e+15
1.01763446826091e+15
1.01670132352239e+15
1.01580582863158e+15
1.01494782702196e+15
1.01411942874039e+15
1.01332940778879e+15
1.01257268533172e+15
1.0118569853598e+15
1.01117111179579e+15
1.01052264132925e+15
1.00990104659161e+15
1.00930638648326e+15
1.00873828595166e+15
1.0081979738106e+15
1.00768853816151e+15
1.00720453530447e+15
1.00674568353466e+15
1.00630546417955e+15
1.00588151256028e+15
1.00548375866844e+15
1.00511115483997e+15
1.00475391925994e+15
1.00441802565e+15
1.00410293129945e+15
1.00380050788733e+15
1.00350796429142e+15
1.00323500675097e+15
1.0029761981317e+15
1.00272843804894e+15
1.00248439104951e+15
1.00225272233441e+15
1.00201991291706e+15
1.00178795843527e+15
1.00154293840285e+15
1.00127688359199e+15
1.0009697413048e+15
)
;

boundaryField
{
    electrode
    {
        type            zeroGradient;
    }
    ground
    {
        type            zeroGradient;
    }
    otherfaces
    {
        type            empty;
    }
}


// ************************************************************************* //
