/*--------------------------------*- C++ -*----------------------------------*\
| =========                 |                                                 |
| \\      /  F ield         | foam-extend: Open Source CFD                    |
|  \\    /   O peration     | Version:     4.0                                |
|   \\  /    A nd           | Web:         http://www.foam-extend.org         |
|    \\/     M anipulation  |                                                 |
\*---------------------------------------------------------------------------*/
FoamFile
{
    version     2.0;
    format      ascii;
    class       volScalarField;
    location    "9e-07";
    object      Arp1;
}
// * * * * * * * * * * * * * * * * * * * * * * * * * * * * * * * * * * * * * //

dimensions      [0 0 0 1 0 0 0];

internalField   nonuniform List<scalar> 
300
(
6.09669068600768e+16
6.09899662865984e+16
6.09739947421048e+16
6.09636212183623e+16
6.09511384827124e+16
6.09348522242009e+16
6.09151147074851e+16
6.08918771542342e+16
6.08651726282207e+16
6.08349981309453e+16
6.08013501812387e+16
6.07642376197059e+16
6.07236644580822e+16
6.06796356726351e+16
6.06321579374518e+16
6.05812387534505e+16
6.05268866688408e+16
6.04691114689094e+16
6.04079242383692e+16
6.0343337423059e+16
6.02753649339947e+16
6.02040222164104e+16
6.01293262555525e+16
6.00512957859627e+16
5.99699511037327e+16
5.98853143561198e+16
5.97974093750496e+16
5.97062618088949e+16
5.9611899040886e+16
5.9514350317113e+16
5.94136465448827e+16
5.93098204394449e+16
5.92029064092078e+16
5.90929404817814e+16
5.89799603239168e+16
5.88640051247261e+16
5.87451155279965e+16
5.86233335726892e+16
5.84987025841322e+16
5.83712671003159e+16
5.82410727397348e+16
5.81081661496706e+16
5.79725948380805e+16
5.78344071125305e+16
5.76936519376131e+16
5.75503788318588e+16
5.7404637738592e+16
5.72564789539985e+16
5.71059528933172e+16
5.69531102035581e+16
5.67980012962427e+16
5.66406766840521e+16
5.64811863869697e+16
5.63195802673379e+16
5.61559075752734e+16
5.5990217076434e+16
5.58225568282948e+16
5.5652974130235e+16
5.54815154256219e+16
5.53082261778845e+16
5.51331508749455e+16
5.49563327617567e+16
5.47778140050289e+16
5.45976353931181e+16
5.4415836334639e+16
5.42324548850496e+16
5.40475274646917e+16
5.38610889587852e+16
5.36731726027504e+16
5.34838098235815e+16
5.32930302901618e+16
5.31008618032356e+16
5.29073301219125e+16
5.27124590812702e+16
5.25162703826177e+16
5.23187834435842e+16
5.21200157243576e+16
5.19199818790253e+16
5.17186947545482e+16
5.15161641115279e+16
5.1312397561271e+16
5.11073998874821e+16
5.09011730369015e+16
5.06937162987053e+16
5.04850258281867e+16
5.0275094836355e+16
5.00639133122867e+16
4.98514679942826e+16
4.96377422964926e+16
4.94227158745734e+16
4.92063652106595e+16
4.89886624618568e+16
4.87695763660262e+16
4.85490713745559e+16
4.83271077996377e+16
4.81036417230436e+16
4.78786246626223e+16
4.76520035784877e+16
4.74237206193962e+16
4.71937131080886e+16
4.69619130461811e+16
4.67282475681734e+16
4.64926380030937e+16
4.62550003756771e+16
4.60152449985105e+16
4.57732760595867e+16
4.55289920725624e+16
4.52822850874713e+16
4.50330409631635e+16
4.47811391378946e+16
4.4526452366429e+16
4.42688467681399e+16
4.40081817119029e+16
4.37443095159653e+16
4.34770756871655e+16
4.32063186248539e+16
4.29318695819637e+16
4.26535529022684e+16
4.2371185518601e+16
4.20845776976798e+16
4.1793532194428e+16
4.14978452525322e+16
4.1197305959187e+16
4.0891696871571e+16
4.05807938596111e+16
4.02643666774479e+16
3.99421787264751e+16
3.96139878283372e+16
3.92795461997587e+16
3.89386009624615e+16
3.859089445588e+16
3.82361649111962e+16
3.78741464147444e+16
3.7504570146274e+16
3.71271642520881e+16
3.67416549179101e+16
3.63477666963644e+16
3.59452234590799e+16
3.55337488144337e+16
3.51130670225102e+16
3.46829037042039e+16
3.42429867686803e+16
3.37930467661629e+16
3.33328185102274e+16
3.28620412500755e+16
3.23804596624924e+16
3.18878254491181e+16
3.13838973335055e+16
3.08684423945395e+16
3.03412380760653e+16
2.98020713630188e+16
2.92507420188019e+16
2.86870629565268e+16
2.81108616807129e+16
2.75219832465653e+16
2.69202912046024e+16
2.63056714320868e+16
2.56780372174615e+16
2.50373251780975e+16
2.43835192582714e+16
2.37166422048396e+16
2.30367591939803e+16
2.23440255107619e+16
2.16386471729305e+16
2.09209226167154e+16
2.01915888503099e+16
1.94511927415887e+16
1.86983389131646e+16
1.79404625637324e+16
1.71711235844402e+16
1.63934379874628e+16
1.56356765125108e+16
1.48757255904333e+16
1.41338452238895e+16
1.33897084635898e+16
1.26746233616294e+16
1.20049486439715e+16
1.1310089216339e+16
1.06881366854324e+16
1.00804411320777e+16
9.5136391213951e+15
8.97408654108461e+15
8.49334155966943e+15
8.05233579723658e+15
7.64260389892179e+15
7.29287565630868e+15
6.92485736766332e+15
6.63361651671137e+15
6.4007060098845e+15
6.14690001306732e+15
5.94557357446487e+15
5.78054252492949e+15
5.58661998046557e+15
5.43741388674772e+15
5.31475007866456e+15
5.21558929113932e+15
5.12417788951598e+15
5.05203461532771e+15
4.99396619304588e+15
4.9453964020907e+15
4.89201174084229e+15
4.84399577507767e+15
4.80368261257899e+15
4.74070612271676e+15
4.69268362705865e+15
4.64566605249856e+15
4.60401865180678e+15
4.55974538303203e+15
4.52143993155972e+15
4.48846933921647e+15
4.46216130223346e+15
4.44137807878972e+15
4.40524264821954e+15
4.37926406982839e+15
4.35707280148869e+15
4.33578443177898e+15
4.31764916495812e+15
4.30046846325122e+15
4.28439126139371e+15
4.26970251341617e+15
4.25892073713823e+15
4.24652786005439e+15
4.24258509639557e+15
4.23761547591844e+15
4.2263990090517e+15
4.21398376301371e+15
4.20488445054737e+15
4.19229275247404e+15
4.18365745385659e+15
4.16976308592098e+15
4.1595822973982e+15
4.14666636683023e+15
4.13674537066067e+15
4.12792312455199e+15
4.12050106781142e+15
4.11637428329157e+15
4.11254138733376e+15
4.10942925424254e+15
4.10625051462276e+15
4.10217417480368e+15
4.09370958639837e+15
4.07417666192563e+15
4.05439639978996e+15
4.0294594555256e+15
4.00934176913858e+15
3.98461957079461e+15
3.96566763122013e+15
3.94283975267189e+15
3.92577292817511e+15
3.90323759236835e+15
3.88666144671142e+15
3.86299325404908e+15
3.84474477096316e+15
3.81904925982434e+15
3.79906053934389e+15
3.77059268565469e+15
3.74884055146024e+15
3.7183702650818e+15
3.69478830101525e+15
3.66197855980834e+15
3.6373746195617e+15
3.60319480931222e+15
3.57798670748605e+15
3.54310192396411e+15
3.51643426606606e+15
3.47465250537247e+15
3.44471108149869e+15
3.40263341887714e+15
3.37316089809055e+15
3.33027270948139e+15
3.30021135797381e+15
3.25540175987566e+15
3.22436169029873e+15
3.17777740733896e+15
3.1458926124325e+15
3.0975555672462e+15
3.06524865801031e+15
3.01606297740807e+15
2.98450373522114e+15
2.935331276374e+15
2.90488644402635e+15
2.85573845515026e+15
2.82641224711793e+15
2.7774195943819e+15
2.74928706958601e+15
2.70047190206868e+15
2.67324597805913e+15
2.62430491374876e+15
2.59760505810881e+15
2.54830393676467e+15
2.5219030731193e+15
2.47223163573974e+15
2.44614502891246e+15
2.39614798137018e+15
2.37034556005921e+15
2.32007598362367e+15
2.29456520659749e+15
2.24411104790113e+15
2.21881936471072e+15
2.15583947697584e+15
)
;

boundaryField
{
    electrode
    {
        type            driftDiffusionPositiveIonDensity;
        seec            0;
        fieldName       Arp1;
        value           uniform 6.08881649624199e+16;
    }
    ground
    {
        type            driftDiffusionPositiveIonDensity;
        seec            0;
        fieldName       Arp1;
        value           uniform 2.15583947697584e+15;
    }
    otherfaces
    {
        type            empty;
    }
}


// ************************************************************************* //
