/*--------------------------------*- C++ -*----------------------------------*\
| =========                 |                                                 |
| \\      /  F ield         | foam-extend: Open Source CFD                    |
|  \\    /   O peration     | Version:     4.0                                |
|   \\  /    A nd           | Web:         http://www.foam-extend.org         |
|    \\/     M anipulation  |                                                 |
\*---------------------------------------------------------------------------*/
FoamFile
{
    version     2.0;
    format      ascii;
    class       volVectorField;
    location    "9e-07";
    object      E;
}
// * * * * * * * * * * * * * * * * * * * * * * * * * * * * * * * * * * * * * //

dimensions      [0 0 0 1 0 0 0];

internalField   nonuniform List<vector> 
300
(
(3.90627094420948 -0 -0)
(8.9413057707821 -0 -0)
(15.2303792744224 -0 -0)
(21.4446741239607 -0 -0)
(27.5656205653279 -0 -0)
(33.6902993045011 -0 -0)
(39.8193210737756 -0 -0)
(45.9512773914863 -0 -0)
(52.0859088276599 -0 -0)
(58.2236239721207 -0 -0)
(64.3644310349677 -0 -0)
(70.508002444903 -0 -0)
(76.6539981655886 -0 -0)
(82.8019155865706 -0 -0)
(88.9510664917057 -0 -0)
(95.100604745325 -0 -0)
(101.249522845013 -0 -0)
(107.396650377013 -0 -0)
(113.540659099633 -0 -0)
(119.680068975945 -0 -0)
(125.813255888453 -0 -0)
(131.938461381266 -0 -0)
(138.053802331559 -0 -0)
(144.157284705239 -0 -0)
(150.246815955326 -0 -0)
(156.320218910874 -0 -0)
(162.375248409509 -0 -0)
(168.409605952326 -0 -0)
(174.420955453832 -0 -0)
(180.406941061031 -0 -0)
(186.365202957414 -0 -0)
(192.293392683968 -0 -0)
(198.18919120009 -0 -0)
(204.050323300585 -0 -0)
(209.874572562565 -0 -0)
(215.659796745671 -0 -0)
(221.403940905995 -0 -0)
(227.105050111485 -0 -0)
(232.761281615559 -0 -0)
(238.37091587683 -0 -0)
(243.932366056305 -0 -0)
(249.444187143425 -0 -0)
(254.905083932358 -0 -0)
(260.313917392567 -0 -0)
(265.669710834718 -0 -0)
(270.971654597913 -0 -0)
(276.219109768216 -0 -0)
(281.411611775833 -0 -0)
(286.548871547583 -0 -0)
(291.630778584348 -0 -0)
(296.657400228359 -0 -0)
(301.628982965514 -0 -0)
(306.545952355402 -0 -0)
(311.408911415932 -0 -0)
(316.21864142187 -0 -0)
(320.976099266116 -0 -0)
(325.682417551297 -0 -0)
(330.338902865301 -0 -0)
(334.947034845368 -0 -0)
(339.50846495826 -0 -0)
(344.025016940675 -0 -0)
(348.498684751771 -0 -0)
(352.931633397541 -0 -0)
(357.326200790854 -0 -0)
(361.684895562524 -0 -0)
(366.010401362007 -0 -0)
(370.305578580075 -0 -0)
(374.573465344787 -0 -0)
(378.817283716617 -0 -0)
(383.040442443508 -0 -0)
(387.246541604026 -0 -0)
(391.439380888247 -0 -0)
(395.622963993186 -0 -0)
(399.801507017158 -0 -0)
(403.979449117894 -0 -0)
(408.161458131977 -0 -0)
(412.352446221766 -0 -0)
(416.557576074544 -0 -0)
(420.782277588169 -0 -0)
(425.032261178094 -0 -0)
(429.31352736563 -0 -0)
(433.632390882443 -0 -0)
(437.995489856093 -0 -0)
(442.409806643328 -0 -0)
(446.882687991966 -0 -0)
(451.421862195007 -0 -0)
(456.035461256272 -0 -0)
(460.732043058898 -0 -0)
(465.520616117671 -0 -0)
(470.410658101651 -0 -0)
(475.412148598412 -0 -0)
(480.535591547333 -0 -0)
(485.79203964926 -0 -0)
(491.193130548787 -0 -0)
(496.75110914267 -0 -0)
(502.478861465254 -0 -0)
(508.389946744848 -0 -0)
(514.498628022169 -0 -0)
(520.819907043386 -0 -0)
(527.369560542108 -0 -0)
(534.16417121605 -0 -0)
(541.22116989747 -0 -0)
(548.558871735267 -0 -0)
(556.196510135997 -0 -0)
(564.154286016083 -0 -0)
(572.453400274395 -0 -0)
(581.116099240726 -0 -0)
(590.165720688928 -0 -0)
(599.626732587846 -0 -0)
(609.5247847822 -0 -0)
(619.886754306467 -0 -0)
(630.740793132542 -0 -0)
(642.116384193126 -0 -0)
(654.04439100892 -0 -0)
(666.557114532907 -0 -0)
(679.688356151763 -0 -0)
(693.473475693669 -0 -0)
(707.949462365527 -0 -0)
(723.155003399943 -0 -0)
(739.130565394283 -0 -0)
(755.918475360634 -0 -0)
(773.563011338529 -0 -0)
(792.110508672566 -0 -0)
(811.609465771564 -0 -0)
(832.110668027962 -0 -0)
(853.667329080249 -0 -0)
(876.335242089373 -0 -0)
(900.172951295678 -0 -0)
(925.241952391781 -0 -0)
(951.606909942276 -0 -0)
(979.335907852288 -0 -0)
(1008.5007407388 -0 -0)
(1039.17723260639 -0 -0)
(1071.44561123768 -0 -0)
(1105.39093818736 -0 -0)
(1141.10359027289 -0 -0)
(1178.67982010443 -0 -0)
(1218.22240148492 -0 -0)
(1259.84136877824 -0 -0)
(1303.6548632936 -0 -0)
(1349.79011853509 -0 -0)
(1398.38459976992 -0 -0)
(1449.58730453724 -0 -0)
(1503.56028920262 -0 -0)
(1560.48044022015 -0 -0)
(1620.54150400043 -0 -0)
(1683.95649560466 -0 -0)
(1750.96048850453 -0 -0)
(1821.81384930335 -0 -0)
(1896.80610409322 -0 -0)
(1976.26042453708 -0 -0)
(2060.53892199643 -0 -0)
(2150.04896573243 -0 -0)
(2245.25061387227 -0 -0)
(2346.66550849121 -0 -0)
(2454.88748831954 -0 -0)
(2570.59532779596 -0 -0)
(2694.56813408262 -0 -0)
(2827.70357900198 -0 -0)
(2971.04082667315 -0 -0)
(3125.7882322868 -0 -0)
(3293.35566878925 -0 -0)
(3475.39621916895 -0 -0)
(3673.85557133648 -0 -0)
(3891.03659703864 -0 -0)
(4129.70253947272 -0 -0)
(4393.11818475113 -0 -0)
(4685.0668670112 -0 -0)
(5010.55091911335 -0 -0)
(5375.46711791188 -0 -0)
(5787.14726879081 -0 -0)
(6258.05946942939 -0 -0)
(6803.52698447102 -0 -0)
(7440.03767496135 -0 -0)
(8185.14170230565 -0 -0)
(9059.99990998916 -0 -0)
(10091.5783480839 -0 -0)
(11299.6302574162 -0 -0)
(12705.5973576849 -0 -0)
(14332.9791732772 -0 -0)
(16195.9069643284 -0 -0)
(18302.0708864606 -0 -0)
(20654.2595864447 -0 -0)
(23247.1612956957 -0 -0)
(26060.04700438 -0 -0)
(29066.1634255398 -0 -0)
(32220.0011446646 -0 -0)
(35478.0820455197 -0 -0)
(38817.2483596642 -0 -0)
(42193.8127084126 -0 -0)
(45570.0167605656 -0 -0)
(48932.3232928416 -0 -0)
(52251.5696078541 -0 -0)
(55511.1762615351 -0 -0)
(58714.527877112 -0 -0)
(61868.2104256945 -0 -0)
(64977.5574303199 -0 -0)
(68041.5649278107 -0 -0)
(71067.220401324 -0 -0)
(74061.9412147346 -0 -0)
(77027.0081360848 -0 -0)
(79962.2196923434 -0 -0)
(82871.0275592961 -0 -0)
(85748.7801812132 -0 -0)
(88593.1033449213 -0 -0)
(91408.790672957 -0 -0)
(94197.7598361003 -0 -0)
(96960.8341107415 -0 -0)
(99699.0148755915 -0 -0)
(102415.699702739 -0 -0)
(105114.50090072 -0 -0)
(107799.095592255 -0 -0)
(110466.519480229 -0 -0)
(113115.206908864 -0 -0)
(115749.363055439 -0 -0)
(118370.405802059 -0 -0)
(120979.561559669 -0 -0)
(123578.069163048 -0 -0)
(126166.550941215 -0 -0)
(128745.758720088 -0 -0)
(131317.290120144 -0 -0)
(133881.838119379 -0 -0)
(136441.464727583 -0 -0)
(138998.411597073 -0 -0)
(141550.483031769 -0 -0)
(144095.433076044 -0 -0)
(146633.905612709 -0 -0)
(149165.84831249 -0 -0)
(151691.401736452 -0 -0)
(154210.173924098 -0 -0)
(156721.69837424 -0 -0)
(159226.269699137 -0 -0)
(161723.965459314 -0 -0)
(164216.019449563 -0 -0)
(166703.185122108 -0 -0)
(169186.878046606 -0 -0)
(171668.181624382 -0 -0)
(174147.402624439 -0 -0)
(176624.738756589 -0 -0)
(179099.901205603 -0 -0)
(181571.299580227 -0 -0)
(184034.264179038 -0 -0)
(186485.38260003 -0 -0)
(188923.031169153 -0 -0)
(191347.102812648 -0 -0)
(193757.661493408 -0 -0)
(196155.057938849 -0 -0)
(198539.862863986 -0 -0)
(200912.644982145 -0 -0)
(203273.492688972 -0 -0)
(205622.554117203 -0 -0)
(207959.488068733 -0 -0)
(210283.790206984 -0 -0)
(212594.848889441 -0 -0)
(214892.139238764 -0 -0)
(217174.825004993 -0 -0)
(219442.373786927 -0 -0)
(221694.181394568 -0 -0)
(223929.695960853 -0 -0)
(226148.211420666 -0 -0)
(228349.418935129 -0 -0)
(230532.904968169 -0 -0)
(232698.486835147 -0 -0)
(234845.951260196 -0 -0)
(236974.857874634 -0 -0)
(239083.126516463 -0 -0)
(241169.769584112 -0 -0)
(243234.697801096 -0 -0)
(245278.052570697 -0 -0)
(247299.589685735 -0 -0)
(249299.131827978 -0 -0)
(251276.099536139 -0 -0)
(253230.19741795 -0 -0)
(255160.890106128 -0 -0)
(257067.922701859 -0 -0)
(258950.766321548 -0 -0)
(260809.29317595 -0 -0)
(262643.246772289 -0 -0)
(264452.852131197 -0 -0)
(266238.112993774 -0 -0)
(267999.365319397 -0 -0)
(269736.616370429 -0 -0)
(271450.203303034 -0 -0)
(273140.172861782 -0 -0)
(274806.884926459 -0 -0)
(276450.393018629 -0 -0)
(278070.970616368 -0 -0)
(279668.579808002 -0 -0)
(281243.379195398 -0 -0)
(282795.26021451 -0 -0)
(284324.312959335 -0 -0)
(285830.425590988 -0 -0)
(287313.692777296 -0 -0)
(288774.016237598 -0 -0)
(290211.481420372 -0 -0)
(291626.005989169 -0 -0)
(293017.677068253 -0 -0)
(294386.43919222 -0 -0)
(295732.382527277 -0 -0)
(297051.683740663 -0 -0)
)
;

boundaryField
{
    electrode
    {
        type            calculated;
        value           uniform (2.00594115995046 -0 -0);
    }
    ground
    {
        type            calculated;
        value           uniform (297701.815250032 -0 -0);
    }
    otherfaces
    {
        type            empty;
    }
}


// ************************************************************************* //
