/*--------------------------------*- C++ -*----------------------------------*\
| =========                 |                                                 |
| \\      /  F ield         | foam-extend: Open Source CFD                    |
|  \\    /   O peration     | Version:     4.0                                |
|   \\  /    A nd           | Web:         http://www.foam-extend.org         |
|    \\/     M anipulation  |                                                 |
\*---------------------------------------------------------------------------*/
FoamFile
{
    version     2.0;
    format      ascii;
    class       volScalarField;
    location    "9e-07";
    object      electron;
}
// * * * * * * * * * * * * * * * * * * * * * * * * * * * * * * * * * * * * * //

dimensions      [0 0 0 1 0 0 0];

internalField   nonuniform List<scalar> 
300
(
6.09714851850341e+16
6.09688833161237e+16
6.09630796950323e+16
6.09537751820811e+16
6.09409808769251e+16
6.0924705133601e+16
6.09049492032582e+16
6.08817149462568e+16
6.08550048084766e+16
6.08248217971276e+16
6.07911694161985e+16
6.07540518553003e+16
6.07134740790976e+16
6.06694418860833e+16
6.06219620049271e+16
6.05710421871671e+16
6.05166912948472e+16
6.04589193880366e+16
6.03977378098459e+16
6.03331592671536e+16
6.02651979061402e+16
6.01938693814801e+16
6.01191909185623e+16
6.00411813676352e+16
5.99598612490864e+16
5.98752527897632e+16
5.97873799492639e+16
5.96962684360112e+16
5.96019457133351e+16
5.95044409948772e+16
5.94037852293943e+16
5.93000110756714e+16
5.91931528671614e+16
5.9083246566746e+16
5.8970329712554e+16
5.88544413548102e+16
5.87356219844085e+16
5.86139134540691e+16
5.84893588925625e+16
5.8362002612674e+16
5.82318900137905e+16
5.80990674798236e+16
5.79635822730876e+16
5.78254824250321e+16
5.76848166244959e+16
5.75416341041072e+16
5.73959845256367e+16
5.72479178647394e+16
5.70974842958996e+16
5.69447340778601e+16
5.67897174401283e+16
5.66324844711304e+16
5.64730850079552e+16
5.63115685285048e+16
5.61479840459101e+16
5.59823800055464e+16
5.58148041848674e+16
5.56453035958984e+16
5.54739243906617e+16
5.53007117694495e+16
5.51257098916643e+16
5.49489617893968e+16
5.47705092836977e+16
5.45903929026512e+16
5.44086518019269e+16
5.42253236872686e+16
5.40404447380498e+16
5.3854049532643e+16
5.36661709746032e+16
5.34768402193024e+16
5.32860866013784e+16
5.309393756181e+16
5.29004185747074e+16
5.27055530738579e+16
5.25093623776901e+16
5.23118656133932e+16
5.21130796391469e+16
5.19130189644417e+16
5.17116956684619e+16
5.1509119315044e+16
5.13052968659695e+16
5.1100232590425e+16
5.08939279709498e+16
5.06863816067659e+16
5.04775891124181e+16
5.02675430128398e+16
5.00562326346082e+16
4.98436439928019e+16
4.96297596732268e+16
4.94145587111268e+16
4.91980164652457e+16
4.8980104486847e+16
4.87607903859239e+16
4.85400376923297e+16
4.83178057129131e+16
4.80940493857017e+16
4.78687191298839e+16
4.76417606930244e+16
4.74131149957268e+16
4.71827179735073e+16
4.6950500417562e+16
4.67163878143334e+16
4.64803001838955e+16
4.62421519199466e+16
4.60018516301242e+16
4.57593019782891e+16
4.55143995309428e+16
4.5267034606721e+16
4.50170911319638e+16
4.47644465030123e+16
4.45089714559432e+16
4.42505299465341e+16
4.39889790406525e+16
4.37241688170927e+16
4.34559422852188e+16
4.31841353176755e+16
4.2908576600907e+16
4.2629087605072e+16
4.234548257483e+16
4.20575685427677e+16
4.17651453670241e+16
4.14680057956611e+16
4.11659355578396e+16
4.08587134839715e+16
4.05461116569433e+16
4.022789559402e+16
3.9903824460895e+16
3.95736513193657e+16
3.92371234077508e+16
3.88939824543924e+16
3.85439650247675e+16
3.81868028998665e+16
3.78222234855651e+16
3.74499502516697e+16
3.70697031964816e+16
3.66811993351992e+16
3.6284153208868e+16
3.58782774082038e+16
3.5463283107301e+16
3.50388806022836e+16
3.46047798476904e+16
3.41606909814173e+16
3.37063248316497e+16
3.32413933961814e+16
3.27656102810913e+16
3.22786910913191e+16
3.17803537595037e+16
3.12703187974e+16
3.07483094630292e+16
3.02140518249896e+16
2.966727470881e+16
2.91077095189671e+16
2.8535089917537e+16
2.79491513504951e+16
2.73496304163516e+16
2.6736264070424e+16
2.61087886711107e+16
2.54669388722424e+16
2.48104464198846e+16
2.4139038868748e+16
2.34524382383956e+16
2.27503598950253e+16
2.20325117980822e+16
2.12985942929172e+16
2.05483008522659e+16
1.97813186973766e+16
1.89973326404727e+16
1.81960441917441e+16
1.73771609099402e+16
1.65403844562051e+16
1.56854316127156e+16
1.48118589639092e+16
1.39189541074214e+16
1.30060112446374e+16
1.20727847802012e+16
1.11199140418182e+16
1.01492142402396e+16
9.16449859569795e+15
8.17238041296829e+15
7.18244178725832e+15
6.20743403269501e+15
5.26307032182438e+15
4.3669731392328e+15
3.53706391179452e+15
2.78970122237e+15
2.13761389775699e+15
1.58818558539494e+15
1.14244027589054e+15
794959071325935
535125788785855
348981478297859
221101441192073
136734078537807
83216975672651.1
50316206005802.8
30753598059011.4
18854052666564.8
11200710815559.4
6428621239200.07
3754926756389.52
2388019114704.65
1698783020991.39
1341863921647.57
1150358354672.08
1045321473515.51
988129897272.388
958633706540.782
945238052295.173
940994932125.526
941553063187.124
944654663582.205
948637716492.222
952430692547.027
955307689301.526
956736375312.272
956615967981.758
954704606378.861
950926494922.155
945279330513.134
937784547818.672
928504211936.472
917559126788.122
905087623440.086
891240195812.629
876172746918.622
860043584591.462
843009249514.576
825221512301.95
806825575601.797
787958704175.428
768749333907.278
749316219925.264
729767949199.812
710202637249.779
690707918794.688
671361222685.985
652230145422.828
633373161859.794
614840313746.165
596673861216.445
578909102105.327
561575065179.769
544695163965.618
528279535330.658
512335544582.61
496874748258.691
481904021909.996
467426588504.654
453442011227.372
439946796063.05
426934876794.366
414398084312.373
402326572738.075
390709214879.323
379533798835.469
368788248323.565
358459370802.047
348530941712.533
338987641555.916
329816449939.386
321003847863.482
312535751658.337
304398243442.168
296577643643.268
289060637997.907
281834448502.227
274886875993.554
268206186551.176
261780864169.221
255599640186.352
249647505894.656
243906842515.345
238365288132.689
233014880044.58
227848624360.228
222860305605.038
218044272390.519
213395420100.043
208909180251.864
204581519673.451
200408968747.078
196388279824.68
192516172568.955
188781110568.583
185162614844.253
181653196736.874
178260342645.921
174993315834.527
171861979489.288
168856522542.23
165960313058.797
163187324044.373
160572477475.61
158112169604.969
155828724832.122
153787520111.881
152086305165.163
150935235841.196
150563568840.549
151626960276.42
)
;

boundaryField
{
    electrode
    {
        type            driftDiffusionElectronDensity;
        seec            0.05;
        Edepend         1;
        field_emission  0;
        field_enhancement_factor 55;
        work_function   5;
        value           uniform 6.09714851850341e+16;
    }
    ground
    {
        type            driftDiffusionElectronDensity;
        seec            0.05;
        Edepend         1;
        field_emission  0;
        field_enhancement_factor 55;
        work_function   5;
        value           uniform 153247283954.722;
    }
    otherfaces
    {
        type            empty;
    }
}


// ************************************************************************* //
