/*--------------------------------*- C++ -*----------------------------------*\
| =========                 |                                                 |
| \\      /  F ield         | foam-extend: Open Source CFD                    |
|  \\    /   O peration     | Version:     4.0                                |
|   \\  /    A nd           | Web:         http://www.foam-extend.org         |
|    \\/     M anipulation  |                                                 |
\*---------------------------------------------------------------------------*/
FoamFile
{
    version     2.0;
    format      ascii;
    class       volVectorField;
    location    "9e-07";
    object      J_Arp1;
}
// * * * * * * * * * * * * * * * * * * * * * * * * * * * * * * * * * * * * * //

dimensions      [1 -1 -1 0 0 0 0];

internalField   nonuniform List<vector> 
300
(
(1.69823098115264e+16 -0 -0)
(5.46232605218961e+16 -0 -0)
(9.41359443374443e+16 -0 -0)
(1.31557763201474e+17 -0 -0)
(1.69027191369889e+17 -0 -0)
(2.06533063766427e+17 -0 -0)
(2.4400971263918e+17 -0 -0)
(2.8145435229777e+17 -0 -0)
(3.1885735619058e+17 -0 -0)
(3.56216213835137e+17 -0 -0)
(3.93524092347168e+17 -0 -0)
(4.30772368573056e+17 -0 -0)
(4.67952773030523e+17 -0 -0)
(5.05055824497945e+17 -0 -0)
(5.42070964851498e+17 -0 -0)
(5.78986750826466e+17 -0 -0)
(6.15790804871738e+17 -0 -0)
(6.5246982605679e+17 -0 -0)
(6.89009639759785e+17 -0 -0)
(7.25395247237362e+17 -0 -0)
(7.61610887797075e+17 -0 -0)
(7.9764011739349e+17 -0 -0)
(8.33465877062517e+17 -0 -0)
(8.69070601594431e+17 -0 -0)
(9.04436304039218e+17 -0 -0)
(9.39544677774631e+17 -0 -0)
(9.74377214910836e+17 -0 -0)
(1.00891530716532e+18 -0 -0)
(1.04314035257885e+18 -0 -0)
(1.07703388138996e+18 -0 -0)
(1.11057765772646e+18 -0 -0)
(1.14375378051071e+18 -0 -0)
(1.17654480632936e+18 -0 -0)
(1.20893383600667e+18 -0 -0)
(1.24090461133944e+18 -0 -0)
(1.27244161171034e+18 -0 -0)
(1.30353013073739e+18 -0 -0)
(1.33415635271547e+18 -0 -0)
(1.36430742185752e+18 -0 -0)
(1.39397150399843e+18 -0 -0)
(1.42313783447282e+18 -0 -0)
(1.45179676610748e+18 -0 -0)
(1.47993980493928e+18 -0 -0)
(1.50755963618148e+18 -0 -0)
(1.53465014796521e+18 -0 -0)
(1.5612064438527e+18 -0 -0)
(1.58722484699028e+18 -0 -0)
(1.61270290897103e+18 -0 -0)
(1.63763938793042e+18 -0 -0)
(1.66203426216679e+18 -0 -0)
(1.6858886871337e+18 -0 -0)
(1.70920499952295e+18 -0 -0)
(1.7319866809017e+18 -0 -0)
(1.75423833386621e+18 -0 -0)
(1.77596566081272e+18 -0 -0)
(1.79717542364331e+18 -0 -0)
(1.81787542314205e+18 -0 -0)
(1.83807446144903e+18 -0 -0)
(1.85778231470323e+18 -0 -0)
(1.87700969605272e+18 -0 -0)
(1.89576824109969e+18 -0 -0)
(1.91407045855359e+18 -0 -0)
(1.93192971827603e+18 -0 -0)
(1.94936023373365e+18 -0 -0)
(1.96637701340182e+18 -0 -0)
(1.98299587129422e+18 -0 -0)
(1.99923339829874e+18 -0 -0)
(2.01510693922024e+18 -0 -0)
(2.03063460560587e+18 -0 -0)
(2.04583525140087e+18 -0 -0)
(2.06072847015507e+18 -0 -0)
(2.07533461490649e+18 -0 -0)
(2.08967477661757e+18 -0 -0)
(2.10377080387235e+18 -0 -0)
(2.11764532911223e+18 -0 -0)
(2.13132173848801e+18 -0 -0)
(2.14482425859899e+18 -0 -0)
(2.15817789246678e+18 -0 -0)
(2.17140852490941e+18 -0 -0)
(2.1845429007406e+18 -0 -0)
(2.19760864767648e+18 -0 -0)
(2.21063436264398e+18 -0 -0)
(2.22364957792462e+18 -0 -0)
(2.23668484237394e+18 -0 -0)
(2.24977174891627e+18 -0 -0)
(2.26294296491027e+18 -0 -0)
(2.27623227916852e+18 -0 -0)
(2.2896746391895e+18 -0 -0)
(2.3033062178603e+18 -0 -0)
(2.31716438726531e+18 -0 -0)
(2.33128785625259e+18 -0 -0)
(2.34571663133211e+18 -0 -0)
(2.36049207843389e+18 -0 -0)
(2.37565699124817e+18 -0 -0)
(2.39125557434349e+18 -0 -0)
(2.40733351113712e+18 -0 -0)
(2.42393798023559e+18 -0 -0)
(2.4411176732405e+18 -0 -0)
(2.45892281390809e+18 -0 -0)
(2.47740519357146e+18 -0 -0)
(2.4966181186777e+18 -0 -0)
(2.51661648224942e+18 -0 -0)
(2.53745670262048e+18 -0 -0)
(2.55919669548828e+18 -0 -0)
(2.581895907856e+18 -0 -0)
(2.6056151902774e+18 -0 -0)
(2.6304168059997e+18 -0 -0)
(2.65636434658795e+18 -0 -0)
(2.68352262641908e+18 -0 -0)
(2.711957626788e+18 -0 -0)
(2.7417363546958e+18 -0 -0)
(2.77292671102415e+18 -0 -0)
(2.80559737724484e+18 -0 -0)
(2.83981760662736e+18 -0 -0)
(2.87565706302792e+18 -0 -0)
(2.91318562943645e+18 -0 -0)
(2.95247314426643e+18 -0 -0)
(2.99358921083486e+18 -0 -0)
(3.03660286809202e+18 -0 -0)
(3.08158238789263e+18 -0 -0)
(3.12859488813942e+18 -0 -0)
(3.17770606705683e+18 -0 -0)
(3.22897984741388e+18 -0 -0)
(3.28247801798322e+18 -0 -0)
(3.33825984386192e+18 -0 -0)
(3.39638173118426e+18 -0 -0)
(3.45689677683087e+18 -0 -0)
(3.51985439425286e+18 -0 -0)
(3.5852999086053e+18 -0 -0)
(3.65327413558281e+18 -0 -0)
(3.7238129617871e+18 -0 -0)
(3.79694700538388e+18 -0 -0)
(3.87270113474672e+18 -0 -0)
(3.95109418465502e+18 -0 -0)
(4.03213856668855e+18 -0 -0)
(4.11583996354373e+18 -0 -0)
(4.20219702658713e+18 -0 -0)
(4.29120117616603e+18 -0 -0)
(4.38283638296956e+18 -0 -0)
(4.47707902815966e+18 -0 -0)
(4.57389783929817e+18 -0 -0)
(4.67325394109666e+18 -0 -0)
(4.77510080918931e+18 -0 -0)
(4.87938456818325e+18 -0 -0)
(4.98604419895251e+18 -0 -0)
(5.09501178053687e+18 -0 -0)
(5.20621314623856e+18 -0 -0)
(5.31956830495269e+18 -0 -0)
(5.43499199122233e+18 -0 -0)
(5.55239479754484e+18 -0 -0)
(5.67168361359609e+18 -0 -0)
(5.79276286366668e+18 -0 -0)
(5.91553555849043e+18 -0 -0)
(6.03990423065906e+18 -0 -0)
(6.16577241747711e+18 -0 -0)
(6.29304558597195e+18 -0 -0)
(6.42163245413549e+18 -0 -0)
(6.55144703798326e+18 -0 -0)
(6.68240621542396e+18 -0 -0)
(6.81443647951374e+18 -0 -0)
(6.94747193614859e+18 -0 -0)
(7.08144787857649e+18 -0 -0)
(7.21631377087914e+18 -0 -0)
(7.35201317043244e+18 -0 -0)
(7.48847639921314e+18 -0 -0)
(7.62580100459716e+18 -0 -0)
(7.76399112730578e+18 -0 -0)
(7.90161931766528e+18 -0 -0)
(8.04187008141278e+18 -0 -0)
(8.18159075995707e+18 -0 -0)
(8.32013783913564e+18 -0 -0)
(8.46194939386934e+18 -0 -0)
(8.59592045900641e+18 -0 -0)
(8.74197826859605e+18 -0 -0)
(8.87674028474289e+18 -0 -0)
(9.00753306224351e+18 -0 -0)
(9.14102227918829e+18 -0 -0)
(9.26747423372462e+18 -0 -0)
(9.38691419057447e+18 -0 -0)
(9.51737765975389e+18 -0 -0)
(9.62504697566587e+18 -0 -0)
(9.7235765713292e+18 -0 -0)
(9.83823595886739e+18 -0 -0)
(9.92654403618715e+18 -0 -0)
(1.00372596299128e+19 -0 -0)
(1.00946465141312e+19 -0 -0)
(1.01684273653217e+19 -0 -0)
(1.02269698821974e+19 -0 -0)
(1.03176725493271e+19 -0 -0)
(1.03799770532381e+19 -0 -0)
(1.04347687774327e+19 -0 -0)
(1.04702756954235e+19 -0 -0)
(1.05099254940439e+19 -0 -0)
(1.0567047981404e+19 -0 -0)
(1.06199717882459e+19 -0 -0)
(1.0671714668104e+19 -0 -0)
(1.07401074199943e+19 -0 -0)
(1.08698019081725e+19 -0 -0)
(1.10001410584412e+19 -0 -0)
(1.11251433242448e+19 -0 -0)
(1.12144238567149e+19 -0 -0)
(1.12920857867226e+19 -0 -0)
(1.13701467445334e+19 -0 -0)
(1.14465388868289e+19 -0 -0)
(1.15401852764134e+19 -0 -0)
(1.1619675136363e+19 -0 -0)
(1.16969706869011e+19 -0 -0)
(1.17527130393182e+19 -0 -0)
(1.18096434302252e+19 -0 -0)
(1.18674949362317e+19 -0 -0)
(1.19309605291906e+19 -0 -0)
(1.20041416273896e+19 -0 -0)
(1.20776825695252e+19 -0 -0)
(1.21694127448551e+19 -0 -0)
(1.226330664684e+19 -0 -0)
(1.23517453280728e+19 -0 -0)
(1.24415437000038e+19 -0 -0)
(1.25268452097912e+19 -0 -0)
(1.26083259317302e+19 -0 -0)
(1.26870760690329e+19 -0 -0)
(1.27710079112483e+19 -0 -0)
(1.28438047223273e+19 -0 -0)
(1.29362290895932e+19 -0 -0)
(1.30200489007882e+19 -0 -0)
(1.31112986140594e+19 -0 -0)
(1.32083830606234e+19 -0 -0)
(1.33113528220308e+19 -0 -0)
(1.33987836578682e+19 -0 -0)
(1.34944709201631e+19 -0 -0)
(1.35687949810621e+19 -0 -0)
(1.36507720113536e+19 -0 -0)
(1.37194706754853e+19 -0 -0)
(1.37938064394869e+19 -0 -0)
(1.38677896128891e+19 -0 -0)
(1.39425674162437e+19 -0 -0)
(1.40248164468435e+19 -0 -0)
(1.41045491594437e+19 -0 -0)
(1.41832708978585e+19 -0 -0)
(1.42583267015074e+19 -0 -0)
(1.43268359331806e+19 -0 -0)
(1.43764974310851e+19 -0 -0)
(1.44193606493082e+19 -0 -0)
(1.44599260307355e+19 -0 -0)
(1.4478152142652e+19 -0 -0)
(1.45098431954684e+19 -0 -0)
(1.45211059145827e+19 -0 -0)
(1.45497523224093e+19 -0 -0)
(1.45606836285296e+19 -0 -0)
(1.45895408820953e+19 -0 -0)
(1.45947911902976e+19 -0 -0)
(1.46191309302939e+19 -0 -0)
(1.46136231995997e+19 -0 -0)
(1.4625453579951e+19 -0 -0)
(1.46057932776283e+19 -0 -0)
(1.460481952534e+19 -0 -0)
(1.45680903335748e+19 -0 -0)
(1.45541795735484e+19 -0 -0)
(1.45033168352736e+19 -0 -0)
(1.44762479734087e+19 -0 -0)
(1.44099635135066e+19 -0 -0)
(1.43729733021125e+19 -0 -0)
(1.42951964878249e+19 -0 -0)
(1.42501377234401e+19 -0 -0)
(1.41637405159445e+19 -0 -0)
(1.41160774870065e+19 -0 -0)
(1.40210273668197e+19 -0 -0)
(1.39706105942116e+19 -0 -0)
(1.38679176916682e+19 -0 -0)
(1.38136408850084e+19 -0 -0)
(1.37015151214052e+19 -0 -0)
(1.36393137229161e+19 -0 -0)
(1.35133253989723e+19 -0 -0)
(1.34417132038996e+19 -0 -0)
(1.33025436493808e+19 -0 -0)
(1.32222089682494e+19 -0 -0)
(1.30700522051952e+19 -0 -0)
(1.29829288437797e+19 -0 -0)
(1.28217604542387e+19 -0 -0)
(1.27330665957967e+19 -0 -0)
(1.25668392444818e+19 -0 -0)
(1.24784986791945e+19 -0 -0)
(1.23075884230273e+19 -0 -0)
(1.2219970099535e+19 -0 -0)
(1.20452525394942e+19 -0 -0)
(1.19590175058486e+19 -0 -0)
(1.17808932137147e+19 -0 -0)
(1.16951040519826e+19 -0 -0)
(1.15125189408642e+19 -0 -0)
(1.14257697477341e+19 -0 -0)
(1.12379216309232e+19 -0 -0)
(1.11494300647395e+19 -0 -0)
(1.09564733491245e+19 -0 -0)
(1.08665051816697e+19 -0 -0)
(1.06688321443239e+19 -0 -0)
(1.05774435555291e+19 -0 -0)
(1.03754781802318e+19 -0 -0)
(1.02828828686517e+19 -0 -0)
(1.00772023825911e+19 -0 -0)
(9.98332060355653e+18 -0 -0)
(9.71827095816527e+18 -0 -0)
)
;

boundaryField
{
    electrode
    {
        type            calculated;
        value           uniform (-1385588947.904 -0 -0);
    }
    ground
    {
        type            calculated;
        value           uniform (9.7269143319489e+18 -0 -0);
    }
    otherfaces
    {
        type            empty;
    }
}


// ************************************************************************* //
