/*--------------------------------*- C++ -*----------------------------------*\
| =========                 |                                                 |
| \\      /  F ield         | foam-extend: Open Source CFD                    |
|  \\    /   O peration     | Version:     4.0                                |
|   \\  /    A nd           | Web:         http://www.foam-extend.org         |
|    \\/     M anipulation  |                                                 |
\*---------------------------------------------------------------------------*/
FoamFile
{
    version     2.0;
    format      ascii;
    class       volVectorField;
    location    "9e-07";
    object      J_electron;
}
// * * * * * * * * * * * * * * * * * * * * * * * * * * * * * * * * * * * * * //

dimensions      [1 -1 -1 0 0 0 0];

internalField   nonuniform List<vector> 
300
(
(-1.21685165189283e+19 0 0)
(-1.21014780871287e+19 0 0)
(-1.39218981020671e+19 0 0)
(-1.39127762472926e+19 0 0)
(-1.38291565973069e+19 0 0)
(-1.37935429145831e+19 0 0)
(-1.37568907322938e+19 0 0)
(-1.37211892674174e+19 0 0)
(-1.36844559329131e+19 0 0)
(-1.36484385290878e+19 0 0)
(-1.36129435074857e+19 0 0)
(-1.35775745838424e+19 0 0)
(-1.35425581548979e+19 0 0)
(-1.35079152978943e+19 0 0)
(-1.34736237391072e+19 0 0)
(-1.3439698181975e+19 0 0)
(-1.34061485806609e+19 0 0)
(-1.33729772193516e+19 0 0)
(-1.33401851861472e+19 0 0)
(-1.33077712374042e+19 0 0)
(-1.32757312202728e+19 0 0)
(-1.32440616829296e+19 0 0)
(-1.32127531684596e+19 0 0)
(-1.31817986323834e+19 0 0)
(-1.31511890632926e+19 0 0)
(-1.31209117042678e+19 0 0)
(-1.30909568775139e+19 0 0)
(-1.30613134821771e+19 0 0)
(-1.30319676972021e+19 0 0)
(-1.30029086032302e+19 0 0)
(-1.29741262483069e+19 0 0)
(-1.29456066392267e+19 0 0)
(-1.29173412432957e+19 0 0)
(-1.28893205340108e+19 0 0)
(-1.28615344124356e+19 0 0)
(-1.28339759087155e+19 0 0)
(-1.28066383581361e+19 0 0)
(-1.27795157716917e+19 0 0)
(-1.27526034107505e+19 0 0)
(-1.27258983876917e+19 0 0)
(-1.26993979511493e+19 0 0)
(-1.26731004848193e+19 0 0)
(-1.2647006174353e+19 0 0)
(-1.26211148689999e+19 0 0)
(-1.25954278763581e+19 0 0)
(-1.25699473157424e+19 0 0)
(-1.25446744868019e+19 0 0)
(-1.2519613748139e+19 0 0)
(-1.24947655312385e+19 0 0)
(-1.24701351442024e+19 0 0)
(-1.24457239271498e+19 0 0)
(-1.24215343421074e+19 0 0)
(-1.23975702255687e+19 0 0)
(-1.23738308256295e+19 0 0)
(-1.23503196329059e+19 0 0)
(-1.23270350086186e+19 0 0)
(-1.23039772920172e+19 0 0)
(-1.2281144396814e+19 0 0)
(-1.22585341187717e+19 0 0)
(-1.22361407138717e+19 0 0)
(-1.22139610765761e+19 0 0)
(-1.21919874179693e+19 0 0)
(-1.21702094129209e+19 0 0)
(-1.21486216529277e+19 0 0)
(-1.21272088932765e+19 0 0)
(-1.21059587257941e+19 0 0)
(-1.20848588514593e+19 0 0)
(-1.2063889241985e+19 0 0)
(-1.20430337980773e+19 0 0)
(-1.20222731451734e+19 0 0)
(-1.20015823917865e+19 0 0)
(-1.19809411148273e+19 0 0)
(-1.19603231274414e+19 0 0)
(-1.19396982378699e+19 0 0)
(-1.1919043071963e+19 0 0)
(-1.18983194124516e+19 0 0)
(-1.18775019890153e+19 0 0)
(-1.1856550668387e+19 0 0)
(-1.18354291954984e+19 0 0)
(-1.18141062218121e+19 0 0)
(-1.17925303178594e+19 0 0)
(-1.17706698328076e+19 0 0)
(-1.17484766917847e+19 0 0)
(-1.17259042785633e+19 0 0)
(-1.17029088355198e+19 0 0)
(-1.16794398100176e+19 0 0)
(-1.16554472047352e+19 0 0)
(-1.1630876238666e+19 0 0)
(-1.16056807581999e+19 0 0)
(-1.15797961038627e+19 0 0)
(-1.15531704654302e+19 0 0)
(-1.15257494698543e+19 0 0)
(-1.14974640390611e+19 0 0)
(-1.14682627174884e+19 0 0)
(-1.14380790773019e+19 0 0)
(-1.14068501182315e+19 0 0)
(-1.13745140984431e+19 0 0)
(-1.13410051342189e+19 0 0)
(-1.13062556989102e+19 0 0)
(-1.12702056559175e+19 0 0)
(-1.12327823404706e+19 0 0)
(-1.11939209174833e+19 0 0)
(-1.11535609182196e+19 0 0)
(-1.11116246940134e+19 0 0)
(-1.10680566241522e+19 0 0)
(-1.10227871847783e+19 0 0)
(-1.09757489692866e+19 0 0)
(-1.09268853470669e+19 0 0)
(-1.08761275450461e+19 0 0)
(-1.08234176880344e+19 0 0)
(-1.07686985692034e+19 0 0)
(-1.07119079661807e+19 0 0)
(-1.06529954042195e+19 0 0)
(-1.0591907546825e+19 0 0)
(-1.05285899524977e+19 0 0)
(-1.04630004489986e+19 0 0)
(-1.03950889124134e+19 0 0)
(-1.03248166477711e+19 0 0)
(-1.02521390523634e+19 0 0)
(-1.01770215560619e+19 0 0)
(-1.00994298884758e+19 0 0)
(-1.00193246515377e+19 0 0)
(-9.9366795486382e+18 0 0)
(-9.85146288125614e+18 0 0)
(-9.76364073069314e+18 0 0)
(-9.67318495545682e+18 0 0)
(-9.5800652355118e+18 0 0)
(-9.48424229886099e+18 0 0)
(-9.38568174701904e+18 0 0)
(-9.28434090494447e+18 0 0)
(-9.18016371742894e+18 0 0)
(-9.07309746237945e+18 0 0)
(-8.96306868247383e+18 0 0)
(-8.84998819032492e+18 0 0)
(-8.73375923655148e+18 0 0)
(-8.61425732101341e+18 0 0)
(-8.49133267846798e+18 0 0)
(-8.36480832843232e+18 0 0)
(-8.23447787538691e+18 0 0)
(-8.10008854262815e+18 0 0)
(-7.96133937522829e+18 0 0)
(-7.81789098859404e+18 0 0)
(-7.6693280335216e+18 0 0)
(-7.51516391402321e+18 0 0)
(-7.35485619785538e+18 0 0)
(-7.18773748636005e+18 0 0)
(-7.01305106182386e+18 0 0)
(-6.82994569663899e+18 0 0)
(-6.63738096478061e+18 0 0)
(-6.43420649185346e+18 0 0)
(-6.21909553014899e+18 0 0)
(-5.99048306843714e+18 0 0)
(-5.74662602106654e+18 0 0)
(-5.48549211346646e+18 0 0)
(-5.20476949022664e+18 0 0)
(-4.90182507703252e+18 0 0)
(-4.57359410639195e+18 0 0)
(-4.21684940607534e+18 0 0)
(-3.82746823534261e+18 0 0)
(-3.40091066978402e+18 0 0)
(-2.93304064493067e+18 0 0)
(-2.41805101573341e+18 0 0)
(-1.85021916807116e+18 0 0)
(-1.22289453722082e+18 0 0)
(-5.1963197449044e+17 0 0)
(2.51680822558458e+17 0 0)
(1.03906123306553e+18 0 0)
(2.11349656715028e+18 0 0)
(3.28231609033766e+18 0 0)
(4.60578181435359e+18 0 0)
(7.32202365810744e+18 0 0)
(1.00552197112825e+19 0 0)
(1.20180688103397e+19 0 0)
(1.30452237298633e+19 0 0)
(1.3603562735079e+19 0 0)
(1.42373075900873e+19 0 0)
(1.14461938860457e+19 0 0)
(8.41056098150934e+18 0 0)
(5.63753800785776e+18 0 0)
(2.04889493429499e+18 0 0)
(5.67716787047629e+16 0 0)
(1.19225148033414e+18 0 0)
(6.07056453396595e+18 0 0)
(1.43520001243816e+19 0 0)
(2.64020633451453e+19 0 0)
(3.95220569877014e+19 0 0)
(5.22494359323216e+19 0 0)
(6.17965598016232e+19 0 0)
(6.49331515349727e+19 0 0)
(6.24094028980174e+19 0 0)
(5.53790660944858e+19 0 0)
(4.35999167743348e+19 0 0)
(3.11152612540247e+19 0 0)
(2.07518747334612e+19 0 0)
(1.01410163441296e+19 0 0)
(7.56606081956624e+18 0 0)
(6.83947781647491e+17 0 0)
(-1.10593900728226e+18 0 0)
(-1.599781718741e+18 0 0)
(-1.59753499997803e+18 0 0)
(-1.90464404085992e+18 0 0)
(-2.15019316321374e+18 0 0)
(-2.27883011818884e+18 0 0)
(-2.33148151873957e+18 0 0)
(-2.34029153950866e+18 0 0)
(-2.32674529833726e+18 0 0)
(-2.30736714518739e+18 0 0)
(-2.27820843153299e+18 0 0)
(-2.24230156153905e+18 0 0)
(-2.20402511695692e+18 0 0)
(-2.16757701391244e+18 0 0)
(-2.12933040129156e+18 0 0)
(-2.09059071716939e+18 0 0)
(-2.05061134114484e+18 0 0)
(-2.01072610192218e+18 0 0)
(-1.9713124591925e+18 0 0)
(-1.93103413612254e+18 0 0)
(-1.89078715895965e+18 0 0)
(-1.85020855417752e+18 0 0)
(-1.81044487925726e+18 0 0)
(-1.77054765042392e+18 0 0)
(-1.7310491465586e+18 0 0)
(-1.69196728837059e+18 0 0)
(-1.65341382743737e+18 0 0)
(-1.61543536782897e+18 0 0)
(-1.57808139812438e+18 0 0)
(-1.54140780687716e+18 0 0)
(-1.50545158267243e+18 0 0)
(-1.4702476823348e+18 0 0)
(-1.43582121192684e+18 0 0)
(-1.40219067206142e+18 0 0)
(-1.36937334578823e+18 0 0)
(-1.33737573381943e+18 0 0)
(-1.30620675863914e+18 0 0)
(-1.27586460894607e+18 0 0)
(-1.24634853775711e+18 0 0)
(-1.21765278727456e+18 0 0)
(-1.189766932557e+18 0 0)
(-1.16267986783139e+18 0 0)
(-1.13637910594327e+18 0 0)
(-1.11084666154527e+18 0 0)
(-1.08606772878021e+18 0 0)
(-1.06192784858848e+18 0 0)
(-1.03870351324144e+18 0 0)
(-1.01605455604493e+18 0 0)
(-9.94094544691028e+17 0 0)
(-9.7278328720776e+17 0 0)
(-9.52108209564368e+17 0 0)
(-9.32048157444353e+17 0 0)
(-9.12582139687671e+17 0 0)
(-8.93690378376618e+17 0 0)
(-8.75352050115223e+17 0 0)
(-8.57548107338876e+17 0 0)
(-8.40256561286623e+17 0 0)
(-8.23473502866107e+17 0 0)
(-8.07137618932666e+17 0 0)
(-7.91264605658187e+17 0 0)
(-7.75873301783557e+17 0 0)
(-7.60883697171583e+17 0 0)
(-7.46292693144125e+17 0 0)
(-7.32103918230526e+17 0 0)
(-7.18293565723238e+17 0 0)
(-7.04848760897788e+17 0 0)
(-6.91755345753021e+17 0 0)
(-6.79001425789652e+17 0 0)
(-6.66572000630529e+17 0 0)
(-6.54455818085413e+17 0 0)
(-6.42639236738018e+17 0 0)
(-6.31116626462231e+17 0 0)
(-6.19826679770087e+17 0 0)
(-6.08866969772464e+17 0 0)
(-5.98198646785186e+17 0 0)
(-5.8774463849687e+17 0 0)
(-5.77535584354454e+17 0 0)
(-5.67561509241044e+17 0 0)
(-5.57816727282611e+17 0 0)
(-5.48294242158301e+17 0 0)
(-5.38986741369751e+17 0 0)
(-5.29887678505853e+17 0 0)
(-5.2099033263999e+17 0 0)
(-5.12284497457946e+17 0 0)
(-5.03768402985051e+17 0 0)
(-4.95354946679499e+17 0 0)
(-4.8720886630067e+17 0 0)
(-4.79380581600626e+17 0 0)
(-4.71617945284902e+17 0 0)
(-4.64025278838451e+17 0 0)
(-4.56602708937963e+17 0 0)
(-4.49185164005593e+17 0 0)
(-4.42205378607963e+17 0 0)
(-4.35445319459236e+17 0 0)
(-4.2874472330091e+17 0 0)
(-4.21915613503393e+17 0 0)
(-4.16019944143515e+17 0 0)
(-4.09705657091394e+17 0 0)
(-4.04117711788842e+17 0 0)
(-3.9864817350971e+17 0 0)
(-3.94066132010893e+17 0 0)
(-3.8969736784572e+17 0 0)
(-3.82992532965401e+17 0 0)
)
;

boundaryField
{
    electrode
    {
        type            calculated;
        value           uniform (-1.39976655035964e+19 0 0);
    }
    ground
    {
        type            calculated;
        value           uniform (-3.8128459113873e+17 0 0);
    }
    otherfaces
    {
        type            empty;
    }
}


// ************************************************************************* //
