/*--------------------------------*- C++ -*----------------------------------*\
| =========                 |                                                 |
| \\      /  F ield         | foam-extend: Open Source CFD                    |
|  \\    /   O peration     | Version:     4.0                                |
|   \\  /    A nd           | Web:         http://www.foam-extend.org         |
|    \\/     M anipulation  |                                                 |
\*---------------------------------------------------------------------------*/
FoamFile
{
    version     2.0;
    format      ascii;
    class       volScalarField;
    location    "9e-07";
    object      N_electronMean;
}
// * * * * * * * * * * * * * * * * * * * * * * * * * * * * * * * * * * * * * //

dimensions      [0 0 0 1 0 0 0];

internalField   nonuniform List<scalar> 
300
(
6.0962504744849e+16
6.09631590438959e+16
6.09617733036546e+16
6.09571923021387e+16
6.09494106953809e+16
6.09382308747182e+16
6.09235237247095e+16
6.09051954052513e+16
6.08831615213994e+16
6.08573531180557e+16
6.08277138985973e+16
6.07941989818509e+16
6.07567738044348e+16
6.07154130743561e+16
6.06701000360035e+16
6.06208257413899e+16
6.05675884405528e+16
6.05103930644631e+16
6.04492507278368e+16
6.0384178265754e+16
6.0315197833904e+16
6.02423365385746e+16
6.01656260876245e+16
6.00851024384805e+16
6.00008055650297e+16
5.99127792970097e+16
5.9821070969582e+16
5.97257310829676e+16
5.96268130494221e+16
5.95243728255532e+16
5.94184687202231e+16
5.93091614350683e+16
5.91965137634695e+16
5.90805900343615e+16
5.89614557596896e+16
5.88391773897892e+16
5.87138220829847e+16
5.85854575160292e+16
5.84541516684926e+16
5.83199726081433e+16
5.81829883541605e+16
5.80432667374291e+16
5.79008751996685e+16
5.77558806292355e+16
5.76083492502176e+16
5.74583465237118e+16
5.73059370737574e+16
5.71511846486928e+16
5.69941521452951e+16
5.68349016943338e+16
5.66734948864737e+16
5.65099930054871e+16
5.63444570428518e+16
5.61769475279714e+16
5.60075241863552e+16
5.58362455813245e+16
5.5663168838439e+16
5.5488349476352e+16
5.53118413281253e+16
5.51336964711583e+16
5.49539651873204e+16
5.4772695941765e+16
5.45899353345793e+16
5.44057282597935e+16
5.42201183129934e+16
5.40331477460198e+16
5.38448569971207e+16
5.36552844887971e+16
5.34644666289545e+16
5.32724378034242e+16
5.30792303617797e+16
5.28848747100775e+16
5.26893996100024e+16
5.24928322496182e+16
5.22951980508379e+16
5.20965208498776e+16
5.1896823213739e+16
5.16961264151897e+16
5.14944500845374e+16
5.12918120471443e+16
5.10882284249436e+16
5.08837132539808e+16
5.06782781151612e+16
5.04719320880905e+16
5.02646817918904e+16
5.00565315776064e+16
4.98474834014946e+16
4.96375364337927e+16
4.94266869271174e+16
4.92149282726218e+16
4.90022508763618e+16
4.87886423254268e+16
4.85740876267932e+16
4.83585686473773e+16
4.81420635789943e+16
4.79245468120803e+16
4.77059887924005e+16
4.74863558699245e+16
4.72656101372358e+16
4.70437093389459e+16
4.68206067603667e+16
4.65962509393686e+16
4.63705856090847e+16
4.61435497794533e+16
4.59150773506106e+16
4.5685096809769e+16
4.5453531083786e+16
4.52202972790328e+16
4.49853065355658e+16
4.47484636595077e+16
4.45096666638614e+16
4.42688064724088e+16
4.4025766692164e+16
4.37804235008288e+16
4.35326453867875e+16
4.32822928715155e+16
4.30292185836636e+16
4.27732670924783e+16
4.25142742412599e+16
4.225206653407e+16
4.19864609450967e+16
4.17172648573829e+16
4.14442759237349e+16
4.11672819916216e+16
4.08860605601683e+16
4.06003779073194e+16
4.0309988699995e+16
4.00146358010341e+16
3.9714049789942e+16
3.94079485626132e+16
3.90960371441031e+16
3.87780075014755e+16
3.84535382890342e+16
3.8122294591718e+16
3.77839281689623e+16
3.74380778846815e+16
3.70843693670175e+16
3.67224145379012e+16
3.63518118634298e+16
3.59721466657503e+16
3.55829909617245e+16
3.51839033997795e+16
3.47744295679523e+16
3.43541025154588e+16
3.39224436849607e+16
3.34789637515396e+16
3.30231628892511e+16
3.25545310081323e+16
3.20725480675641e+16
3.15766850070677e+16
3.10664052797124e+16
3.05411657020042e+16
3.00004174883678e+16
2.94436077187765e+16
2.88701802022053e+16
2.82795766728672e+16
2.76712385486836e+16
2.70446085371878e+16
2.63991316205295e+16
2.57342558511622e+16
2.5049433317431e+16
2.43441191311676e+16
2.36177681818841e+16
2.28698292581303e+16
2.20997294050691e+16
2.13068393968705e+16
2.04904332444042e+16
1.96496737469656e+16
1.87836261980271e+16
1.78912995395371e+16
1.69716988292022e+16
1.6023910924482e+16
1.50473607379039e+16
1.40422058712681e+16
1.30097334418914e+16
1.19527203533976e+16
1.08759166466077e+16
9.78663167467948e+15
8.69498552142295e+15
7.61391287447826e+15
6.55888131443836e+15
5.54712924741881e+15
4.59651554255745e+15
3.72397788495519e+15
2.94387130290791e+15
2.26636720859918e+15
1.69628581645558e+15
1.2326254733135e+15
868846313349293
593985167003815
394244155908939
254690261142491
160968367182574
100382544333967
62548561800078.8
39635836837086
26039215374440.5
17987688837885
13056589690590.1
9978653119442.34
8122805492515.29
7054691590066.11
6419861630695.73
5999134813349.94
5685462935369.12
5429372635930.06
5207546081032.65
5008302459924.56
4825136790067.77
4654141527886.66
4492882594518.5
4339858869305
4193928917013.46
4054226347796.44
3920072567654.19
3790934381163.66
3666384632824.25
3546071706147.13
3429700097579.45
3317028014873.2
3207859381651.13
3102012927442.78
2999339066508.76
2899711954931.82
2803020655630.38
2709167626818.73
2618067113939.76
2529640012518.65
2443815268220.38
2360526403394.28
2279709347530.31
2201306069360.85
2125258284141.07
2051509435901.86
1980006275315.38
1910695761093.06
1843524257897.04
1778441647341.32
1715395875219.01
1654335362827.91
1595211181698.09
1537973120119.07
1482574046359.09
1428966593131.96
1377103908453.07
1326941118281.07
1278432248611.48
1231532264493.43
1186195238027.98
1142376198712.11
1100031057455.52
1059115111712.03
1019584761451.69
981396139942.958
944507362732.532
908879104713.545
874472585952.272
841250542243.4
809177810639.228
778219315886.97
748341608246.613
719510609285.581
691693212831.435
664855606619.194
638964967426.889
613990971429.257
589904577526.963
566678651822.439
544286266184.783
522702082464.795
501899754285.968
481853554973.253
462538754044.927
443933103163.457
426015169215.656
408764549936.227
392161298843.01
376185103515.755
360816844302.177
346038646244.294
331832911520.599
318179960914.121
305061353574.053
292459667700.419
280357288712.247
268740671631.781
257599393473.157
246921587124.598
236694684820.913
226904519619.712
217539587024.914
208594751555.821
200065776299.753
191948988275.325
184254151119.564
176999455002.549
170222355823.261
164002606201.207
158501848167.469
153943000977.162
)
;

boundaryField
{
    electrode
    {
        type            calculated;
        value           uniform 6.09625047461589e+16;
    }
    ground
    {
        type            calculated;
        value           uniform 152340715350.348;
    }
    otherfaces
    {
        type            empty;
    }
}


// ************************************************************************* //
