/*--------------------------------*- C++ -*----------------------------------*\
| =========                 |                                                 |
| \\      /  F ield         | foam-extend: Open Source CFD                    |
|  \\    /   O peration     | Version:     4.0                                |
|   \\  /    A nd           | Web:         http://www.foam-extend.org         |
|    \\/     M anipulation  |                                                 |
\*---------------------------------------------------------------------------*/
FoamFile
{
    version     2.0;
    format      ascii;
    class       volScalarField;
    location    "9e-07";
    object      Phi;
}
// * * * * * * * * * * * * * * * * * * * * * * * * * * * * * * * * * * * * * //

dimensions      [0 0 0 1 0 0 0];

internalField   nonuniform List<scalar> 
300
(
699.999966567647
699.99977301429
699.999370480596
699.998757655672
699.997940835654
699.996919947634
699.995694815701
699.994265326229
699.992631397208
699.990792932307
699.988749822276
699.986501970238
699.98404928878
699.981391703694
699.978529161074
699.975461632594
699.972189120758
699.968711664405
699.965029344066
699.961142287131
699.957050672801
699.952754736738
699.948254775376
699.943551149916
699.938644289729
699.933534695519
699.928222941802
699.922709678958
699.916995634738
699.911081615262
699.904968505334
699.898657268398
699.892148945822
699.885444655651
699.878545590935
699.871453017481
699.864168271152
699.856692754753
699.849027934478
699.841175335979
699.833136540086
699.824913178242
699.81650692761
699.80791950598
699.79915266645
699.790208191924
699.781087889477
699.771793584607
699.762327115358
699.752690326504
699.742885063453
699.732913166488
699.722776464588
699.712476769665
699.702015870494
699.691395526903
699.680617463876
699.669683365733
699.658594870352
699.64735356341
699.635960972688
699.624418562281
699.612727727038
699.600889786721
699.588905980318
699.57677746035
699.564505286894
699.552090421778
699.539533722538
699.526835936197
699.513997693042
699.50101950009
699.487901734316
699.474644635824
699.461248300515
699.447712672549
699.434037536639
699.420222509468
699.406267031567
699.392170357629
699.377931547489
699.363549455804
699.34902272143
699.33434975648
699.319528734321
699.304557577281
699.289433943508
699.274155213197
699.258718473971
699.243120505456
699.227357763431
699.211426362216
699.195322057328
699.179040226239
699.162575848624
699.14592348563
699.12907725786
699.112030822513
699.094777349325
699.077309495377
699.059619378622
699.04169855063
699.023537967296
699.005127959181
698.986458199953
698.967517673446
698.948294639935
698.928776600164
698.908950258555
698.888801484658
698.868315272903
698.847475701038
698.826265886694
698.804667942092
698.782662927294
698.760230801122
698.737350370217
698.713999236076
698.690153739392
698.665788902516
698.640878368366
698.615394337492
698.589307500944
698.562586970247
698.535200203226
698.507112925712
698.478289047953
698.44869057624
698.418277517867
698.387007779413
698.354837057205
698.32171871889
698.287603674489
698.252440236716
698.216173967073
698.178747507503
698.140100394388
698.10016885283
698.058885567622
698.016179428244
697.971975243403
697.926193420342
697.878749603418
697.829554266706
697.778512250805
697.725522237358
697.670476150538
697.613258470985
697.553745451305
697.491804214364
697.427291711031
697.360053519395
697.289922449565
697.21671692168
697.140239075307
697.060272554447
696.976579909419
696.888899532594
696.796942033813
696.700385960661
696.598872645368
696.492000078508
696.379315600782
696.26030699723
696.134391896027
696.000904557428
695.859078393395
695.708030011778
695.546740602261
695.373993283837
695.188376127733
694.988183465918
694.771172163105
694.534615000286
694.27516965144
693.988938886799
693.671169657441
693.316166996927
692.917860973614
692.469127173081
691.962329028728
691.389400042126
690.742190969631
690.01244940303
689.192380216585
688.275112936071
687.254635988215
686.12711285976
684.889430518514
683.539296302449
682.076509671287
680.501295185078
678.814354785097
677.017857211221
675.113609700995
673.103555352747
670.989062339282
668.771718190725
666.452958010762
664.033903497304
661.515495263113
658.898769621565
656.184680616956
653.374034450945
650.468095271543
647.467827561283
644.374175893345
641.187976905543
637.910120285963
634.541375913837
631.082406972446
627.533742520455
623.895800599629
620.169307888441
616.354786805706
612.452683684745
608.463426418902
604.387379580766
600.224888474699
595.976276184686
591.641837893359
587.221790176675
582.716382018735
578.125692528169
573.449821245596
568.688993659385
563.843459040527
558.91339995187
553.899069153028
548.800639836107
543.618390891421
538.352526611158
533.003306244812
527.570928913869
522.055571614842
516.457383239062
510.776446411734
505.012837797437
499.166619570105
493.237855213664
487.226626156398
481.133101908316
474.957675211129
468.700743068314
462.362806466518
455.94426954747
449.445629033626
442.86726568488
436.209638176026
429.473089352738
422.658071996762
415.764919078257
408.794106125512
401.745999731126
394.621116199549
387.419857115206
380.142794532551
372.790365529411
365.363182439579
357.861719132021
350.286635011534
342.638424536348
334.917774680323
327.12519208067
319.261377929644
311.326868222362
303.322502828545
295.248883583421
287.106856308473
278.897013412041
270.62021699609
262.277071290176
253.868477027013
245.395058128977
236.857751019937
228.257196615521
219.594366598502
210.869910403791
202.084816813684
193.239720261712
184.335609280765
175.373095907085
166.353168189404
157.276415686883
148.143823331951
138.955956691787
129.713797130708
120.417891984028
111.06922514351
101.668333371001
92.2162077958733
82.7133791737133
73.1608460898091
63.5591329885592
53.9092450073033
44.2117008938694
34.467511274692
24.6771890893185
14.8417486618754
4.96169692083229
)
;

boundaryField
{
    electrode
    {
        type            fixedValue;
        value           uniform 700;
    }
    ground
    {
        type            fixedValue;
        value           uniform 0;
    }
    otherfaces
    {
        type            empty;
    }
}


// ************************************************************************* //
