/*--------------------------------*- C++ -*----------------------------------*\
| =========                 |                                                 |
| \\      /  F ield         | foam-extend: Open Source CFD                    |
|  \\    /   O peration     | Version:     4.0                                |
|   \\  /    A nd           | Web:         http://www.foam-extend.org         |
|    \\/     M anipulation  |                                                 |
\*---------------------------------------------------------------------------*/
FoamFile
{
    version     2.0;
    format      ascii;
    class       volScalarField;
    location    "9e-07";
    object      PhiMean;
}
// * * * * * * * * * * * * * * * * * * * * * * * * * * * * * * * * * * * * * //

dimensions      [0 0 0 1 0 0 0];

internalField   nonuniform List<scalar> 
300
(
699.918511403092
699.911453208308
699.904092405886
699.89647311828
699.888606524664
699.88046694157
699.872047780247
699.863341801515
699.854342522539
699.845044918165
699.835444797166
699.825538892109
699.815324650785
699.804800182642
699.793964191251
699.782815908131
699.771355040259
699.759581735468
699.747496538714
699.73510035114
699.72239440302
699.709380225094
699.6960596233
699.682434652643
699.668507588931
699.654280970401
699.639757533613
699.62494019404
699.609832045239
699.594436313997
699.578756330117
699.562795608453
699.546557808505
699.530046648597
699.513265895241
699.496219348305
699.478910822844
699.46134414768
699.443523147861
699.42545162354
699.407133348174
699.388572068481
699.369771476409
699.350735201931
699.331466806644
699.311969777718
699.292247522438
699.272303369762
699.252140572546
699.231762331512
699.211171812606
699.19037223002
699.169366807526
699.148158806482
699.126751442287
699.105147864257
699.083351104327
699.061364068619
699.039189533891
699.016830137668
698.994288378591
698.971566613225
698.94866704879
698.925591734852
698.902342690476
698.878921893961
698.855331152945
698.831572106397
698.807646226744
698.783554816459
698.759299005195
698.734879739834
698.71029785765
698.685554110069
698.66064906851
698.635583179306
698.610356848236
698.584970397697
698.559424052399
698.53371781378
698.50785164976
698.481825304509
698.455638275882
698.429289830198
698.402778968571
698.376104524423
698.349265121689
698.322259084996
698.295084423609
698.267738876897
698.240219871895
698.21252449814
698.184649727263
698.156592151651
698.12834794497
698.099912858159
698.071282188094
698.042450768169
698.013412921701
697.984162464331
697.954692691507
697.924996317047
697.895065412684
697.864891550888
697.834465616151
697.803777782702
697.772817531061
697.741573516963
697.71003363502
697.678184896518
697.646013335439
697.613503968162
697.580640714467
697.547406388826
697.513782642752
697.479749826882
697.445287055574
697.410372174906
697.374981542658
697.339089895921
697.302670247299
697.265693921848
697.228130353936
697.189947152708
697.151109871218
697.111581734786
697.071323480516
697.030293314999
696.988446611156
696.945735741892
696.902109886639
696.857514844699
696.811892783714
696.765181948258
696.717316432841
696.668226165741
696.617836408012
696.566067284023
696.512833493139
696.458044026811
696.401601561076
696.343401916893
696.283333531829
696.221276864968
696.157103846834
696.090677310623
696.021849940445
695.950463321936
695.876346730162
695.799315859604
695.71917183854
695.635699455738
695.548665260779
695.457815868608
695.362875144462
695.263541514026
695.159484785207
695.050342378469
694.935714654631
694.815159121239
694.688184124416
694.554240419095
694.412710063014
694.262893782151
694.103992849445
693.935080987809
693.755062560096
693.56263296303
693.356235848926
693.134005551115
692.893708461883
692.632633176903
692.347520251094
692.03453920065
691.689205791147
691.306312420798
690.879799561162
690.402930860074
689.868279536411
689.267711986013
688.592748738725
687.834531988359
686.984344115565
686.033716379491
684.974877958262
683.801089298878
682.506639486608
681.087466997956
679.540628365726
677.864478338436
676.058867285798
674.124294059363
672.06198512825
669.873947377123
667.562351295496
665.129447181745
662.577451166755
659.908690975503
657.125393474865
654.229520990155
651.222814718626
648.106911798984
644.883448931101
641.554115026356
638.120672905135
634.584797511978
630.948075988909
627.212021137707
623.37808833522
619.447679356301
615.422167585151
611.302896094658
607.091228992084
602.788534473509
598.396131580813
593.915296254261
589.347267695498
584.693251729308
579.954428108284
575.13195165285
570.226959703066
565.240573777894
560.173908372216
555.028073063974
549.804190048964
544.503385240092
539.126767307729
533.675423381715
528.150419210265
522.552799945648
516.883594412316
511.143810138944
505.334449720477
499.456511966378
493.510998273744
487.498900074709
481.421212719529
475.278924487873
469.07303049324
462.804521897667
456.474400815899
450.083670940593
443.633343110125
437.124401272722
430.557826964879
423.934572052348
417.25559008009
410.521803053834
403.734139136265
396.893493288754
390.0007709372
383.05684169939
376.062590017828
369.018860947665
361.926518500238
354.786383403848
347.599299630601
340.366063392695
333.087498940594
325.764378105318
318.397505663347
310.987628908117
303.53553363844
296.041942804271
288.507623858629
280.933297400022
273.319745529647
265.667675071171
257.977850330503
250.250951709018
242.487724309381
234.68882104679
226.854967471465
218.986788152306
211.084988983089
203.15016566396
195.183004569396
187.184072174196
179.154035765131
171.093432623312
163.002911839221
154.882981852916
146.734274630716
138.557270145529
130.352584360712
122.120669147375
113.862125465594
105.577377439376
97.2670119660662
88.9314255457244
80.5711917535687
72.1866795576857
63.7784498340124
55.3468439982401
46.892410868605
38.415464360423
29.9165418826788
21.3959299277867
12.8541552161609
4.29147741125423
)
;

boundaryField
{
    electrode
    {
        type            calculated;
        value           uniform 699.999999999958;
    }
    ground
    {
        type            calculated;
        value           uniform 0;
    }
    otherfaces
    {
        type            empty;
    }
}


// ************************************************************************* //
