/*--------------------------------*- C++ -*----------------------------------*\
| =========                 |                                                 |
| \\      /  F ield         | foam-extend: Open Source CFD                    |
|  \\    /   O peration     | Version:     4.0                                |
|   \\  /    A nd           | Web:         http://www.foam-extend.org         |
|    \\/     M anipulation  |                                                 |
\*---------------------------------------------------------------------------*/
FoamFile
{
    version     2.0;
    format      ascii;
    class       volScalarField;
    location    "9e-07";
    object      Sy_electron;
}
// * * * * * * * * * * * * * * * * * * * * * * * * * * * * * * * * * * * * * //

dimensions      [1 -3 -1 0 0 0 0];

internalField   nonuniform List<scalar> 
300
(
3.27594635026585e-15
3.27939082087346e-15
3.28296339543633e-15
3.28535516590196e-15
3.28684944423164e-15
3.28754079347121e-15
3.28751002887389e-15
3.28681478561376e-15
3.28550230838043e-15
3.28361326969937e-15
3.28117705144477e-15
3.27822006106551e-15
3.27476506432397e-15
3.27083224540356e-15
3.26643975634437e-15
3.26160414838543e-15
3.25633518958718e-15
3.2506496142414e-15
3.24456373031211e-15
3.23809046592789e-15
3.23124227548366e-15
3.22403112657538e-15
3.21646858356301e-15
3.20856584242725e-15
3.20030471431166e-15
3.19171883246313e-15
3.18281618901297e-15
3.17360174588448e-15
3.16410144597129e-15
3.15432544306631e-15
3.14425025091149e-15
3.13389781533841e-15
3.12330202894574e-15
3.1124737802533e-15
3.10142343835944e-15
3.0901608463167e-15
3.07868754371226e-15
3.06701638921249e-15
3.05516114926655e-15
3.0431292530779e-15
3.03092805106187e-15
3.018567995676e-15
3.00605701825159e-15
2.99340268262749e-15
2.98061217874365e-15
2.96769225306614e-15
2.95464556598709e-15
2.94147569351303e-15
2.92817016808484e-15
2.91472774525412e-15
2.90112774411197e-15
2.88739313738239e-15
2.87351572578566e-15
2.8595272049027e-15
2.84544245496195e-15
2.83129038506103e-15
2.81707732544405e-15
2.80280894755995e-15
2.78849030225751e-15
2.77412274388174e-15
2.75971421435887e-15
2.74526887916458e-15
2.73078176979025e-15
2.71622345488109e-15
2.7016014344772e-15
2.68695912180577e-15
2.67230039297426e-15
2.65762874906551e-15
2.6429472416149e-15
2.62825853028654e-15
2.61356165226914e-15
2.59884532509314e-15
2.58410755806409e-15
2.56936106733901e-15
2.55458427964731e-15
2.53977956569463e-15
2.52495779480852e-15
2.51011276608967e-15
2.49527724690565e-15
2.48040247849197e-15
2.46554446960815e-15
2.45070675232756e-15
2.43588464830661e-15
2.42108205912196e-15
2.40627583878743e-15
2.39147861171448e-15
2.37670902375626e-15
2.36196774721964e-15
2.34723638726663e-15
2.33252737258195e-15
2.31783174890901e-15
2.30308021875953e-15
2.28835883790115e-15
2.27367010638261e-15
2.25901420722245e-15
2.2443913242332e-15
2.22980127059984e-15
2.21524357348681e-15
2.20070190653639e-15
2.18617650788944e-15
2.17167706609103e-15
2.15720579305776e-15
2.14271556282986e-15
2.12825049831276e-15
2.11379716399258e-15
2.09934216958636e-15
2.08490816557667e-15
2.07046670197385e-15
2.05603360458608e-15
2.04161720056039e-15
2.02721513273075e-15
2.01282452140233e-15
1.99843468632221e-15
1.98404303511983e-15
1.96964704016931e-15
1.95522230399469e-15
1.94074297052939e-15
1.92624525986393e-15
1.9117311611727e-15
1.89719024505732e-15
1.88258664849924e-15
1.86793989989326e-15
1.8532110056898e-15
1.83841598890668e-15
1.82357200411128e-15
1.80867740795469e-15
1.79369526916188e-15
1.77865117567877e-15
1.76353204516302e-15
1.74833698204327e-15
1.73304690360083e-15
1.71765883285518e-15
1.70216843787906e-15
1.68654373669785e-15
1.6707396930247e-15
1.6547845918692e-15
1.63868680089181e-15
1.62241716961827e-15
1.60595521400286e-15
1.58931689985997e-15
1.5724859511948e-15
1.55544585787516e-15
1.53816113266299e-15
1.52059737477017e-15
1.50273044412439e-15
1.48459213428618e-15
1.46617102867444e-15
1.44745461744164e-15
1.42841391107494e-15
1.408998843476e-15
1.38923478760731e-15
1.36910268591785e-15
1.34854028081125e-15
1.32755952627334e-15
1.30615289305723e-15
1.28427771509156e-15
1.26190108640861e-15
1.23904069675809e-15
1.21569394288161e-15
1.19183100673626e-15
1.16743499001012e-15
1.14251366336613e-15
1.11705125020226e-15
1.09108871115999e-15
1.06464043839468e-15
1.03767922010831e-15
1.0102587611795e-15
9.82456415906579e-16
9.54332357302681e-16
9.25958573310108e-16
8.97431110723833e-16
8.68808861724987e-16
8.40203900667051e-16
8.11795141589386e-16
7.83770998333541e-16
7.56286393480672e-16
7.29493392457824e-16
7.03549681403183e-16
6.78634667185321e-16
6.54845313847042e-16
6.32269610723397e-16
6.10982749012415e-16
5.91002342116768e-16
5.72369703568633e-16
5.55035816377596e-16
5.38886868154086e-16
5.23911305402477e-16
5.10033201860226e-16
4.97159385898238e-16
4.85239846803745e-16
4.74508898442497e-16
4.72424043344643e-16
7.88926732454084e-16
1.96188247649763e-14
1.38838806664149e-12
2.68990044752925e-10
1.74728461960292e-09
2.98840722485121e-09
3.01135107074769e-09
2.45864648070078e-09
1.92670750268274e-09
1.5546662749724e-09
1.32674476437227e-09
1.19660022161155e-09
1.11840637382227e-09
1.08282562126546e-09
1.06360252410715e-09
1.05993894531832e-09
1.06490978211707e-09
1.07347282007759e-09
1.08115962971072e-09
1.08942289275739e-09
1.0971177379672e-09
1.10346811459926e-09
1.1079012261081e-09
1.11032808337487e-09
1.11049116155829e-09
1.10832149095396e-09
1.10383027497824e-09
1.09705097140266e-09
1.08806230894793e-09
1.07621523154242e-09
1.06238964407244e-09
1.0469023100371e-09
1.02993742220941e-09
1.01168185875523e-09
9.92320328667161e-10
9.72031897651486e-10
9.50987920766887e-10
9.29350454924489e-10
9.07271232540039e-10
8.84890664352653e-10
8.62337270024399e-10
8.39727318691546e-10
8.1716481200627e-10
7.94741803489064e-10
7.72538826065138e-10
7.50625725920122e-10
7.29062463791375e-10
7.07899870497899e-10
6.87180607821223e-10
6.66939977394436e-10
6.47206788016961e-10
6.27993830218518e-10
6.09310704178435e-10
5.91172340308329e-10
5.73587961506027e-10
5.5656248065892e-10
5.40096453394577e-10
5.24186797996053e-10
5.08827361861329e-10
4.94009474266419e-10
4.79722446551591e-10
4.65954041607431e-10
4.52690683342791e-10
4.39918966933547e-10
4.27623806720386e-10
4.1578714554981e-10
4.04391665503776e-10
3.93422473279585e-10
3.82864234054243e-10
3.7270088712701e-10
3.62916540865172e-10
3.53495547681354e-10
3.44422655340343e-10
3.35683214813335e-10
3.27263231325837e-10
3.19149229742403e-10
3.11327953120457e-10
3.03786465928086e-10
2.96507305063987e-10
2.89469814141602e-10
2.82659681356065e-10
2.76067800377743e-10
2.69686122673811e-10
2.63507484421412e-10
2.57525345198806e-10
2.51733768167589e-10
2.46127402388229e-10
2.40701477590458e-10
2.35451835559725e-10
2.3037451595127e-10
2.25248954493977e-10
2.20077944478048e-10
2.15031951505643e-10
2.10101916207572e-10
2.05295965752866e-10
2.00623557010341e-10
1.96094763227031e-10
1.91123394704506e-10
1.86023276545304e-10
1.81040550593929e-10
1.76209315548749e-10
1.703946691891e-10
1.64486568318364e-10
1.58116147235671e-10
1.50561106253064e-10
1.41566457603899e-10
1.30198596358581e-10
1.14228789704725e-10
)
;

boundaryField
{
    electrode
    {
        type            zeroGradient;
    }
    ground
    {
        type            zeroGradient;
    }
    otherfaces
    {
        type            empty;
    }
}


// ************************************************************************* //
