/*--------------------------------*- C++ -*----------------------------------*\
| =========                 |                                                 |
| \\      /  F ield         | foam-extend: Open Source CFD                    |
|  \\    /   O peration     | Version:     4.0                                |
|   \\  /    A nd           | Web:         http://www.foam-extend.org         |
|    \\/     M anipulation  |                                                 |
\*---------------------------------------------------------------------------*/
FoamFile
{
    version     2.0;
    format      ascii;
    class       volScalarField;
    location    "9e-07";
    object      Te;
}
// * * * * * * * * * * * * * * * * * * * * * * * * * * * * * * * * * * * * * //

dimensions      [0 0 0 1 0 0 0];

internalField   nonuniform List<scalar> 
300
(
25056.0132856367
25056.095269672
25056.107370468
25056.0479388158
25055.969718168
25055.8734086113
25055.7576714887
25055.6224710954
25055.4677698481
25055.2935350322
25055.0996890307
25054.8861688442
25054.6529144291
25054.3998570657
25054.126926248
25053.8340498438
25053.5211531794
25053.1881593672
25052.834989538
25052.4615629269
25052.0677970095
25051.6536075553
25051.2189087712
25050.7636133993
25050.2876327051
25049.7908766414
25049.2732538728
25048.7346717373
25048.1750363751
25047.5942527364
25046.9922244884
25046.3688541205
25045.7240429236
25045.0576908849
25044.3696967548
25043.6599579985
25042.9283707216
25042.1748296686
25041.3992281919
25040.6014581884
25039.7814100674
25038.9389727387
25038.0740335509
25037.1864782723
25036.2761910791
25035.3430545097
25034.3869494839
25033.4077552529
25032.405349441
25031.3796080293
25030.3304053401
25029.2576141292
25028.1611055182
25027.0407490938
25025.8964129187
25024.7279635569
25023.5352661645
25022.318184496
25021.0765809717
25019.8103167764
25018.5192518704
25017.2032450348
25015.8621540699
25014.4958356982
25013.1041456876
25011.6869390355
25010.2440698425
25008.7753915102
25007.280756817
25005.7600178494
25004.213026226
25002.6396330736
25001.039689006
24999.4130443651
24997.7595490588
24996.0790527344
24994.3714047546
24992.6364541612
24990.8740499287
24989.0840405673
24987.2662744931
24985.4205999083
24983.5468645475
24981.6449160156
24979.7146014788
24977.7557676129
24975.7682606151
24973.7519261351
24971.7066089159
24969.6321528781
24967.5284010477
24965.3951949161
24963.2323747164
24961.0397789922
24958.8172441409
24956.564604424
24954.2816913859
24951.9683335001
24949.6243558868
24947.2495795877
24944.8438211818
24942.4068923507
24939.9385987934
24937.4387399834
24934.9071082504
24932.3434876779
24929.74765367
24927.1193715562
24924.4583956465
24921.7644682158
24919.0373179341
24916.2766588058
24913.4821886126
24910.6535871728
24907.7905149918
24904.8926112313
24901.9594918192
24898.9907474732
24895.9859415122
24892.9446075829
24889.8662469851
24886.7503264374
24883.5962751636
24880.4034817929
24877.1712916812
24873.8990035673
24870.5858659858
24867.2310740394
24863.8337656166
24860.3930172809
24856.9078406243
24853.3771777979
24849.7998969848
24846.1747883224
24842.5005588396
24838.7758274628
24834.9991203446
24831.1688656675
24827.2833880861
24823.3409034651
24819.3395139013
24815.2772017288
24811.1518241492
24806.9611087854
24802.7026475363
24798.3738923254
24793.9721519015
24789.4945863691
24784.9382062109
24780.299871757
24775.5762915131
24770.7640273239
24765.8595000127
24760.8589984944
24755.7586961755
24750.5546715846
24745.2429418035
24739.8194912989
24734.2803366933
24728.6216215757
24722.8396387277
24716.9309496741
24710.8925582036
24704.7220660481
24698.4186544895
24691.9822361393
24685.4077863012
24678.7091367297
24671.9108369726
24665.0290640725
24658.2173010417
24651.6521996572
24645.2987709293
24638.9965344672
24632.5843944456
24626.0044461775
24618.7320908123
24609.9639525025
24599.3074390178
24586.0941894869
24569.6535683448
24550.2130632279
24529.1920347957
24509.6782546449
24497.9710364612
24505.3820300378
24550.6437470496
24665.1665169427
24897.232658971
25322.3553653487
26068.9765427913
27345.6028113068
29493.740509329
33155.2041376899
39456.4660297889
50787.9392165186
70486.434255855
98449.5002325823
137514.001975858
188512.884005567
250456.728241534
317242.645820184
382737.658459396
442907.790418857
496055.415191776
542115.90871868
581654.197035972
615534.923736043
644806.428427075
670348.809333473
692794.576109477
712669.673702682
730452.531080399
746526.679285981
761199.447982944
774698.500743173
787222.959630027
798946.003235248
810006.179963185
820506.227292759
830530.533084083
840161.200850578
849460.185125841
858478.47222721
867257.228914386
875830.026577836
884223.623509585
892458.855155338
900551.521189803
908512.987623404
916350.786791616
924068.994822541
931668.624649645
939147.926704456
946502.643878672
953726.292170245
960810.305268376
967744.295274748
974516.234909117
981112.558261788
987518.382026043
993717.640634994
999695.59412557
1005430.6448659
1010901.09634999
1016091.15416048
1020981.16994176
1025551.36320341
1029781.3228433
1033650.35319953
1037137.51974828
1040221.72963144
1042881.79521159
1045096.56147593
1046844.43318799
1048104.90215877
1048848.65388834
1049065.72990104
1048738.23682092
1047839.95365214
1046350.45427068
1044248.94054343
1041515.04796472
1038128.41712415
1034068.65922345
1029315.40214807
1023848.28814477
1017646.90303541
1010690.46093624
1002960.37306606
994435.876392695
985092.303562069
974908.910535335
963864.889379809
951936.157679831
939097.512941542
925322.311623955
910582.416611164
894847.981853389
878087.17872509
860266.169673854
841348.427180483
821299.705532742
800082.195145872
777645.0344651
753937.981888852
728905.389518564
702475.235042735
674578.356252321
645133.704601052
614038.057503582
581174.606925986
546415.412355337
509583.688742797
470466.53894598
428795.237144953
384180.783968035
336106.112545454
283812.653923429
226274.851594046
)
;

boundaryField
{
    electrode
    {
        type            electronTemperature;
        seec            0.05;
        Tse             1000;
        Edepend         1;
        TFN             1000;
        field_emission  0;
        field_enhancement_factor 55;
        work_function   5;
        value           uniform 25056.0132856367;
    }
    ground
    {
        type            electronTemperature;
        seec            0.05;
        Tse             1000;
        Edepend         1;
        TFN             1000;
        field_emission  0;
        field_enhancement_factor 55;
        work_function   5;
        value           uniform 193749.485995379;
    }
    otherfaces
    {
        type            empty;
    }
}


// ************************************************************************* //
