/*--------------------------------*- C++ -*----------------------------------*\
| =========                 |                                                 |
| \\      /  F ield         | foam-extend: Open Source CFD                    |
|  \\    /   O peration     | Version:     4.0                                |
|   \\  /    A nd           | Web:         http://www.foam-extend.org         |
|    \\/     M anipulation  |                                                 |
\*---------------------------------------------------------------------------*/
FoamFile
{
    version     2.0;
    format      ascii;
    class       volScalarField;
    location    "9e-07";
    object      TeMean;
}
// * * * * * * * * * * * * * * * * * * * * * * * * * * * * * * * * * * * * * //

dimensions      [0 0 0 1 0 0 0];

internalField   nonuniform List<scalar> 
300
(
34889.1982085946
34889.7851253155
34889.7223268484
34889.0839864016
34888.2652257091
34887.2174861261
34885.9549741811
34884.4892838802
34882.823376333
34880.9615610873
34878.907819051
34876.6660028706
34874.2398172343
34871.6327276945
34868.8480668109
34865.8890220023
34862.7586277509
34859.4597987971
34855.9953266924
34852.3678783617
34848.5800156273
34844.6341800408
34840.5327097026
34836.2778338149
34831.8716696072
34827.3163002326
34822.6137226186
34817.7658283843
34812.7744646528
34807.6413511143
34802.3680705436
34796.9562427449
34791.4075067773
34785.7233812533
34779.9053037129
34773.9546016876
34767.8725493013
34761.6604297861
34755.3194731867
34748.8508240607
34742.2555556622
34735.5347503907
34728.6894410353
34721.7205899623
34714.6291134051
34707.4158789643
34700.0817016484
34692.6273364753
34685.0534547471
34677.3606430165
34669.5494044305
34661.6202626659
34653.5738202239
34645.4106270798
34637.1312139755
34628.7361340668
34620.2258497665
34611.6007459115
34602.8612205465
34594.0076386864
34585.0403201542
34575.9596031178
34566.7656709443
34557.458624177
34548.0387306349
34538.5063185531
34528.8616429483
34519.104898571
34509.2362452643
34499.2558409523
34489.1637821375
34478.9600399271
34468.6446430791
34458.217649776
34447.6789936885
34437.0284997616
34426.2660803734
34415.3917868472
34404.4055344778
34393.3071432837
34382.0965796182
34370.7738090916
34359.3386385882
34347.7907669229
34336.1298512282
34324.355665309
34312.4680651307
34300.4667887457
34288.3514687664
34276.1217675779
34263.7772171881
34251.3172974523
34238.741775132
34226.0502651646
34213.2422551423
34200.3173446811
34187.2750342789
34174.1147954037
34160.83602694
34147.4381117989
34133.9205179742
34120.2824705488
34106.5231307271
34092.6418603947
34078.6379390672
34064.5105489426
34050.2587890118
34035.8817229632
34021.3784543661
34006.7480150836
33991.9893833452
33977.1014619453
33962.0830299287
33946.9329474285
33931.6499294498
33916.232515743
33900.6791325115
33884.9882737367
33869.1584966159
33853.1879768634
33837.0747359903
33820.8167708648
33804.4119136659
33787.8579871536
33771.1528401907
33754.2940448523
33737.2788274453
33720.104369636
33702.7677661614
33685.2657299472
33667.5947073684
33649.7510248527
33631.7308205045
33613.5296262446
33595.1425502745
33576.5648287206
33557.7913602043
33538.8163661073
33519.6337285928
33500.2370619768
33480.6194639942
33460.7733529189
33440.6904333217
33420.3616465734
33399.7773616736
33378.927462323
33357.8010975246
33336.3866238082
33314.6709919494
33292.639927422
33270.2785319455
33247.57043088
33224.4977559155
33201.0415671475
33177.1809501763
33152.8930153803
33128.1531064787
33102.9347350631
33077.2093350411
33050.945768018
33024.1114493398
32996.6725200191
32968.5939455777
32939.8444528707
32910.4033744489
32880.2541462942
32849.3655069546
32817.6891749386
32785.1600982176
32751.7021268396
32717.2131181823
32681.4675863612
32644.098998737
32604.6588263111
32562.6172515591
32517.2013939998
32467.2920853713
32411.7189133937
32349.2165369355
32278.4188282464
32198.2479200437
32108.1219703493
32008.5517202966
31901.7522697831
31792.6318234741
31690.0407586659
31608.2369544734
31569.7104891567
31608.4967299324
31776.2668664416
32154.5044363855
32871.6999100089
34139.9229336848
36350.4203315929
40124.3023603888
46509.6296857129
57611.7901904812
75979.1574955969
104574.210828162
145312.458393087
200313.7397045
267913.71259903
343761.857020012
420888.591158807
493182.973343571
557118.479645247
611809.769742521
657861.223538671
696507.278803319
729105.97929936
756796.014154108
780486.608096032
800913.245601331
818684.29950334
834285.160463442
848103.050790077
860446.348392744
871564.232014459
881657.079196092
890878.868710306
899353.228287138
907190.861398692
914484.182232374
921305.301205678
927713.261778864
933756.202258989
939473.279431734
944896.164494005
950050.238897055
954955.443349858
959627.112227782
964076.672798976
968312.214565052
972338.421600871
976157.264514946
979768.76128175
983170.82961991
986359.628707067
989329.736262534
992074.386821417
994585.580258642
996854.275671997
998870.524423718
1000623.59136999
1002102.34982006
1003295.15163459
1004189.79810318
1004773.71927744
1005034.08444898
1004957.85268534
1004531.80004924
1003742.65719508
1002577.08843369
1001021.75998783
999063.286906536
996688.374542911
993883.920992507
990637.884582812
986936.272511158
982765.94871741
978113.857859679
972966.987676745
967312.346514343
961136.837941675
954427.356799062
947170.641959786
939353.25922117
930961.551799918
921981.638796555
912399.38045856
902199.548886926
891366.455301853
879884.360959666
867736.151811965
854903.701696216
841367.692383225
827107.654698543
812101.721432523
796326.698962826
779757.69689167
762367.780696943
744127.924928936
725006.819569885
704968.08992756
683971.253924298
661972.564785827
638921.720896048
614762.266913482
589431.698772498
562855.606179507
534947.362201833
505606.942622664
474712.030947756
442112.707361353
407622.81366643
371001.528028916
331904.518995105
289880.471337524
244281.967858155
194210.023025534
)
;

boundaryField
{
    electrode
    {
        type            calculated;
        value           uniform 34889.198208608;
    }
    ground
    {
        type            calculated;
        value           uniform 165957.309134486;
    }
    otherfaces
    {
        type            empty;
    }
}


// ************************************************************************* //
