/*--------------------------------*- C++ -*----------------------------------*\
| =========                 |                                                 |
| \\      /  F ield         | foam-extend: Open Source CFD                    |
|  \\    /   O peration     | Version:     4.0                                |
|   \\  /    A nd           | Web:         http://www.foam-extend.org         |
|    \\/     M anipulation  |                                                 |
\*---------------------------------------------------------------------------*/
FoamFile
{
    version     2.0;
    format      ascii;
    class       volVectorField;
    location    "1e-09";
    object      E;
}
// * * * * * * * * * * * * * * * * * * * * * * * * * * * * * * * * * * * * * //

dimensions      [0 0 0 1 0 0 0];

internalField   nonuniform List<vector> 10((-0 4528.9664348159 -0) (-0 3019.57333263842 -0) (-0 3019.57333263855 -0) (-0 3019.57333263867 -0) (-0 3019.57333263848 -0) (-0 3019.57333263862 -0) (-0 3019.57333263871 -0) (-0 3019.5733326386 -0) (-0 3019.5733326385 -0) (-0 3019.57333263863 -0));

boundaryField
{
    electrode
    {
        type            calculated;
        value           uniform (-0 3019.57333263862 -0);
    }
    plasma_2
    {
        type            calculated;
        value           nonuniform 0();
    }
    otherfaces
    {
        type            empty;
    }
    procBoundary0to1
    {
        type            processor;
        value           uniform (-0 4528.60115813953 -0);
    }
}


// ************************************************************************* //
