/*--------------------------------*- C++ -*----------------------------------*\
| =========                 |                                                 |
| \\      /  F ield         | foam-extend: Open Source CFD                    |
|  \\    /   O peration     | Version:     4.0                                |
|   \\  /    A nd           | Web:         http://www.foam-extend.org         |
|    \\/     M anipulation  |                                                 |
\*---------------------------------------------------------------------------*/
FoamFile
{
    version     2.0;
    format      ascii;
    class       volVectorField;
    location    "5e-10";
    object      E;
}
// * * * * * * * * * * * * * * * * * * * * * * * * * * * * * * * * * * * * * //

dimensions      [0 0 0 1 0 0 0];

internalField   nonuniform List<vector> 
249
(
(-0 11328.183451096 -0)
(-0 7551.81901483999 -0)
(-0 7551.81863256526 -0)
(-0 7551.8186044149 -0)
(-0 7551.81848306617 -0)
(-0 7551.81831841538 -0)
(-0 7551.81833881374 -0)
(-0 7551.81868945544 -0)
(-0 7551.81919815397 -0)
(-0 7551.81925299961 -0)
(-0 7551.8191620999 -0)
(-0 7551.81920566733 -0)
(-0 7551.81938758686 -0)
(-0 7551.81942293063 -0)
(-0 7551.81938695076 -0)
(-0 7551.81916614621 -0)
(-0 7551.81875654235 -0)
(-0 7551.81895610215 -0)
(-0 7551.81911121406 -0)
(-0 7551.81925209781 -0)
(-0 7551.81945593762 -0)
(-0 7551.81936121477 -0)
(-0 7551.81935390132 -0)
(-0 7551.81942282706 -0)
(-0 7551.81981443778 -0)
(-0 7551.82019924186 -0)
(-0 7551.82037645315 -0)
(-0 7551.82035716173 -0)
(-0 7551.82019493085 -0)
(-0 7551.81991672981 -0)
(-0 7551.81963441259 -0)
(-0 7551.81948254223 -0)
(-0 7551.81941650244 -0)
(-0 7551.81933688978 -0)
(-0 7551.81947596688 -0)
(-0 7551.81995832907 -0)
(-0 7551.81996028435 -0)
(-0 7551.82005500498 -0)
(-0 7551.82044980422 -0)
(-0 7551.82069101075 -0)
(-0 7551.82082300156 -0)
(-0 7551.82074565935 -0)
(-0 7551.82064943939 -0)
(-0 7551.82065513832 -0)
(-0 7551.82050952823 -0)
(-0 7551.82036816563 -0)
(-0 7551.82003807011 -0)
(-0 7551.81990628583 -0)
(-0 7551.82009812111 -0)
(-0 7551.82017444324 -0)
(-0 7551.82006877802 -0)
(-0 7551.82018824815 -0)
(-0 7551.8202937499 -0)
(-0 7551.81974828145 -0)
(-0 7551.81931926231 -0)
(-0 7551.8193448753 -0)
(-0 7551.81928909289 -0)
(-0 7551.81886372898 -0)
(-0 7551.81873513434 -0)
(-0 7551.81887189822 -0)
(-0 7551.81887367666 -0)
(-0 7551.81919729107 -0)
(-0 7551.81925202328 -0)
(-0 7551.81864265421 -0)
(-0 7551.81811601761 -0)
(-0 7551.81807116439 -0)
(-0 7551.81821426712 -0)
(-0 7551.81815462164 -0)
(-0 7551.81793126134 -0)
(-0 7551.81767951374 -0)
(-0 7551.81754601372 -0)
(-0 7551.81738671197 -0)
(-0 7551.81702384093 -0)
(-0 7551.81678702174 -0)
(-0 7551.81721929392 -0)
(-0 7551.81749229613 -0)
(-0 7551.81747652162 -0)
(-0 7551.81774188082 -0)
(-0 7551.81806952857 -0)
(-0 7551.81831098936 -0)
(-0 7551.81822878135 -0)
(-0 7551.81805678982 -0)
(-0 7551.8180965504 -0)
(-0 7551.81803775078 -0)
(-0 7551.81784147288 -0)
(-0 7551.81756187987 -0)
(-0 7551.8174228113 -0)
(-0 7551.81784693127 -0)
(-0 7551.81821474954 -0)
(-0 7551.81803498385 -0)
(-0 7551.81755419106 -0)
(-0 7551.81727330402 -0)
(-0 7551.81737159345 -0)
(-0 7551.81729402208 -0)
(-0 7551.81713113963 -0)
(-0 7551.81702151886 -0)
(-0 7551.81659370219 -0)
(-0 7551.81628995867 -0)
(-0 7551.81628777937 -0)
(-0 7551.81638744553 -0)
(-0 7551.81663086297 -0)
(-0 7551.81685715425 -0)
(-0 7551.81689361555 -0)
(-0 7551.81682134049 -0)
(-0 7551.81692088504 -0)
(-0 7551.81696286149 -0)
(-0 7551.81677768984 -0)
(-0 7551.81661732829 -0)
(-0 7551.81651854604 -0)
(-0 7551.81631832352 -0)
(-0 7551.8161825289 -0)
(-0 7551.81605772275 -0)
(-0 7551.81590963954 -0)
(-0 7551.81619466034 -0)
(-0 7551.81655458285 -0)
(-0 7551.81660032311 -0)
(-0 7551.81638338325 -0)
(-0 7551.81605667802 -0)
(-0 7551.81627142583 -0)
(-0 7551.81636676684 -0)
(-0 7551.81592539784 -0)
(-0 7551.81566236796 -0)
(-0 7551.8155468072 -0)
(-0 7551.81573747348 -0)
(-0 7551.81589647413 -0)
(-0 7551.81553224717 -0)
(-0 7551.81530444442 -0)
(-0 7551.81540020712 -0)
(-0 7551.81557799622 -0)
(-0 7551.81580109177 -0)
(-0 7551.81592862351 -0)
(-0 7551.81605039293 -0)
(-0 7551.81611573093 -0)
(-0 7551.8161916757 -0)
(-0 7551.81616046272 -0)
(-0 7551.81587588064 -0)
(-0 7551.81571779536 -0)
(-0 7551.81567239339 -0)
(-0 7551.81559530842 -0)
(-0 7551.81572637257 -0)
(-0 7551.81570471381 -0)
(-0 7551.81554813514 -0)
(-0 7551.815412258 -0)
(-0 7551.81525119946 -0)
(-0 7551.81514872685 -0)
(-0 7551.81508132951 -0)
(-0 7551.81507380496 -0)
(-0 7551.81516335057 -0)
(-0 7551.81527769143 -0)
(-0 7551.81514026231 -0)
(-0 7551.81495053092 -0)
(-0 7551.81481580981 -0)
(-0 7551.8148497937 -0)
(-0 7551.81507179212 -0)
(-0 7551.81507625738 -0)
(-0 7551.81507101919 -0)
(-0 7551.81515906678 -0)
(-0 7551.81509648494 -0)
(-0 7551.81503969848 -0)
(-0 7551.81507736483 -0)
(-0 7551.81498416423 -0)
(-0 7551.81481957813 -0)
(-0 7551.81469561402 -0)
(-0 7551.81449915267 -0)
(-0 7551.81435892852 -0)
(-0 7551.8144330204 -0)
(-0 7551.81438067807 -0)
(-0 7551.81427500278 -0)
(-0 7551.81427271545 -0)
(-0 7551.81413921809 -0)
(-0 7551.81404740851 -0)
(-0 7551.8142776916 -0)
(-0 7551.81452876325 -0)
(-0 7551.81457120226 -0)
(-0 7551.8145935449 -0)
(-0 7551.81454366046 -0)
(-0 7551.81438489338 -0)
(-0 7551.81423533499 -0)
(-0 7551.81414540839 -0)
(-0 7551.8142086733 -0)
(-0 7551.81426189228 -0)
(-0 7551.81408709581 -0)
(-0 7551.81385117842 -0)
(-0 7551.81373702964 -0)
(-0 7551.81378816432 -0)
(-0 7551.81383092539 -0)
(-0 7551.81411037695 -0)
(-0 7551.81438892723 -0)
(-0 7551.81434942718 -0)
(-0 7551.81432076341 -0)
(-0 7551.81428073231 -0)
(-0 7551.81423739632 -0)
(-0 7551.81441617886 -0)
(-0 7551.8145247448 -0)
(-0 7551.81463808244 -0)
(-0 7551.81461862949 -0)
(-0 7551.8145892864 -0)
(-0 7551.81478968596 -0)
(-0 7551.81479721696 -0)
(-0 7551.81468033665 -0)
(-0 7551.81472258656 -0)
(-0 7551.81476180601 -0)
(-0 7551.81469897237 -0)
(-0 7551.81464574844 -0)
(-0 7551.81447641264 -0)
(-0 7551.81443048609 -0)
(-0 7551.8143743753 -0)
(-0 7551.81440874779 -0)
(-0 7551.81447357872 -0)
(-0 7551.81445690624 -0)
(-0 7551.81445867641 -0)
(-0 7551.81436706267 -0)
(-0 7551.81438924669 -0)
(-0 7551.81441810369 -0)
(-0 7551.8145566515 -0)
(-0 7551.81465893732 -0)
(-0 7551.81451747885 -0)
(-0 7551.81448745784 -0)
(-0 7551.81458760722 -0)
(-0 7551.8146934779 -0)
(-0 7551.81481415779 -0)
(-0 7551.81472463035 -0)
(-0 7551.81462187104 -0)
(-0 7551.8146975579 -0)
(-0 7551.81473586115 -0)
(-0 7551.81475503123 -0)
(-0 7551.81472453408 -0)
(-0 7551.81471956586 -0)
(-0 7551.81468424163 -0)
(-0 7551.81451030785 -0)
(-0 7551.81424900001 -0)
(-0 7551.8141130648 -0)
(-0 7551.81422073508 -0)
(-0 7551.81442771835 -0)
(-0 7551.81451941397 -0)
(-0 7551.81451842301 -0)
(-0 7551.81464470402 -0)
(-0 7551.81470185726 -0)
(-0 7551.81459068416 -0)
(-0 7551.81449944053 -0)
(-0 7551.8143259897 -0)
(-0 7551.81439687195 -0)
(-0 7551.81477813042 -0)
(-0 7551.81486773442 -0)
(-0 7551.81465229423 -0)
(-0 7551.81460980182 -0)
(-0 7551.81481208667 -0)
(-0 7551.81465986907 -0)
(-0 11327.5500675133 -0)
)
;

boundaryField
{
    dielectric_2
    {
        type            calculated;
        value           nonuniform 0();
    }
    dielectric_1
    {
        type            calculated;
        value           nonuniform 0();
    }
    otherfaces
    {
        type            empty;
    }
    procBoundary0to1
    {
        type            processor;
        value           uniform (-0 11328.6298996929 -0);
    }
    procBoundary0to2
    {
        type            processor;
        value           uniform (-0 11327.3754935925 -0);
    }
}


// ************************************************************************* //
