/*--------------------------------*- C++ -*----------------------------------*\
| =========                 |                                                 |
| \\      /  F ield         | foam-extend: Open Source CFD                    |
|  \\    /   O peration     | Version:     4.0                                |
|   \\  /    A nd           | Web:         http://www.foam-extend.org         |
|    \\/     M anipulation  |                                                 |
\*---------------------------------------------------------------------------*/
FoamFile
{
    version     2.0;
    format      ascii;
    class       volScalarField;
    location    "8.5e-06";
    object      Ar;
}
// * * * * * * * * * * * * * * * * * * * * * * * * * * * * * * * * * * * * * //

dimensions      [0 0 0 1 0 0 0];

internalField   nonuniform List<scalar> 
300
(
3.21880190902211e+22
3.21880190475565e+22
3.21880190773112e+22
3.21880190896765e+22
3.21880191104861e+22
3.21880191392651e+22
3.21880191742795e+22
3.21880192162038e+22
3.21880192649138e+22
3.21880193203753e+22
3.21880193825937e+22
3.21880194515573e+22
3.21880195272607e+22
3.21880196097007e+22
3.2188019698875e+22
3.21880197947829e+22
3.21880198974277e+22
3.21880200068093e+22
3.21880201229283e+22
3.21880202457873e+22
3.21880203753898e+22
3.21880205117398e+22
3.2188020654842e+22
3.21880208047016e+22
3.21880209613402e+22
3.21880211247516e+22
3.21880212949437e+22
3.21880214719265e+22
3.2188021655699e+22
3.2188021846269e+22
3.21880220436632e+22
3.21880222478836e+22
3.21880224589259e+22
3.21880226767988e+22
3.21880229015113e+22
3.21880231330734e+22
3.21880233714999e+22
3.21880236167993e+22
3.21880238689802e+22
3.21880241280548e+22
3.21880243940356e+22
3.21880246669337e+22
3.21880249467617e+22
3.21880252335329e+22
3.21880255272608e+22
3.21880258279594e+22
3.21880261356454e+22
3.21880264503351e+22
3.21880267720541e+22
3.21880271008223e+22
3.21880274366704e+22
3.21880277796047e+22
3.21880281296492e+22
3.21880284868053e+22
3.21880288510838e+22
3.21880292224878e+22
3.21880296010333e+22
3.21880299867369e+22
3.21880303796158e+22
3.21880307796895e+22
3.21880311869734e+22
3.21880316014856e+22
3.21880320232494e+22
3.21880324523031e+22
3.21880328886629e+22
3.21880333323237e+22
3.21880337833036e+22
3.21880342416214e+22
3.21880347072959e+22
3.21880351803463e+22
3.21880356607939e+22
3.21880361486664e+22
3.21880366439858e+22
3.21880371467651e+22
3.21880376570385e+22
3.21880381748252e+22
3.21880387001393e+22
3.21880392330053e+22
3.21880397734234e+22
3.21880403214443e+22
3.21880408770537e+22
3.21880414402692e+22
3.2188042011114e+22
3.21880425896056e+22
3.21880431757782e+22
3.21880437696439e+22
3.21880443712101e+22
3.21880449804959e+22
3.2188045597532e+22
3.21880462223297e+22
3.21880468549138e+22
3.21880474953474e+22
3.2188048143594e+22
3.21880487996699e+22
3.2188049463593e+22
3.21880501353807e+22
3.21880508150509e+22
3.21880515026212e+22
3.21880521981193e+22
3.21880529015621e+22
3.21880536129598e+22
3.21880543323277e+22
3.21880550597127e+22
3.21880557950998e+22
3.21880565385156e+22
3.2188057289995e+22
3.2188058049536e+22
3.21880588171233e+22
3.21880595927918e+22
3.21880603765805e+22
3.21880611685077e+22
3.21880619685974e+22
3.21880627768794e+22
3.21880635933778e+22
3.21880644181162e+22
3.21880652511332e+22
3.21880660924683e+22
3.21880669421168e+22
3.21880678000978e+22
3.21880686664388e+22
3.21880695411851e+22
3.21880704243426e+22
3.21880713159585e+22
3.21880722160406e+22
3.21880731245952e+22
3.21880740416421e+22
3.21880749672264e+22
3.21880759013479e+22
3.21880768440339e+22
3.21880777953032e+22
3.21880787551876e+22
3.21880797237072e+22
3.21880807008831e+22
3.21880816867571e+22
3.21880826813813e+22
3.21880836847527e+22
3.21880846968828e+22
3.21880857178121e+22
3.21880867475746e+22
3.21880877861767e+22
3.21880888336492e+22
3.21880898900239e+22
3.21880909553476e+22
3.21880920296669e+22
3.21880931130205e+22
3.21880942054024e+22
3.21880953068405e+22
3.21880964173635e+22
3.21880975370131e+22
3.21880986658478e+22
3.21880998038635e+22
3.21881009510897e+22
3.21881021075934e+22
3.21881032733684e+22
3.21881044484406e+22
3.21881056328159e+22
3.21881068265785e+22
3.21881080295808e+22
3.21881092420074e+22
3.21881104634679e+22
3.21881116945842e+22
3.21881129340889e+22
3.21881141839041e+22
3.21881154406263e+22
3.21881167092364e+22
3.21881179829954e+22
3.21881192533208e+22
3.21881205336943e+22
3.21881218275368e+22
3.2188123128964e+22
3.21881244382901e+22
3.21881257451821e+22
3.21881270586603e+22
3.21881283650508e+22
3.21881296736929e+22
3.21881310068507e+22
3.21881323297894e+22
3.21881336186869e+22
3.21881349220132e+22
3.21881362251556e+22
3.21881374692837e+22
3.21881387059848e+22
3.21881399299717e+22
3.21881410622288e+22
3.21881421867892e+22
3.21881432459642e+22
3.21881442120743e+22
3.21881451337899e+22
3.218814598769e+22
3.21881467185978e+22
3.21881473975115e+22
3.21881480036229e+22
3.21881485204858e+22
3.21881489269101e+22
3.21881492851486e+22
3.21881495279053e+22
3.21881497089386e+22
3.21881498278251e+22
3.21881499201288e+22
3.21881499877331e+22
3.21881500143104e+22
3.21881499852334e+22
3.21881499507163e+22
3.21881499358673e+22
3.21881499809965e+22
3.21881500608214e+22
3.21881501565904e+22
3.2188150253859e+22
3.21881503397184e+22
3.21881504133193e+22
3.21881504758215e+22
3.21881505283506e+22
3.21881505729461e+22
3.21881506243856e+22
3.21881506806114e+22
3.21881507321452e+22
3.21881507784304e+22
3.21881508208621e+22
3.21881508593719e+22
3.21881508951587e+22
3.21881509278242e+22
3.21881509589884e+22
3.21881509879697e+22
3.218815101562e+22
3.21881510410998e+22
3.21881510794544e+22
3.21881511175849e+22
3.21881511551349e+22
3.2188151190229e+22
3.21881512249968e+22
3.21881512574173e+22
3.2188151289734e+22
3.21881513197425e+22
3.21881513498224e+22
3.21881513776107e+22
3.21881514056043e+22
3.21881514312893e+22
3.21881514573032e+22
3.21881514809647e+22
3.21881515050744e+22
3.21881515267755e+22
3.21881515521948e+22
3.21881515827439e+22
3.21881516138133e+22
3.21881516424762e+22
3.21881516717753e+22
3.21881516986331e+22
3.21881517262623e+22
3.21881517513985e+22
3.21881517774363e+22
3.21881518009304e+22
3.21881518254452e+22
3.21881518473719e+22
3.21881518704488e+22
3.21881518908851e+22
3.21881519125841e+22
3.21881519315774e+22
3.2188151951957e+22
3.21881519695874e+22
3.21881519886975e+22
3.2188152005041e+22
3.21881520229463e+22
3.21881520380942e+22
3.2188152054864e+22
3.21881520688581e+22
3.21881520909263e+22
3.21881521105104e+22
3.2188152132235e+22
3.21881521506967e+22
3.21881521714356e+22
3.21881521888321e+22
3.21881522086416e+22
3.21881522250326e+22
3.21881522439768e+22
3.21881522594212e+22
3.21881522775633e+22
3.21881522921177e+22
3.21881523095036e+22
3.21881523232045e+22
3.21881523398717e+22
3.21881523527612e+22
3.21881523687883e+22
3.21881523811168e+22
3.21881523968933e+22
3.21881524087309e+22
3.21881524239539e+22
3.21881524351033e+22
3.21881524497553e+22
3.21881524602269e+22
3.218815247474e+22
3.21881524853015e+22
3.2188152499642e+22
3.21881525095478e+22
3.21881525240354e+22
3.21881525342848e+22
3.2188152548782e+22
3.21881525595823e+22
3.21881525752409e+22
3.21881525891716e+22
3.21881526160597e+22
)
;

boundaryField
{
    electrode
    {
        type            zeroGradient;
    }
    ground
    {
        type            zeroGradient;
    }
    otherfaces
    {
        type            empty;
    }
}


// ************************************************************************* //
