/*--------------------------------*- C++ -*----------------------------------*\
| =========                 |                                                 |
| \\      /  F ield         | foam-extend: Open Source CFD                    |
|  \\    /   O peration     | Version:     4.0                                |
|   \\  /    A nd           | Web:         http://www.foam-extend.org         |
|    \\/     M anipulation  |                                                 |
\*---------------------------------------------------------------------------*/
FoamFile
{
    version     2.0;
    format      ascii;
    class       volScalarField;
    location    "8.5e-06";
    object      electron;
}
// * * * * * * * * * * * * * * * * * * * * * * * * * * * * * * * * * * * * * //

dimensions      [0 0 0 1 0 0 0];

internalField   nonuniform List<scalar> 
300
(
6.71634361845256e+16
6.7161604863212e+16
6.71569135223375e+16
6.71489711308374e+16
6.71378397701924e+16
6.71234949557184e+16
6.71059308684729e+16
6.70851468889911e+16
6.70611398157195e+16
6.70339069253091e+16
6.70034453124476e+16
6.69697518335261e+16
6.69328231728365e+16
6.68926558222267e+16
6.6849246083531e+16
6.68025900704532e+16
6.67526837089781e+16
6.66995227385008e+16
6.66431027129525e+16
6.65834190020007e+16
6.65204667923551e+16
6.645424108916e+16
6.63847367174731e+16
6.63119483238427e+16
6.62358703779785e+16
6.61564971745025e+16
6.60738228348013e+16
6.59878413089673e+16
6.58985463778246e+16
6.58059316550589e+16
6.57099905894297e+16
6.5610716467075e+16
6.55081024139133e+16
6.54021413981311e+16
6.52928262327579e+16
6.51801495783412e+16
6.50641039457068e+16
6.49446816988056e+16
6.48218750576572e+16
6.46956761013761e+16
6.45660767712828e+16
6.44330688741109e+16
6.42966440852979e+16
6.4156793952356e+16
6.40135098983336e+16
6.38667832253561e+16
6.37166051182479e+16
6.35629666482393e+16
6.34058587767477e+16
6.32452723592367e+16
6.30811981491553e+16
6.29136268019451e+16
6.27425488791177e+16
6.25679548524104e+16
6.23898351080031e+16
6.22081799507949e+16
6.20229796087513e+16
6.18342242373082e+16
6.16419039238282e+16
6.14460086921148e+16
6.12465285069742e+16
6.10434532788254e+16
6.08367728683541e+16
6.06264770911996e+16
6.04125557226858e+16
6.01949985025802e+16
5.99737951398747e+16
5.97489353175944e+16
5.95204086976251e+16
5.92882049255533e+16
5.90523136355091e+16
5.88127244550169e+16
5.85694270098438e+16
5.83224109288325e+16
5.80716658487302e+16
5.78171814189909e+16
5.75589473065484e+16
5.72969532005608e+16
5.70311888171132e+16
5.67616439038711e+16
5.64883082446806e+16
5.62111716641018e+16
5.59302240318786e+16
5.56454552673221e+16
5.53568553436048e+16
5.50644142919656e+16
5.47681222058025e+16
5.44679692446484e+16
5.41639456380225e+16
5.3856041689143e+16
5.35442477784886e+16
5.32285543672031e+16
5.29089520003255e+16
5.25854313098323e+16
5.22579830174667e+16
5.19265979373839e+16
5.15912669786292e+16
5.12519811472887e+16
5.09087315479709e+16
5.05615093850897e+16
5.02103059661049e+16
4.9855112705928e+16
4.94959211200616e+16
4.9132722799887e+16
4.87655094315933e+16
4.83942729385701e+16
4.80190054618286e+16
4.76396984508509e+16
4.72563415531614e+16
4.68689229098757e+16
4.64774302130745e+16
4.60818511995019e+16
4.56821737357776e+16
4.52783858348665e+16
4.48704756528353e+16
4.44584314795567e+16
4.4042241727299e+16
4.36218949180514e+16
4.31973796697399e+16
4.27686846812958e+16
4.2335798716489e+16
4.18987105864202e+16
4.14574091305605e+16
4.1011883196206e+16
4.05621216162009e+16
4.01081131847828e+16
3.96498466313721e+16
3.91873105921202e+16
3.87204935790128e+16
3.82493839462952e+16
3.77739698539759e+16
3.72942392281327e+16
3.68101797177161e+16
3.63217786475257e+16
3.58290229669899e+16
3.533189919435e+16
3.48303933558102e+16
3.4324490919174e+16
3.38141767214403e+16
3.32994348897858e+16
3.27802487553084e+16
3.22566007588562e+16
3.17284723482136e+16
3.1195843865866e+16
3.06586944265015e+16
3.01170017834022e+16
2.9570742182806e+16
2.90198902053323e+16
2.84644185937242e+16
2.79042980655221e+16
2.73394971117468e+16
2.67699817766132e+16
2.61957154294004e+16
2.56166585019327e+16
2.50327682550701e+16
2.44439984469895e+16
2.3850299148938e+16
2.32516163064859e+16
2.26478917183451e+16
2.20390623160242e+16
2.14250607527188e+16
2.08058136536972e+16
2.01812430712193e+16
1.95512613844711e+16
1.89157660649341e+16
1.82746099795102e+16
1.76274623364351e+16
1.69737678613325e+16
1.63129519150506e+16
1.56445601584458e+16
1.49682171462018e+16
1.42835297588966e+16
1.359005485113e+16
1.2887355077878e+16
1.21751102401336e+16
1.1453450708367e+16
1.07231798606697e+16
9.98554154502832e+15
9.24228667645976e+15
8.4961741056836e+15
7.75094722633332e+15
7.01115637903329e+15
6.28242714867187e+15
5.57119333115427e+15
4.88442462956932e+15
4.22957375686305e+15
3.61396252027559e+15
3.04422275894381e+15
2.52595425069352e+15
2.0631808406896e+15
1.6579789274277e+15
1.31044780853849e+15
1.01874545962558e+15
779241511086363
586979208358672
435819294267333
319487391025694
231757134571000
166648970896690
118594734856589
82254632571807.5
55722764663494
36965242828312.2
23518749577211
14328888616478
8546974865904.47
5199964132754.52
3365543373233.26
2373088223052.43
1827108763831.3
1518344794098.2
1339415891406.67
1234307590809.33
1172776448586.75
1137798329756.98
1119232800364.01
1110684779049.65
1107968650095.8
1108287285089.8
1110118800526.19
1112236755828.88
1113745817204.79
1114177807196.71
1113206781786.23
1110598271287.85
1106242235586.88
1100107122527.26
1092217391335.14
1082636536440.01
1071455943163.27
1058786477364.24
1044752022099.66
1029484397786.32
1013119347171.07
995793363049.353
977641143682.73
958793708007.781
939376127073.112
919507640368.76
899286568709.796
878805810987.72
858165992267.894
837460333175.823
816775285331.833
796188923713.444
775770716674.24
755581782852.63
735675287533.067
716096907429.32
696885330209.73
678072772693.003
659685515931.937
641744450659.343
624265807039.017
607261476828.654
590741185189.167
574708226522.138
559159180323.289
544092997907.569
529507738435.756
515397244577.133
501753761376.172
488568105368.844
475830315744.309
463529663138.371
451654993202.308
440195049672.818
429138389282.975
418473272413.721
408187749557.272
398269225610.136
388703966270.723
379466647222.282
370534319589.094
361897052354.664
353545910498.064
345473178268.516
337671690582.692
330134909439.296
322856964492.585
315832706672.691
309057818208.602
302528063418.955
296239195883.173
290168856921.778
284285604131.634
278584417397.726
273079692418.874
267788199525.06
262727752756.601
257864177335.186
253177984990.486
248724747391.758
244531791966.3
240620073962.438
237081081779.83
234049306250.152
231800799839.657
230838718446.343
231998885271.315
)
;

boundaryField
{
    electrode
    {
        type            driftDiffusionElectronDensity;
        seec            0.05;
        Edepend         1;
        field_emission  0;
        field_enhancement_factor 55;
        work_function   5;
        value           uniform 6.71634361845256e+16;
    }
    ground
    {
        type            driftDiffusionElectronDensity;
        seec            0.05;
        Edepend         1;
        field_emission  0;
        field_enhancement_factor 55;
        work_function   5;
        value           uniform 234244528128.283;
    }
    otherfaces
    {
        type            empty;
    }
}


// ************************************************************************* //
