/*--------------------------------*- C++ -*----------------------------------*\
| =========                 |                                                 |
| \\      /  F ield         | foam-extend: Open Source CFD                    |
|  \\    /   O peration     | Version:     4.0                                |
|   \\  /    A nd           | Web:         http://www.foam-extend.org         |
|    \\/     M anipulation  |                                                 |
\*---------------------------------------------------------------------------*/
FoamFile
{
    version     2.0;
    format      ascii;
    class       volVectorField;
    location    "8.5e-06";
    object      J_Arp1;
}
// * * * * * * * * * * * * * * * * * * * * * * * * * * * * * * * * * * * * * //

dimensions      [1 -1 -1 0 0 0 0];

internalField   nonuniform List<vector> 
300
(
(2.08643536933176e+16 -0 -0)
(7.43888418917102e+16 -0 -0)
(1.32494542286648e+17 -0 -0)
(1.84302930069391e+17 -0 -0)
(2.36801299540804e+17 -0 -0)
(2.89619100176847e+17 -0 -0)
(3.42299486489508e+17 -0 -0)
(3.95037633046768e+17 -0 -0)
(4.47804392896882e+17 -0 -0)
(5.00598807281984e+17 -0 -0)
(5.53428266339251e+17 -0 -0)
(6.06294843239959e+17 -0 -0)
(6.59201813648144e+17 -0 -0)
(7.12152429990359e+17 -0 -0)
(7.6514982239095e+17 -0 -0)
(8.18197132276337e+17 -0 -0)
(8.71297470416279e+17 -0 -0)
(9.24453918898149e+17 -0 -0)
(9.7766953155229e+17 -0 -0)
(1.03094733143292e+18 -0 -0)
(1.08429030936831e+18 -0 -0)
(1.13770142250411e+18 -0 -0)
(1.19118359280349e+18 -0 -0)
(1.24473970507844e+18 -0 -0)
(1.2983726056396e+18 -0 -0)
(1.3520851009179e+18 -0 -0)
(1.40587995519541e+18 -0 -0)
(1.45975988975555e+18 -0 -0)
(1.51372758068768e+18 -0 -0)
(1.56778565737761e+18 -0 -0)
(1.62193670101695e+18 -0 -0)
(1.67618324276687e+18 -0 -0)
(1.73052776203775e+18 -0 -0)
(1.78497268503165e+18 -0 -0)
(1.83952038305924e+18 -0 -0)
(1.89417317042831e+18 -0 -0)
(1.94893330338925e+18 -0 -0)
(2.00380297794814e+18 -0 -0)
(2.05878432837801e+18 -0 -0)
(2.11387942549485e+18 -0 -0)
(2.1690902751758e+18 -0 -0)
(2.22441881607888e+18 -0 -0)
(2.27986691860272e+18 -0 -0)
(2.33543638277884e+18 -0 -0)
(2.39112893677375e+18 -0 -0)
(2.44694623511439e+18 -0 -0)
(2.5028898571379e+18 -0 -0)
(2.55896130505491e+18 -0 -0)
(2.61516200266942e+18 -0 -0)
(2.67149329337084e+18 -0 -0)
(2.72795643866498e+18 -0 -0)
(2.78455261654441e+18 -0 -0)
(2.84128291996193e+18 -0 -0)
(2.89814835482635e+18 -0 -0)
(2.95514983894842e+18 -0 -0)
(3.01228820023399e+18 -0 -0)
(3.0695641750064e+18 -0 -0)
(3.12697840667037e+18 -0 -0)
(3.18453144418159e+18 -0 -0)
(3.24222374043494e+18 -0 -0)
(3.30005565096875e+18 -0 -0)
(3.35802743230128e+18 -0 -0)
(3.41613924075956e+18 -0 -0)
(3.47439113100315e+18 -0 -0)
(3.53278305448772e+18 -0 -0)
(3.59131485838675e+18 -0 -0)
(3.6499862842552e+18 -0 -0)
(3.70879696655646e+18 -0 -0)
(3.76774643160897e+18 -0 -0)
(3.82683409614993e+18 -0 -0)
(3.88605926657466e+18 -0 -0)
(3.94542113720542e+18 -0 -0)
(4.00491878964867e+18 -0 -0)
(4.06455119153328e+18 -0 -0)
(4.12431719524009e+18 -0 -0)
(4.18421553722037e+18 -0 -0)
(4.24424483682903e+18 -0 -0)
(4.30440359526658e+18 -0 -0)
(4.36469019478663e+18 -0 -0)
(4.42510289765317e+18 -0 -0)
(4.48563984540551e+18 -0 -0)
(4.54629905786789e+18 -0 -0)
(4.60707843221412e+18 -0 -0)
(4.66797574254927e+18 -0 -0)
(4.72898863870048e+18 -0 -0)
(4.79011464556606e+18 -0 -0)
(4.8513511624895e+18 -0 -0)
(4.91269546233786e+18 -0 -0)
(4.9741446908682e+18 -0 -0)
(5.03569586598784e+18 -0 -0)
(5.09734587703765e+18 -0 -0)
(5.15909148401611e+18 -0 -0)
(5.22092931686909e+18 -0 -0)
(5.28285587489789e+18 -0 -0)
(5.34486752664176e+18 -0 -0)
(5.40696050719962e+18 -0 -0)
(5.46913091550449e+18 -0 -0)
(5.53137471797181e+18 -0 -0)
(5.59368776706161e+18 -0 -0)
(5.65606578655203e+18 -0 -0)
(5.71850426307195e+18 -0 -0)
(5.78099841535284e+18 -0 -0)
(5.84354376745042e+18 -0 -0)
(5.90613678080244e+18 -0 -0)
(5.96877219311174e+18 -0 -0)
(6.03143755915501e+18 -0 -0)
(6.09412342114767e+18 -0 -0)
(6.15685892987235e+18 -0 -0)
(6.21967715538705e+18 -0 -0)
(6.28258364623336e+18 -0 -0)
(6.34557217949527e+18 -0 -0)
(6.40863549764853e+18 -0 -0)
(6.47176606553041e+18 -0 -0)
(6.53495615541391e+18 -0 -0)
(6.59819792072043e+18 -0 -0)
(6.66148340549576e+18 -0 -0)
(6.72480454348855e+18 -0 -0)
(6.78815315464714e+18 -0 -0)
(6.85152094082715e+18 -0 -0)
(6.91489948132084e+18 -0 -0)
(6.97828022791367e+18 -0 -0)
(7.0416545000828e+18 -0 -0)
(7.10501347931727e+18 -0 -0)
(7.16834820374698e+18 -0 -0)
(7.23164956231603e+18 -0 -0)
(7.2949082883215e+18 -0 -0)
(7.35811495318975e+18 -0 -0)
(7.42125995934025e+18 -0 -0)
(7.48433353314657e+18 -0 -0)
(7.54732571714071e+18 -0 -0)
(7.61022636210408e+18 -0 -0)
(7.67302511844563e+18 -0 -0)
(7.73571142734845e+18 -0 -0)
(7.79827451115354e+18 -0 -0)
(7.86070336348544e+18 -0 -0)
(7.92298673856716e+18 -0 -0)
(7.98511314018808e+18 -0 -0)
(8.04707080970205e+18 -0 -0)
(8.10884771367694e+18 -0 -0)
(8.17043153057477e+18 -0 -0)
(8.23180963695364e+18 -0 -0)
(8.29296909239944e+18 -0 -0)
(8.35389662443456e+18 -0 -0)
(8.41457861101172e+18 -0 -0)
(8.47500106533309e+18 -0 -0)
(8.53514961333127e+18 -0 -0)
(8.59500948142028e+18 -0 -0)
(8.65456546796527e+18 -0 -0)
(8.71380191917244e+18 -0 -0)
(8.77270276694795e+18 -0 -0)
(8.83125126092145e+18 -0 -0)
(8.88943070287317e+18 -0 -0)
(8.94722232773379e+18 -0 -0)
(9.00461073049326e+18 -0 -0)
(9.06157043887844e+18 -0 -0)
(9.11809659901941e+18 -0 -0)
(9.17413994862327e+18 -0 -0)
(9.22973475564477e+18 -0 -0)
(9.28475936049127e+18 -0 -0)
(9.33937473204083e+18 -0 -0)
(9.39322275202808e+18 -0 -0)
(9.44688487417029e+18 -0 -0)
(9.49928943448286e+18 -0 -0)
(9.55214240958989e+18 -0 -0)
(9.60270518860528e+18 -0 -0)
(9.6546120163239e+18 -0 -0)
(9.70519779686052e+18 -0 -0)
(9.75493825108573e+18 -0 -0)
(9.80396709648727e+18 -0 -0)
(9.85289416315541e+18 -0 -0)
(9.89998023383376e+18 -0 -0)
(9.94862116366328e+18 -0 -0)
(9.99301346169327e+18 -0 -0)
(1.00416811927128e+19 -0 -0)
(1.00843642413491e+19 -0 -0)
(1.01283091076656e+19 -0 -0)
(1.01710394229885e+19 -0 -0)
(1.02164914233281e+19 -0 -0)
(1.02517658763454e+19 -0 -0)
(1.0293662979507e+19 -0 -0)
(1.03340553077875e+19 -0 -0)
(1.03666355016825e+19 -0 -0)
(1.04010711215233e+19 -0 -0)
(1.04406407087096e+19 -0 -0)
(1.04611278235565e+19 -0 -0)
(1.05007103693478e+19 -0 -0)
(1.05220441582216e+19 -0 -0)
(1.05518309632474e+19 -0 -0)
(1.05707976943601e+19 -0 -0)
(1.0604784868006e+19 -0 -0)
(1.06153756113672e+19 -0 -0)
(1.06494455030019e+19 -0 -0)
(1.06637363018365e+19 -0 -0)
(1.0701992775546e+19 -0 -0)
(1.07144417065995e+19 -0 -0)
(1.07650173255241e+19 -0 -0)
(1.07884820166706e+19 -0 -0)
(1.0859936514522e+19 -0 -0)
(1.09129489750504e+19 -0 -0)
(1.10348369208169e+19 -0 -0)
(1.11800235121874e+19 -0 -0)
(1.1401802184973e+19 -0 -0)
(1.16560567128094e+19 -0 -0)
(1.19454379779774e+19 -0 -0)
(1.21563443263247e+19 -0 -0)
(1.23718801667332e+19 -0 -0)
(1.25417857318032e+19 -0 -0)
(1.26586692058466e+19 -0 -0)
(1.27482323646189e+19 -0 -0)
(1.28198650806659e+19 -0 -0)
(1.28808993755636e+19 -0 -0)
(1.29350099163781e+19 -0 -0)
(1.29857739529517e+19 -0 -0)
(1.30326389915676e+19 -0 -0)
(1.30799076174271e+19 -0 -0)
(1.31255966499125e+19 -0 -0)
(1.31719277226208e+19 -0 -0)
(1.32173700178881e+19 -0 -0)
(1.32640299373801e+19 -0 -0)
(1.33098364235562e+19 -0 -0)
(1.33571059105547e+19 -0 -0)
(1.34033532136691e+19 -0 -0)
(1.34510203108504e+19 -0 -0)
(1.34973511694564e+19 -0 -0)
(1.35452347648859e+19 -0 -0)
(1.35906882120232e+19 -0 -0)
(1.36389258483333e+19 -0 -0)
(1.36838490926931e+19 -0 -0)
(1.37316608983819e+19 -0 -0)
(1.3775755567156e+19 -0 -0)
(1.38228588601115e+19 -0 -0)
(1.38658106745027e+19 -0 -0)
(1.39119215448395e+19 -0 -0)
(1.39534431291904e+19 -0 -0)
(1.39983326988385e+19 -0 -0)
(1.40382243697755e+19 -0 -0)
(1.40817324529604e+19 -0 -0)
(1.41198655285412e+19 -0 -0)
(1.41619010051263e+19 -0 -0)
(1.41981892221618e+19 -0 -0)
(1.42387142672692e+19 -0 -0)
(1.42730363528138e+19 -0 -0)
(1.43118125833352e+19 -0 -0)
(1.43444823906711e+19 -0 -0)
(1.43816013758269e+19 -0 -0)
(1.441228510552e+19 -0 -0)
(1.4447799414817e+19 -0 -0)
(1.44765120100053e+19 -0 -0)
(1.45104674744148e+19 -0 -0)
(1.45372614022132e+19 -0 -0)
(1.45697462159775e+19 -0 -0)
(1.45947106576327e+19 -0 -0)
(1.46258177908821e+19 -0 -0)
(1.46490407810288e+19 -0 -0)
(1.46788596417496e+19 -0 -0)
(1.47004191886797e+19 -0 -0)
(1.47290288690282e+19 -0 -0)
(1.47490184775434e+19 -0 -0)
(1.47764686274201e+19 -0 -0)
(1.47950027116028e+19 -0 -0)
(1.48213085799232e+19 -0 -0)
(1.48385082927472e+19 -0 -0)
(1.48637180884271e+19 -0 -0)
(1.48796260415262e+19 -0 -0)
(1.49038546925674e+19 -0 -0)
(1.49180979277805e+19 -0 -0)
(1.49421871979788e+19 -0 -0)
(1.49548906216157e+19 -0 -0)
(1.49782666266426e+19 -0 -0)
(1.49897461942688e+19 -0 -0)
(1.50124827077958e+19 -0 -0)
(1.50227917487024e+19 -0 -0)
(1.50449567218955e+19 -0 -0)
(1.50541503896453e+19 -0 -0)
(1.50757967109978e+19 -0 -0)
(1.50839108838148e+19 -0 -0)
(1.51050803155656e+19 -0 -0)
(1.51121383703805e+19 -0 -0)
(1.5132867841367e+19 -0 -0)
(1.51389014943249e+19 -0 -0)
(1.51592395860714e+19 -0 -0)
(1.51642898878143e+19 -0 -0)
(1.51842906399829e+19 -0 -0)
(1.518840877627e+19 -0 -0)
(1.52081045979109e+19 -0 -0)
(1.52112894314045e+19 -0 -0)
(1.52307125102755e+19 -0 -0)
(1.52329988505414e+19 -0 -0)
(1.52521926924133e+19 -0 -0)
(1.52536093504731e+19 -0 -0)
(1.52726035079154e+19 -0 -0)
(1.52730792944686e+19 -0 -0)
(1.529181400987e+19 -0 -0)
(1.52913667226449e+19 -0 -0)
(1.53098146264679e+19 -0 -0)
(1.53083084984461e+19 -0 -0)
(1.53264063291117e+19 -0 -0)
(1.53236543233059e+19 -0 -0)
(1.53410876233631e+19 -0 -0)
(1.53159176071661e+19 -0 -0)
)
;

boundaryField
{
    electrode
    {
        type            calculated;
        value           uniform (-13841831847.4069 -0 -0);
    }
    ground
    {
        type            calculated;
        value           uniform (1.53447987270689e+19 -0 -0);
    }
    otherfaces
    {
        type            empty;
    }
}


// ************************************************************************* //
