/*--------------------------------*- C++ -*----------------------------------*\
| =========                 |                                                 |
| \\      /  F ield         | foam-extend: Open Source CFD                    |
|  \\    /   O peration     | Version:     4.0                                |
|   \\  /    A nd           | Web:         http://www.foam-extend.org         |
|    \\/     M anipulation  |                                                 |
\*---------------------------------------------------------------------------*/
FoamFile
{
    version     2.0;
    format      ascii;
    class       volVectorField;
    location    "8.5e-06";
    object      J_electron;
}
// * * * * * * * * * * * * * * * * * * * * * * * * * * * * * * * * * * * * * //

dimensions      [1 -1 -1 0 0 0 0];

internalField   nonuniform List<vector> 
300
(
(-1.33827217989696e+19 0 0)
(-1.37365935044996e+19 0 0)
(-1.62387668782741e+19 0 0)
(-1.5735404491105e+19 0 0)
(-1.57306110580444e+19 0 0)
(-1.57160293180074e+19 0 0)
(-1.56486557595648e+19 0 0)
(-1.55978731948436e+19 0 0)
(-1.55446604584434e+19 0 0)
(-1.54907488465102e+19 0 0)
(-1.54372044462931e+19 0 0)
(-1.53835236477197e+19 0 0)
(-1.53298010633167e+19 0 0)
(-1.52760409812309e+19 0 0)
(-1.52222297055819e+19 0 0)
(-1.51683672704808e+19 0 0)
(-1.51144502081584e+19 0 0)
(-1.50604752397133e+19 0 0)
(-1.50064393163718e+19 0 0)
(-1.49523393349787e+19 0 0)
(-1.48981722253351e+19 0 0)
(-1.48439349389509e+19 0 0)
(-1.47896245237653e+19 0 0)
(-1.47352379829315e+19 0 0)
(-1.46807723525816e+19 0 0)
(-1.46262248057394e+19 0 0)
(-1.45715923695212e+19 0 0)
(-1.45168723055426e+19 0 0)
(-1.44620617998783e+19 0 0)
(-1.44071580762263e+19 0 0)
(-1.43521584508354e+19 0 0)
(-1.42970602649488e+19 0 0)
(-1.42418608611308e+19 0 0)
(-1.41865576628727e+19 0 0)
(-1.41311481920524e+19 0 0)
(-1.40756298710757e+19 0 0)
(-1.40200003375388e+19 0 0)
(-1.39642571668078e+19 0 0)
(-1.39083980190422e+19 0 0)
(-1.38524205820259e+19 0 0)
(-1.37963227053723e+19 0 0)
(-1.37401021033782e+19 0 0)
(-1.36837567037154e+19 0 0)
(-1.36272844092728e+19 0 0)
(-1.35706832106944e+19 0 0)
(-1.3513951124652e+19 0 0)
(-1.34570862806421e+19 0 0)
(-1.34000867820244e+19 0 0)
(-1.33429508895324e+19 0 0)
(-1.32856768426981e+19 0 0)
(-1.32282629791739e+19 0 0)
(-1.31707076722463e+19 0 0)
(-1.31130094266884e+19 0 0)
(-1.30551666804748e+19 0 0)
(-1.29971780393629e+19 0 0)
(-1.29390421595248e+19 0 0)
(-1.28807577067538e+19 0 0)
(-1.28223234392292e+19 0 0)
(-1.27637381948608e+19 0 0)
(-1.27050008336212e+19 0 0)
(-1.26461103367455e+19 0 0)
(-1.25870656686556e+19 0 0)
(-1.25278658975614e+19 0 0)
(-1.24685101889584e+19 0 0)
(-1.24089976868962e+19 0 0)
(-1.23493276280323e+19 0 0)
(-1.22894993523008e+19 0 0)
(-1.22295121835406e+19 0 0)
(-1.21693655687097e+19 0 0)
(-1.2109058919654e+19 0 0)
(-1.20485918273453e+19 0 0)
(-1.19879637924556e+19 0 0)
(-1.19271744653288e+19 0 0)
(-1.18662235342223e+19 0 0)
(-1.18051106634374e+19 0 0)
(-1.17438356317429e+19 0 0)
(-1.1682398228506e+19 0 0)
(-1.16207982572523e+19 0 0)
(-1.1559035602515e+19 0 0)
(-1.14971101266104e+19 0 0)
(-1.14350217512107e+19 0 0)
(-1.13727704238407e+19 0 0)
(-1.13103560382779e+19 0 0)
(-1.12477786033897e+19 0 0)
(-1.11850380582212e+19 0 0)
(-1.1122134342287e+19 0 0)
(-1.10590674331432e+19 0 0)
(-1.09958372547997e+19 0 0)
(-1.09324437225068e+19 0 0)
(-1.08688867149595e+19 0 0)
(-1.08051660847301e+19 0 0)
(-1.07412816198783e+19 0 0)
(-1.06772330463164e+19 0 0)
(-1.06130199861191e+19 0 0)
(-1.05486422190593e+19 0 0)
(-1.04840993164629e+19 0 0)
(-1.04193902061919e+19 0 0)
(-1.03545127114181e+19 0 0)
(-1.02894677426999e+19 0 0)
(-1.02242629211275e+19 0 0)
(-1.01588953846304e+19 0 0)
(-1.00933148835227e+19 0 0)
(-1.00274869391689e+19 0 0)
(-9.9616451426669e+18 0 0)
(-9.89612813646614e+18 0 0)
(-9.82985347326699e+18 0 0)
(-9.7597723577963e+18 0 0)
(-9.68793382544317e+18 0 0)
(-9.61872501784969e+18 0 0)
(-9.5512077584905e+18 0 0)
(-9.48374266754525e+18 0 0)
(-9.41608023481542e+18 0 0)
(-9.34814819307854e+18 0 0)
(-9.27992164650897e+18 0 0)
(-9.21138994681427e+18 0 0)
(-9.14254492982418e+18 0 0)
(-9.07337833016197e+18 0 0)
(-9.00388102455375e+18 0 0)
(-8.93404271776367e+18 0 0)
(-8.8638518852704e+18 0 0)
(-8.79329552962473e+18 0 0)
(-8.72235919230789e+18 0 0)
(-8.65102662826197e+18 0 0)
(-8.57927974997774e+18 0 0)
(-8.50709845686931e+18 0 0)
(-8.43446029472445e+18 0 0)
(-8.36134040537609e+18 0 0)
(-8.28771108500695e+18 0 0)
(-8.21354164226674e+18 0 0)
(-8.13879796585883e+18 0 0)
(-8.06344223474267e+18 0 0)
(-7.98743245036768e+18 0 0)
(-7.91072204288111e+18 0 0)
(-7.83325926859997e+18 0 0)
(-7.75498672482392e+18 0 0)
(-7.67584059446683e+18 0 0)
(-7.5957499971392e+18 0 0)
(-7.51463607060765e+18 0 0)
(-7.43241109210556e+18 0 0)
(-7.3489773297643e+18 0 0)
(-7.26422589869969e+18 0 0)
(-7.17803531152864e+18 0 0)
(-7.09026994682279e+18 0 0)
(-7.00077818657741e+18 0 0)
(-6.90939058008149e+18 0 0)
(-6.81591712828726e+18 0 0)
(-6.72014514979969e+18 0 0)
(-6.62183637498829e+18 0 0)
(-6.52072023458998e+18 0 0)
(-6.41650390935483e+18 0 0)
(-6.30882550206589e+18 0 0)
(-6.19736279773872e+18 0 0)
(-6.08154148460508e+18 0 0)
(-5.96121678276513e+18 0 0)
(-5.83511751288947e+18 0 0)
(-5.704047542164e+18 0 0)
(-5.56477869667962e+18 0 0)
(-5.42087599621354e+18 0 0)
(-5.26394987320443e+18 0 0)
(-5.10611652371861e+18 0 0)
(-4.9225800808273e+18 0 0)
(-4.74918467750016e+18 0 0)
(-4.51793246369297e+18 0 0)
(-4.28951010236642e+18 0 0)
(-3.88707940368699e+18 0 0)
(-2.96865036840311e+18 0 0)
(-2.28087423403085e+18 0 0)
(-2.2048651556128e+18 0 0)
(-2.0908074746438e+18 0 0)
(-1.74559187418848e+18 0 0)
(-1.07746972675342e+18 0 0)
(-4.22432842309435e+17 0 0)
(1.82115293611426e+17 0 0)
(5.52916828511273e+17 0 0)
(-1.23682747807957e+17 0 0)
(-6.14978107646935e+17 0 0)
(-4.71027350461481e+16 0 0)
(-4.96649248857653e+17 0 0)
(-1.97550090566291e+18 0 0)
(-2.27190689072415e+18 0 0)
(-2.77325965332736e+18 0 0)
(-4.23090258459283e+18 0 0)
(-3.82035732388853e+18 0 0)
(-4.14476283332264e+18 0 0)
(-4.06774961833247e+18 0 0)
(-2.43821674919205e+18 0 0)
(-5.83251483699446e+17 0 0)
(1.61427709320652e+18 0 0)
(4.79283546365415e+18 0 0)
(7.78836451847622e+18 0 0)
(1.02807079764702e+19 0 0)
(1.23744582235377e+19 0 0)
(1.37483696740678e+19 0 0)
(1.37001168075513e+19 0 0)
(1.43398197548087e+19 0 0)
(1.09926779498774e+19 0 0)
(1.02306294715599e+19 0 0)
(7.50310709003466e+18 0 0)
(6.52167616086521e+18 0 0)
(6.15566252200942e+18 0 0)
(-4.00538564953509e+18 0 0)
(2.30226454077628e+18 0 0)
(-1.26548254342598e+18 0 0)
(-2.13710114553722e+18 0 0)
(-2.03453407172119e+18 0 0)
(-2.02974645747339e+18 0 0)
(-2.21643141251229e+18 0 0)
(-2.51414642704369e+18 0 0)
(-2.76509739238816e+18 0 0)
(-2.90770866361027e+18 0 0)
(-2.97140348453451e+18 0 0)
(-2.984937961838e+18 0 0)
(-2.97382235725332e+18 0 0)
(-2.9476314593789e+18 0 0)
(-2.91312090645904e+18 0 0)
(-2.87809016003167e+18 0 0)
(-2.83717310128945e+18 0 0)
(-2.79240813903087e+18 0 0)
(-2.74628661954426e+18 0 0)
(-2.70000589044869e+18 0 0)
(-2.65405978977417e+18 0 0)
(-2.60697489687156e+18 0 0)
(-2.56013071672249e+18 0 0)
(-2.51293451719995e+18 0 0)
(-2.46543770592822e+18 0 0)
(-2.41793232427203e+18 0 0)
(-2.37050569393544e+18 0 0)
(-2.32327878726397e+18 0 0)
(-2.27634431809692e+18 0 0)
(-2.22978766622334e+18 0 0)
(-2.1836863103062e+18 0 0)
(-2.13811050509963e+18 0 0)
(-2.09312377400521e+18 0 0)
(-2.04878260960908e+18 0 0)
(-2.00513639843664e+18 0 0)
(-1.96223008751092e+18 0 0)
(-1.92008971457748e+18 0 0)
(-1.87877928137521e+18 0 0)
(-1.83811654687404e+18 0 0)
(-1.79866194943054e+18 0 0)
(-1.75988253194284e+18 0 0)
(-1.72200610790881e+18 0 0)
(-1.68500162003507e+18 0 0)
(-1.64888221719965e+18 0 0)
(-1.61365121300723e+18 0 0)
(-1.57930497270968e+18 0 0)
(-1.54583673714831e+18 0 0)
(-1.51323668243695e+18 0 0)
(-1.48149295411039e+18 0 0)
(-1.45059149843819e+18 0 0)
(-1.42051699199429e+18 0 0)
(-1.39125243887481e+18 0 0)
(-1.36278221811469e+18 0 0)
(-1.335084548468e+18 0 0)
(-1.3081682105807e+18 0 0)
(-1.2819077069466e+18 0 0)
(-1.25642908368606e+18 0 0)
(-1.23167922805901e+18 0 0)
(-1.20752376276349e+18 0 0)
(-1.18405000670766e+18 0 0)
(-1.16120117402088e+18 0 0)
(-1.13896311607371e+18 0 0)
(-1.11731504082233e+18 0 0)
(-1.09623930282533e+18 0 0)
(-1.07571986738734e+18 0 0)
(-1.0557358781951e+18 0 0)
(-1.03626754825319e+18 0 0)
(-1.01729941024472e+18 0 0)
(-9.98815280813678e+17 0 0)
(-9.80792395050436e+17 0 0)
(-9.63220741262848e+17 0 0)
(-9.45966853854848e+17 0 0)
(-9.29406713990307e+17 0 0)
(-9.13107609371265e+17 0 0)
(-8.97215615198772e+17 0 0)
(-8.8169899928833e+17 0 0)
(-8.66555371921635e+17 0 0)
(-8.51772071014324e+17 0 0)
(-8.37338592937646e+17 0 0)
(-8.23243394675725e+17 0 0)
(-8.09476878476324e+17 0 0)
(-7.96018817958169e+17 0 0)
(-7.82875189901843e+17 0 0)
(-7.69847608155385e+17 0 0)
(-7.57406388800556e+17 0 0)
(-7.45327739866772e+17 0 0)
(-7.3341231524327e+17 0 0)
(-7.21758567001707e+17 0 0)
(-7.10399603580541e+17 0 0)
(-6.98870254308156e+17 0 0)
(-6.88601312254372e+17 0 0)
(-6.78144413742378e+17 0 0)
(-6.67671948084295e+17 0 0)
(-6.57966244276798e+17 0 0)
(-6.48618025612365e+17 0 0)
(-6.39376433580369e+17 0 0)
(-6.31178238533465e+17 0 0)
(-6.23924097839654e+17 0 0)
(-6.17527124876346e+17 0 0)
(-6.06566648268137e+17 0 0)
)
;

boundaryField
{
    electrode
    {
        type            calculated;
        value           uniform (-1.60016383472252e+19 0 0);
    }
    ground
    {
        type            calculated;
        value           uniform (-6.03911850388745e+17 0 0);
    }
    otherfaces
    {
        type            empty;
    }
}


// ************************************************************************* //
