/*--------------------------------*- C++ -*----------------------------------*\
| =========                 |                                                 |
| \\      /  F ield         | foam-extend: Open Source CFD                    |
|  \\    /   O peration     | Version:     4.0                                |
|   \\  /    A nd           | Web:         http://www.foam-extend.org         |
|    \\/     M anipulation  |                                                 |
\*---------------------------------------------------------------------------*/
FoamFile
{
    version     2.0;
    format      ascii;
    class       volScalarField;
    location    "8.5e-06";
    object      Phi;
}
// * * * * * * * * * * * * * * * * * * * * * * * * * * * * * * * * * * * * * //

dimensions      [0 0 0 1 0 0 0];

internalField   nonuniform List<scalar> 
300
(
699.999929201585
699.999707890801
699.99918906041
699.998405229322
699.997364742832
699.996062203007
699.994498476541
699.992673135489
699.990585615908
699.988235429073
699.985621990273
699.982744663161
699.979602757585
699.97619552626
699.972522165661
699.968581815455
699.964373558065
699.959896418283
699.955149362802
699.950131299739
699.94484107813
699.939277487397
699.933439256776
699.927325054728
699.920933488316
699.914263102542
699.907312379667
699.900079738483
699.892563533563
699.88476205447
699.876673524931
699.868296101978
699.859627875045
699.850666865032
699.841411023323
699.83185823077
699.822006296625
699.811852957435
699.801395875889
699.790632639613
699.779560759924
699.768177670526
699.756480726158
699.744467201184
699.732134288124
699.719479096138
699.706498649429
699.693189885602
699.679549653941
699.665574713628
699.651261731884
699.636607282039
699.621607841517
699.606259789749
699.590559405995
699.57450286708
699.558086245037
699.541305504649
699.524156500903
699.506634976321
699.488736558195
699.470456755701
699.451790956892
699.432734425564
699.413282297996
699.393429579543
699.373171141087
699.352501715337
699.33141589297
699.309908118597
699.287972686564
699.265603736559
699.242795249026
699.21954104038
699.195834757999
699.171669874997
699.147039684754
699.121937295196
699.096355622816
699.070287386406
699.043725100505
699.016661068535
698.989087375603
698.96099588097
698.932378210144
698.903225746588
698.873529623032
698.843280712338
698.812469617913
698.781086663646
698.749121883318
698.716565009478
698.683405461735
698.649632334443
698.615234383723
698.580200013805
698.544517262634
698.508173786712
698.471156845028
698.43345328197
698.395049509605
698.355931489865
698.31608471477
698.275494179604
698.234144354903
698.192019189736
698.149102138728
698.105376029162
698.060822708501
698.015423141186
697.969157581563
697.922005560849
697.873945846892
697.824956404741
697.775014353973
697.724095923063
697.672176400652
697.619230083441
697.565230220455
697.510148953325
697.453957252287
697.396624847479
697.338120155141
697.278410198246
697.217460521044
697.155235096955
697.091696229169
697.026804443255
696.96051837099
696.89279462452
696.823587659896
696.752849628846
696.680530217591
696.606576471279
696.530932602494
696.453539782066
696.374335910187
696.29325536556
696.210228730022
696.125182485698
696.038038681356
695.948714564131
695.857122172256
695.763167883736
695.666751915212
695.567767764257
695.466101587435
695.361631505
695.254226821929
695.14374715285
695.030041436499
694.912946824131
694.792287416951
694.66787284514
694.539496615675
694.406934316028
694.269941336896
694.128250741876
693.981569833435
693.829578018956
693.671920983866
693.508210028708
693.338009987446
693.160845351053
692.976171449975
692.783399612415
692.581802115761
692.370411224863
692.148146848178
691.913858062687
691.666243307594
691.403799511907
691.124691506289
690.826795411548
690.507545526609
690.16406266905
689.793417036308
689.392183523459
688.956162625988
688.481065065741
687.962408660015
687.394833217813
686.772945374181
686.091418896514
685.344111877081
684.525490715415
683.630068662528
682.652176063443
681.587019305862
680.430512352562
679.178452480991
677.827841291961
676.376575435376
674.823019051082
673.165628699522
671.404304146259
669.539199018994
667.570871106373
665.499489537365
663.32558441636
661.049531046779
658.672179425525
656.193306213773
653.612085823325
650.927727091467
648.13995632829
645.248946183364
642.255295036539
639.159906971253
635.96377022937
632.667875457203
629.273159557658
625.780484466845
622.190619527312
618.504534275679
614.723313001963
610.847952317082
606.87935466583
602.818346819942
598.665672263692
594.422010828111
590.087968117674
585.664096997194
581.150884848297
576.548775372739
571.858153297688
567.07965000252
562.213881160398
557.261440232634
552.222861844176
547.098665832055
541.889317434482
536.595273524375
531.216939526352
525.754718110363
520.208962600591
514.580028354549
508.868222716994
503.073859167768
497.197203865981
491.238532770383
485.198074755986
479.076135089446
472.87312456001
466.589466902717
460.225540438464
453.781739843684
447.258414263782
440.655932249832
433.974616353618
427.214811337701
420.376815159747
413.460950616348
406.467492757861
399.396743981329
392.248957894243
385.024417877274
377.72335741176
370.34604199373
362.892686218132
355.363538556555
347.758796012147
340.078690687706
332.323402967033
324.493149523014
316.588094830748
308.608569208221
300.554856326982
292.427286103005
284.226125814863
275.951691554177
267.604235064698
259.184059476385
250.69140175644
242.126552834513
233.489735648619
224.781229683153
216.001244560995
207.15004906486
198.227840160169
189.234876557552
180.171343100755
171.037488950352
161.833487281224
152.559578128453
143.215923489767
133.802754885043
124.320223587267
114.768552991086
105.147883997967
95.4584322727187
85.7003287064579
75.8737820316499
65.978913870897
56.0159263632952
45.9849324174617
35.8861285951698
25.7196197860285
15.4855982295345
5.18420168831481
)
;

boundaryField
{
    electrode
    {
        type            fixedValue;
        value           uniform 700;
    }
    ground
    {
        type            fixedValue;
        value           uniform 0;
    }
    otherfaces
    {
        type            empty;
    }
}


// ************************************************************************* //
