/*--------------------------------*- C++ -*----------------------------------*\
| =========                 |                                                 |
| \\      /  F ield         | foam-extend: Open Source CFD                    |
|  \\    /   O peration     | Version:     4.0                                |
|   \\  /    A nd           | Web:         http://www.foam-extend.org         |
|    \\/     M anipulation  |                                                 |
\*---------------------------------------------------------------------------*/
FoamFile
{
    version     2.0;
    format      ascii;
    class       volScalarField;
    location    "8.5e-06";
    object      Sy_electron;
}
// * * * * * * * * * * * * * * * * * * * * * * * * * * * * * * * * * * * * * //

dimensions      [1 -3 -1 0 0 0 0];

internalField   nonuniform List<scalar> 
300
(
3.15244743802316e-09
3.153131517523e-09
3.15337454526881e-09
3.1532771219147e-09
3.15319089212794e-09
3.15304652186105e-09
3.15285228266305e-09
3.15261301729228e-09
3.1523264280082e-09
3.151992641003e-09
3.15161137794956e-09
3.15118226432811e-09
3.15070496787765e-09
3.15017912672147e-09
3.14960436444506e-09
3.14898029066414e-09
3.14830649947387e-09
3.14758256984122e-09
3.14680806544967e-09
3.1459825345662e-09
3.14510550996728e-09
3.14417650882708e-09
3.14319503260503e-09
3.14216056694707e-09
3.14107258155101e-09
3.13993053012106e-09
3.13873385018272e-09
3.13748196299761e-09
3.13617427345591e-09
3.13481016992641e-09
3.13338902411383e-09
3.1319101910029e-09
3.1303730087056e-09
3.12877679829179e-09
3.12712086367196e-09
3.12540449146222e-09
3.12362695083713e-09
3.12178749339764e-09
3.11988535301597e-09
3.11791974567494e-09
3.11588986931615e-09
3.11379490368605e-09
3.1116340101575e-09
3.10940633156874e-09
3.10711099205067e-09
3.10474709683877e-09
3.10231373208767e-09
3.09980996469007e-09
3.09723484206191e-09
3.09458739195871e-09
3.0918666222504e-09
3.08907152075728e-09
3.08620105495293e-09
3.08325417181045e-09
3.08022979750705e-09
3.07712683720135e-09
3.07394417475249e-09
3.0706806724695e-09
3.06733517083645e-09
3.06390648823344e-09
3.0603934206434e-09
3.05679474134118e-09
3.05310920056634e-09
3.04933552517647e-09
3.04547241837232e-09
3.04151855932685e-09
3.03747260274527e-09
3.03333317851553e-09
3.02909889130283e-09
3.02476832013406e-09
3.0203400179467e-09
3.01581251112906e-09
3.01118429906228e-09
3.00645385362292e-09
3.00161961861905e-09
2.99668000930231e-09
2.99163341177718e-09
2.98647818238391e-09
2.98121264713436e-09
2.97583510094413e-09
2.97034380712681e-09
2.96473699652756e-09
2.9590128668262e-09
2.95316958176897e-09
2.94720527030459e-09
2.94111802579005e-09
2.93490590506509e-09
2.92856692747766e-09
2.92209907389274e-09
2.91550028569999e-09
2.90876846366397e-09
2.90190146674593e-09
2.89489711109696e-09
2.88775316857621e-09
2.88046736546535e-09
2.87303738103801e-09
2.86546084619895e-09
2.85773534219463e-09
2.8498583985673e-09
2.84182748975306e-09
2.83364003392968e-09
2.82529340098472e-09
2.81678491549163e-09
2.80811180503934e-09
2.79927113427543e-09
2.79026003550488e-09
2.78107629346747e-09
2.77220089561594e-09
2.76480456023561e-09
2.7572466387003e-09
2.74952314876604e-09
2.7416303927823e-09
2.73356464135699e-09
2.72532208466869e-09
2.71689881532244e-09
2.70829081969401e-09
2.69949397186767e-09
2.69050402794789e-09
2.68131662004254e-09
2.67192725004793e-09
2.66233128301482e-09
2.65252394017944e-09
2.64250029137872e-09
2.632255247177e-09
2.62178355032132e-09
2.61107976666462e-09
2.60013827547374e-09
2.58895325919355e-09
2.57751869230791e-09
2.56582832956696e-09
2.55387569330297e-09
2.54165405990088e-09
2.52915644523218e-09
2.51637558900495e-09
2.50330393800933e-09
2.48993362814251e-09
2.47625646489457e-09
2.46226390241967e-09
2.44794702102414e-09
2.43329650286644e-09
2.41830260561888e-09
2.4029551341157e-09
2.38724340964573e-09
2.37115623677811e-09
2.35468186739316e-09
2.3378079618029e-09
2.32052154644221e-09
2.30280896795443e-09
2.2846558442403e-09
2.26604700829634e-09
2.24696645565285e-09
2.22739726611454e-09
2.20732157037616e-09
2.18672039265541e-09
2.16557374297396e-09
2.143860203904e-09
2.12155738637932e-09
2.09864092719427e-09
2.07508593042006e-09
2.05086407610212e-09
2.02594869988791e-09
2.00030687682999e-09
1.97391346953648e-09
1.94701948323204e-09
1.92099699468863e-09
1.89444546322369e-09
1.86741626749677e-09
1.83948139367517e-09
1.8102821447322e-09
1.77980357231412e-09
1.74816238932288e-09
1.71537534528627e-09
1.68127795802942e-09
1.64558235622485e-09
1.60749086663416e-09
1.56636169486297e-09
1.52268417645192e-09
1.47643063836897e-09
1.4263921231753e-09
1.37031411119382e-09
1.30983423645783e-09
1.24602087457346e-09
1.17987692588376e-09
1.11297355580018e-09
1.04606406295469e-09
9.82022276617235e-10
9.17111107667332e-10
8.59699224252985e-10
8.16450564074707e-10
7.81732938789155e-10
7.65766742757094e-10
7.64224173794896e-10
7.88994611933188e-10
8.43282760957708e-10
9.41030256681804e-10
1.09947026234116e-09
1.35169685523116e-09
1.7660764222856e-09
2.48149714492272e-09
3.68798664872786e-09
5.04118988939893e-09
6.23451722609346e-09
7.32179401045933e-09
7.27026851827804e-09
6.31848406330857e-09
5.00333973401898e-09
3.78980129239465e-09
2.85326249888945e-09
2.23502871022237e-09
1.84394969196359e-09
1.60401733982909e-09
1.46049747319952e-09
1.37103252679757e-09
1.32183730974935e-09
1.29779247152847e-09
1.28430828935881e-09
1.28115850539636e-09
1.28385850927942e-09
1.28938814236509e-09
1.29612051606214e-09
1.30271962748129e-09
1.30689975767529e-09
1.3090034233908e-09
1.30931726384854e-09
1.30758174758048e-09
1.30367983712265e-09
1.29758404738126e-09
1.28933098397579e-09
1.27900184300875e-09
1.26670967605782e-09
1.25258973887115e-09
1.23679206146175e-09
1.21947559503113e-09
1.20080357804941e-09
1.18093986978837e-09
1.16004600206433e-09
1.13827901143788e-09
1.11578874538602e-09
1.09271829807623e-09
1.06918532026704e-09
1.04530100391552e-09
1.02118630459535e-09
9.96953117505015e-10
9.72705345679787e-10
9.48536929761463e-10
9.24531587266421e-10
9.00763119953257e-10
8.77295882115865e-10
8.54185328363815e-10
8.31478602811559e-10
8.09215149573439e-10
7.87427344214463e-10
7.66085760354077e-10
7.45220543141911e-10
7.24921540402347e-10
7.05200361586461e-10
6.86060939225681e-10
6.67499190094216e-10
6.49513862178152e-10
6.32102638615457e-10
6.15258168936452e-10
5.98971038536024e-10
5.83104627558204e-10
5.67752035554939e-10
5.52901197381125e-10
5.38539500772278e-10
5.24654177117828e-10
5.11232193442371e-10
4.98260116683373e-10
4.85724227745607e-10
4.73609995108515e-10
4.61901648746328e-10
4.50569337997852e-10
4.3958606667098e-10
4.28940553315548e-10
4.18622439479615e-10
4.08622769997062e-10
3.98933167502449e-10
3.89545929068451e-10
3.8045406554505e-10
3.71651354166079e-10
3.63132468025562e-10
3.54892060968447e-10
3.46506137713055e-10
3.38117143285902e-10
3.29928604931453e-10
3.2193392578042e-10
3.14148344889248e-10
3.06588676929836e-10
2.99172505990074e-10
2.90760326523374e-10
2.8251480316809e-10
2.74491941294991e-10
2.65930290715967e-10
2.56190094966911e-10
2.46771306648217e-10
2.34450780658873e-10
2.20944556016106e-10
2.03757932552076e-10
1.78988676015151e-10
)
;

boundaryField
{
    electrode
    {
        type            zeroGradient;
    }
    ground
    {
        type            zeroGradient;
    }
    otherfaces
    {
        type            empty;
    }
}


// ************************************************************************* //
