/*--------------------------------*- C++ -*----------------------------------*\
| =========                 |                                                 |
| \\      /  F ield         | foam-extend: Open Source CFD                    |
|  \\    /   O peration     | Version:     4.0                                |
|   \\  /    A nd           | Web:         http://www.foam-extend.org         |
|    \\/     M anipulation  |                                                 |
\*---------------------------------------------------------------------------*/
FoamFile
{
    version     2.0;
    format      ascii;
    class       volScalarField;
    location    "8.5e-06";
    object      TeMean;
}
// * * * * * * * * * * * * * * * * * * * * * * * * * * * * * * * * * * * * * //

dimensions      [0 0 0 1 0 0 0];

internalField   nonuniform List<scalar> 
300
(
36467.3815034221
36467.6736319379
36467.8129700277
36467.8361522925
36467.8881318975
36467.9471253866
36468.0161191519
36468.0976767196
36468.1916419892
36468.2985466678
36468.4188189775
36468.5528560432
36468.7010560555
36468.8637931358
36469.0414316183
36469.2343250151
36469.4428148865
36469.6672344763
36469.9079083725
36470.1651523744
36470.4392755948
36470.7305788946
36471.0393566912
36471.3658964325
36471.7104783001
36472.0733835159
36472.4548888626
36472.8552647142
36473.2747815252
36473.7137011101
36474.1722756969
36474.6507664101
36475.1494414646
36475.6685614277
36476.2083834769
36476.7691584161
36477.3511367482
36477.9545753844
36478.5797311249
36479.2268573138
36479.8962053708
36480.5880333742
36481.3025999808
36482.0401623696
36482.8009789477
36483.5853092137
36484.3934134761
36485.2255522248
36486.0819837838
36486.9629643138
36487.8687480496
36488.7995984452
36489.755794501
36490.737617066
36491.745352547
36492.7792975065
36493.8397468587
36494.9269954746
36496.0413480517
36497.1831144914
36498.3526088464
36499.5501562804
36500.7760749744
36502.0306839744
36503.3143299091
36504.6273759728
36505.9701881288
36507.3431367794
36508.7465997469
36510.1809661624
36511.6466305942
36513.143986683
36514.6734469044
36516.2354399811
36517.8303950204
36519.4587436581
36521.12094131
36522.8174731401
36524.5488254819
36526.3154906797
36528.1179932539
36529.9568749438
36531.832678603
36533.7459542115
36535.697266642
36537.6872131386
36539.7164203435
36541.7855239258
36543.8951708702
36546.0460346975
36548.2387993923
36550.4741686672
36552.7529029582
36555.0757740374
36557.4435687206
36559.8571154112
36562.3172630018
36564.8248896593
36567.3808996762
36569.9862309629
36572.6418673851
36575.3488057434
36578.1080764316
36580.9207733005
36583.7880259451
36586.7110004328
36589.6909013849
36592.7289768001
36595.8265303508
36598.9849166548
36602.2055461456
36605.4898838694
36608.8394470237
36612.2558300321
36615.7406842814
36619.2957189055
36622.9227116043
36626.6235324204
36630.4001481904
36634.2545807572
36638.1889367286
36642.2054273674
36646.3063603915
36650.4941635959
36654.7713963757
36659.1407260898
36663.6049298778
36668.1669364951
36672.8298326609
36677.5968436051
36682.4713582067
36687.4569585659
36692.5574284117
36697.7767254045
36703.1190207846
36708.5887758329
36714.1907262658
36719.9298789532
36725.8115466745
36731.8413832295
36738.0254131931
36744.3700574
36750.8821677977
36757.5690624175
36764.4386033894
36771.4992750414
36778.7602269182
36786.2313491411
36793.9233012668
36801.8476358417
36810.0169788324
36818.4450873789
36827.1470022671
36836.1393011507
36845.4401885017
36855.069820604
36865.0505519942
36875.4075559754
36886.1694045531
36897.3699752795
36909.057068645
36921.2910655497
36934.1307855453
36947.6358229884
36961.8861906726
36976.9764645966
36992.9759373806
37009.9519805361
37028.0273093498
37047.3493692405
37068.0351026985
37090.1889735919
37113.9349124727
37139.3168440813
37166.3501876197
37195.279787075
37226.3678195494
37259.7541874472
37295.992650877
37336.1185981806
37381.4898258891
37434.5443095542
37499.268036408
37581.3464345912
37689.6122071673
37837.3552158412
38043.5512540801
38336.3137525125
38757.6473754312
39370.2692676602
40269.994456601
41607.338795529
43623.901320098
46778.3649030794
51539.4304364215
58243.3408899429
67973.8057430697
81298.5655739521
99262.9056476502
122227.751000078
150272.667678982
183219.174896023
220496.694150899
261414.961739735
305823.515412724
353485.007074834
403649.127595951
454730.06696866
504664.279958283
551614.443388272
594417.304447405
632638.568100658
666362.598227974
695981.370144311
722003.454701907
744924.718066882
765239.449338704
783391.433624801
799739.848617528
814576.060178683
828130.62823546
840595.189610504
852139.565259456
862903.342805019
873001.999232535
882529.45777936
891563.198958927
900166.925282544
908392.863861868
916283.706777739
923874.099662435
931191.851423167
938258.914326503
945092.131190514
951703.93221605
958102.932526068
964294.364623524
970280.455547005
976061.014916079
981633.23289994
986991.521600113
992128.689534041
997036.296430703
1001704.52577571
1006122.26604141
1010277.19084203
1014155.71324978
1017743.27979384
1021024.58200546
1023983.37811317
1026603.1016216
1028866.7613489
1030756.63985557
1032254.58301655
1033341.7164371
1033998.97076442
1034201.07508581
1033940.23621878
1033194.15956274
1031940.90819674
1030160.06042192
1027831.16418044
1024933.64264573
1021446.68033383
1017349.18290397
1012620.03513418
1007237.53997014
1001179.49457254
994423.845909679
986948.023741345
978729.076771197
969743.022179474
959964.647343286
949368.755043658
937929.074259295
925617.327211443
912403.796389596
898257.081086247
883143.952004319
867029.077481581
849874.854183787
831641.247888031
812288.370886717
791772.905502418
770041.08085361
747036.795442174
722698.824937643
696952.069693829
669718.62093911
640913.135944654
610427.262562234
578136.432885192
543904.568534483
507547.830800157
468842.964714583
427509.942127101
383156.102322674
335237.177098207
282959.900133088
225279.226253899
)
;

boundaryField
{
    electrode
    {
        type            calculated;
        value           uniform 36467.3815034235;
    }
    ground
    {
        type            calculated;
        value           uniform 192569.368002546;
    }
    otherfaces
    {
        type            empty;
    }
}


// ************************************************************************* //
