/*--------------------------------*- C++ -*----------------------------------*\
| =========                 |                                                 |
| \\      /  F ield         | foam-extend: Open Source CFD                    |
|  \\    /   O peration     | Version:     4.0                                |
|   \\  /    A nd           | Web:         http://www.foam-extend.org         |
|    \\/     M anipulation  |                                                 |
\*---------------------------------------------------------------------------*/
FoamFile
{
    version     2.0;
    format      ascii;
    class       volScalarField;
    location    "1e-05";
    object      Ar;
}
// * * * * * * * * * * * * * * * * * * * * * * * * * * * * * * * * * * * * * //

dimensions      [0 0 0 1 0 0 0];

internalField   nonuniform List<scalar> 
300
(
3.21880148274318e+22
3.21880147850784e+22
3.21880148156685e+22
3.21880148290556e+22
3.21880148511869e+22
3.21880148816979e+22
3.2188014918767e+22
3.2188014963093e+22
3.21880150145508e+22
3.21880150731035e+22
3.21880151387573e+22
3.21880152114994e+22
3.21880152913242e+22
3.21880153782275e+22
3.21880154722064e+22
3.21880155732594e+22
3.21880156813888e+22
3.21880157965936e+22
3.21880159188732e+22
3.21880160482294e+22
3.21880161846644e+22
3.21880163281809e+22
3.21880164787823e+22
3.21880166364725e+22
3.21880168012716e+22
3.21880169731719e+22
3.21880171521797e+22
3.21880173383035e+22
3.21880175315403e+22
3.21880177318962e+22
3.21880179393962e+22
3.21880181540404e+22
3.21880183758223e+22
3.21880186047486e+22
3.21880188408264e+22
3.21880190840634e+22
3.2188019334472e+22
3.21880195920586e+22
3.21880198568294e+22
3.21880201287942e+22
3.21880204079629e+22
3.21880206943442e+22
3.21880209879481e+22
3.21880212887851e+22
3.2188021596866e+22
3.21880219122022e+22
3.21880222348075e+22
3.21880225646952e+22
3.21880229018883e+22
3.21880232464033e+22
3.21880235982682e+22
3.2188023957486e+22
3.21880243240778e+22
3.21880246980417e+22
3.21880250793854e+22
3.21880254681086e+22
3.21880258642242e+22
3.21880262677454e+22
3.21880266786861e+22
3.21880270970622e+22
3.21880275228859e+22
3.21880279561718e+22
3.21880283969398e+22
3.21880288452245e+22
3.21880293010387e+22
3.21880297643738e+22
3.21880302352443e+22
3.21880307136653e+22
3.21880311996521e+22
3.21880316932202e+22
3.21880321943875e+22
3.21880327031778e+22
3.21880332196096e+22
3.21880337436923e+22
3.21880342754564e+22
3.21880348149174e+22
3.21880353620859e+22
3.21880359169825e+22
3.21880364796042e+22
3.21880370499978e+22
3.21880376281453e+22
3.21880382140611e+22
3.21880388077645e+22
3.21880394092695e+22
3.2188040018607e+22
3.21880406357852e+22
3.21880412608084e+22
3.2188041893692e+22
3.21880425344635e+22
3.21880431831307e+22
3.21880438397149e+22
3.21880445042762e+22
3.21880451767746e+22
3.21880458572231e+22
3.21880465456366e+22
3.21880472420294e+22
3.2188047946416e+22
3.21880486588112e+22
3.21880493792396e+22
3.21880501077152e+22
3.21880508442452e+22
3.21880515888418e+22
3.21880523415495e+22
3.21880531023524e+22
3.21880538712723e+22
3.21880546483309e+22
3.21880554335256e+22
3.21880562268878e+22
3.21880570284192e+22
3.21880578381257e+22
3.21880586560206e+22
3.21880594821173e+22
3.21880603164345e+22
3.2188061158985e+22
3.21880620097816e+22
3.21880628688521e+22
3.21880637362253e+22
3.21880646118868e+22
3.21880654958456e+22
3.21880663881159e+22
3.21880672887335e+22
3.21880681977124e+22
3.21880691150891e+22
3.21880700407853e+22
3.21880709748588e+22
3.21880719173457e+22
3.21880728682855e+22
3.21880738276789e+22
3.21880747955552e+22
3.21880757719345e+22
3.21880767568507e+22
3.21880777503256e+22
3.2188078752382e+22
3.21880797630636e+22
3.21880807824241e+22
3.21880818104625e+22
3.21880828471919e+22
3.21880838926546e+22
3.21880849468865e+22
3.21880860098957e+22
3.21880870817149e+22
3.21880881623777e+22
3.21880892519328e+22
3.21880903504289e+22
3.21880914579065e+22
3.21880925743621e+22
3.21880936998256e+22
3.21880948343282e+22
3.21880959779142e+22
3.21880971306449e+22
3.21880982925194e+22
3.21880994635709e+22
3.21881006438688e+22
3.21881018334156e+22
3.21881030322316e+22
3.21881042403529e+22
3.21881054578191e+22
3.21881066845899e+22
3.21881079206751e+22
3.21881091660344e+22
3.21881104206721e+22
3.21881116844948e+22
3.21881129573713e+22
3.21881142394178e+22
3.21881155298467e+22
3.21881168308066e+22
3.21881181306522e+22
3.21881194319607e+22
3.21881207492418e+22
3.21881220756264e+22
3.21881234101923e+22
3.2188124746356e+22
3.21881260844319e+22
3.21881274220912e+22
3.21881287578886e+22
3.21881301032786e+22
3.2188131469423e+22
3.21881327924836e+22
3.2188134102608e+22
3.21881354600082e+22
3.21881367453491e+22
3.21881379930674e+22
3.21881392753412e+22
3.2188140459394e+22
3.2188141597599e+22
3.21881427213231e+22
3.2188143738159e+22
3.21881446841538e+22
3.21881455932108e+22
3.21881463780435e+22
3.21881470755887e+22
3.21881477345222e+22
3.21881482865281e+22
3.21881487366166e+22
3.21881491004646e+22
3.21881493816522e+22
3.21881495761911e+22
3.21881497255643e+22
3.21881498203552e+22
3.21881498963616e+22
3.21881499080707e+22
3.21881498756712e+22
3.21881498042981e+22
3.21881497698664e+22
3.21881497946675e+22
3.21881498801977e+22
3.21881499902319e+22
3.21881501046165e+22
3.21881502049719e+22
3.21881502898226e+22
3.21881503593694e+22
3.21881504171002e+22
3.21881504646554e+22
3.21881505151128e+22
3.21881505721352e+22
3.21881506247705e+22
3.21881506712821e+22
3.2188150713906e+22
3.21881507521143e+22
3.21881507878109e+22
3.21881508200536e+22
3.21881508513463e+22
3.21881508802726e+22
3.21881509082576e+22
3.21881509338255e+22
3.21881509719843e+22
3.21881510106166e+22
3.21881510490454e+22
3.21881510848431e+22
3.21881511206889e+22
3.21881511539997e+22
3.21881511875656e+22
3.21881512186174e+22
3.21881512500766e+22
3.21881512790255e+22
3.21881513084948e+22
3.21881513354246e+22
3.21881513629836e+22
3.21881513879514e+22
3.21881514136507e+22
3.21881514366982e+22
3.2188151464263e+22
3.21881514962829e+22
3.21881515290917e+22
3.21881515592089e+22
3.21881515902101e+22
3.21881516184811e+22
3.21881516477573e+22
3.21881516742537e+22
3.21881517018752e+22
3.21881517266755e+22
3.21881517527238e+22
3.21881517759434e+22
3.21881518005134e+22
3.21881518221733e+22
3.21881518452819e+22
3.21881518654212e+22
3.218815188713e+22
3.21881519058201e+22
3.21881519261883e+22
3.2188151943488e+22
3.21881519625927e+22
3.21881519786054e+22
3.21881519965594e+22
3.21881520120022e+22
3.21881520360638e+22
3.21881520562195e+22
3.21881520793394e+22
3.21881520983221e+22
3.21881521203927e+22
3.21881521382628e+22
3.21881521593421e+22
3.2188152176164e+22
3.21881521963228e+22
3.21881522121609e+22
3.21881522314635e+22
3.21881522463748e+22
3.21881522648645e+22
3.21881522788849e+22
3.21881522965988e+22
3.21881523097723e+22
3.21881523267908e+22
3.21881523393711e+22
3.21881523561429e+22
3.21881523683035e+22
3.21881523845201e+22
3.21881523959758e+22
3.21881524115819e+22
3.21881524223436e+22
3.21881524377747e+22
3.21881524487684e+22
3.21881524641385e+22
3.21881524744529e+22
3.2188152489988e+22
3.21881525008246e+22
3.21881525164368e+22
3.21881525280247e+22
3.2188152545526e+22
3.21881525614279e+22
3.21881525906048e+22
)
;

boundaryField
{
    electrode
    {
        type            zeroGradient;
    }
    ground
    {
        type            zeroGradient;
    }
    otherfaces
    {
        type            empty;
    }
}


// ************************************************************************* //
