/*--------------------------------*- C++ -*----------------------------------*\
| =========                 |                                                 |
| \\      /  F ield         | foam-extend: Open Source CFD                    |
|  \\    /   O peration     | Version:     4.0                                |
|   \\  /    A nd           | Web:         http://www.foam-extend.org         |
|    \\/     M anipulation  |                                                 |
\*---------------------------------------------------------------------------*/
FoamFile
{
    version     2.0;
    format      ascii;
    class       volScalarField;
    location    "1e-05";
    object      Arm;
}
// * * * * * * * * * * * * * * * * * * * * * * * * * * * * * * * * * * * * * //

dimensions      [0 0 0 1 0 0 0];

internalField   nonuniform List<scalar> 
300
(
3.57409689549393e+15
3.5759691880811e+15
3.57791599834004e+15
3.57922237239801e+15
3.58003872807771e+15
3.58041737105046e+15
3.5804024950879e+15
3.58002555618578e+15
3.57931221793882e+15
3.57828445765944e+15
3.57695806067218e+15
3.57534711213138e+15
3.57346366650521e+15
3.57131832705217e+15
3.56892055134601e+15
3.56627887709158e+15
3.56339814596343e+15
3.56028693474594e+15
3.55695358077715e+15
3.55340456734017e+15
3.54964609588507e+15
3.54568408804283e+15
3.54152423376035e+15
3.53717194124644e+15
3.53261664485581e+15
3.5278759773919e+15
3.522953672582e+15
3.51785177837714e+15
3.51258383724167e+15
3.50715470594718e+15
3.50155073345728e+15
3.49578324884701e+15
3.48987031057926e+15
3.48381733225344e+15
3.47762940014801e+15
3.47131130503197e+15
3.46486324779916e+15
3.45829173033055e+15
3.45160381146043e+15
3.44480303521958e+15
3.43789290963466e+15
3.43087870305948e+15
3.42376429934376e+15
3.4165533899775e+15
3.4092494750067e+15
3.40185581297026e+15
3.39437335537955e+15
3.38680352666812e+15
3.37913860165216e+15
3.37137712734548e+15
3.36350658953482e+15
3.35553938798508e+15
3.34747022972737e+15
3.33931675365563e+15
3.33108713659232e+15
3.32279769710099e+15
3.31445176715919e+15
3.30605226296363e+15
3.29760175213146e+15
3.28910066743355e+15
3.28055330928988e+15
3.27196178080388e+15
3.26332271472511e+15
3.25461823744463e+15
3.24585232634914e+15
3.23705045711642e+15
3.2282147796183e+15
3.21934713365702e+15
3.21044910509332e+15
3.2015220486043e+15
3.1925651087004e+15
3.18357116322959e+15
3.17453868339368e+15
3.16547504248526e+15
3.15636678415054e+15
3.14721494465491e+15
3.1380258293493e+15
3.12879539153487e+15
3.11954343092694e+15
3.11023966611599e+15
3.10091844857212e+15
3.09158196998169e+15
3.08222717172482e+15
3.07285626042607e+15
3.06345451201584e+15
3.05402962357255e+15
3.04459326353431e+15
3.03514575024182e+15
3.02567524990237e+15
3.01618943632796e+15
3.006682234258e+15
2.99710892378955e+15
2.98752440765125e+15
2.97793044884094e+15
2.96832708029187e+15
2.95871432757659e+15
2.94909197240282e+15
2.93945955751888e+15
2.92980619816102e+15
2.92013182237406e+15
2.9104426660123e+15
2.90073994182421e+15
2.89099210993298e+15
2.88122815918765e+15
2.87143896194103e+15
2.86161523175021e+15
2.85177185064909e+15
2.84188936016035e+15
2.83197810091642e+15
2.82204351884884e+15
2.81208376037805e+15
2.80209652698921e+15
2.79207410445333e+15
2.7820142672818e+15
2.77191475798169e+15
2.7617579585674e+15
2.75152508989742e+15
2.7412407899945e+15
2.7309059678394e+15
2.72051252155357e+15
2.71003420049934e+15
2.69948377281136e+15
2.68883244432254e+15
2.67809051768872e+15
2.66726938849078e+15
2.65636682679535e+15
2.64535489201574e+15
2.63425084283188e+15
2.62304393991931e+15
2.6117320888728e+15
2.60029970711886e+15
2.58874289385935e+15
2.57705660344588e+15
2.56521477479893e+15
2.55318110132476e+15
2.54097426999356e+15
2.52859817040769e+15
2.51602784372191e+15
2.50324448387296e+15
2.49025708488998e+15
2.47704971828469e+15
2.46360569364626e+15
2.44989290324963e+15
2.43587926659786e+15
2.42154025923847e+15
2.40689549183586e+15
2.39193017633482e+15
2.37662791864316e+15
2.36095817176795e+15
2.34487223658035e+15
2.32838230674343e+15
2.31146363336776e+15
2.29405418509755e+15
2.27615258702941e+15
2.25774054822555e+15
2.2387684306491e+15
2.21919307076082e+15
2.1990137700637e+15
2.17821136562917e+15
2.15674098180364e+15
2.13456703911415e+15
2.11167434195947e+15
2.08802481481802e+15
2.06363081825272e+15
2.03847931924521e+15
2.01251602880912e+15
1.98576164446326e+15
1.95826064043206e+15
1.9300420527362e+15
1.90114788296617e+15
1.87164658461272e+15
1.84157171033306e+15
1.81101569072529e+15
1.78014990040454e+15
1.74916817468185e+15
1.71824044088824e+15
1.68754590926915e+15
1.65728362628797e+15
1.62769209884678e+15
1.59892709305725e+15
1.57114287240686e+15
1.54448634286089e+15
1.51903910212054e+15
1.49491559463881e+15
1.47211576016046e+15
1.45054991910012e+15
1.43025740307729e+15
1.41118787172693e+15
1.39325563592542e+15
1.37638023904385e+15
1.36046843610369e+15
1.34557284568637e+15
1.3321923545974e+15
1.32542821707033e+15
1.35144349722871e+15
1.41749150858531e+15
1.49780423285916e+15
1.56522214699148e+15
1.62946629760504e+15
1.70608027836067e+15
1.79714121191117e+15
1.89566586763228e+15
1.98215396957043e+15
2.00953939210124e+15
1.9778052791226e+15
1.91006428372211e+15
1.83339120409334e+15
1.76738013455764e+15
1.71811707288206e+15
1.68474389405725e+15
1.66310154523056e+15
1.65013830065991e+15
1.64195292415545e+15
1.63824285052529e+15
1.63649787135129e+15
1.63495587534022e+15
1.63441854252768e+15
1.63420060754107e+15
1.63381729294973e+15
1.63300009382413e+15
1.63154258565554e+15
1.6286385573281e+15
1.62444907367106e+15
1.61928342011085e+15
1.61320384758654e+15
1.60636351566899e+15
1.5988109765874e+15
1.59058352719774e+15
1.58174039202387e+15
1.57235093284822e+15
1.5624645995092e+15
1.55214768395728e+15
1.54147128835217e+15
1.53048891928211e+15
1.51925588599313e+15
1.50784176102956e+15
1.49628076277804e+15
1.48463825240966e+15
1.47294584964346e+15
1.46125152254834e+15
1.44958926562374e+15
1.43798285354002e+15
1.42647588220509e+15
1.41508074416036e+15
1.40382702433608e+15
1.39275043344994e+15
1.38185462067333e+15
1.37116172992451e+15
1.36068622247131e+15
1.35042988644428e+15
1.34040750138282e+15
1.33060836667555e+15
1.32101922032925e+15
1.31167059556489e+15
1.30257069982368e+15
1.29372627052288e+15
1.28514006109092e+15
1.27679816961313e+15
1.26870848515052e+15
1.26086081573205e+15
1.25325498402612e+15
1.24586850966787e+15
1.23868376929284e+15
1.23168390957489e+15
1.22488941350127e+15
1.21829449571979e+15
1.21188918879803e+15
1.20566792398209e+15
1.19961766840406e+15
1.19374165358336e+15
1.18802929237452e+15
1.18248219700592e+15
1.17708255173298e+15
1.171832377716e+15
1.16671790921079e+15
1.16173608158112e+15
1.15688373404866e+15
1.15215949609103e+15
1.14756401697716e+15
1.14308973411674e+15
1.13873424070032e+15
1.13445605439923e+15
1.13011156796633e+15
1.125604420449e+15
1.12112563362165e+15
1.11673155875073e+15
1.11243079825342e+15
1.10822784854604e+15
1.10411436006615e+15
1.09968663428593e+15
1.09485186216004e+15
1.09012471922041e+15
1.0855173597049e+15
1.08028065220512e+15
1.07472275396387e+15
1.06911203091939e+15
1.06240802997625e+15
1.05512941647235e+15
1.04668889577951e+15
1.03634995119038e+15
)
;

boundaryField
{
    electrode
    {
        type            zeroGradient;
    }
    ground
    {
        type            zeroGradient;
    }
    otherfaces
    {
        type            empty;
    }
}


// ************************************************************************* //
