/*--------------------------------*- C++ -*----------------------------------*\
| =========                 |                                                 |
| \\      /  F ield         | foam-extend: Open Source CFD                    |
|  \\    /   O peration     | Version:     4.0                                |
|   \\  /    A nd           | Web:         http://www.foam-extend.org         |
|    \\/     M anipulation  |                                                 |
\*---------------------------------------------------------------------------*/
FoamFile
{
    version     2.0;
    format      ascii;
    class       volScalarField;
    location    "1e-05";
    object      Arp1;
}
// * * * * * * * * * * * * * * * * * * * * * * * * * * * * * * * * * * * * * //

dimensions      [0 0 0 1 0 0 0];

internalField   nonuniform List<scalar> 
300
(
6.92833873049688e+16
6.93258651098348e+16
6.92983572834141e+16
6.92921174373287e+16
6.92809844122416e+16
6.92652954045186e+16
6.92468336818037e+16
6.92248695100655e+16
6.91995053993946e+16
6.91707586046287e+16
6.91386100799684e+16
6.91030611169732e+16
6.9064108561488e+16
6.90217489728338e+16
6.89759791634626e+16
6.89267956603771e+16
6.8874194853523e+16
6.88181729880928e+16
6.87587261568521e+16
6.86958503052727e+16
6.86295412316371e+16
6.85597945888126e+16
6.84866058856539e+16
6.84099704881502e+16
6.83298836213354e+16
6.82463403710943e+16
6.81593356853057e+16
6.80688643762103e+16
6.79749211222738e+16
6.78775004698288e+16
6.7776596835241e+16
6.76722045074632e+16
6.75643176496511e+16
6.74529303016313e+16
6.7338036382627e+16
6.72196296930653e+16
6.7097703917447e+16
6.69722526271202e+16
6.68432692823072e+16
6.67107472352453e+16
6.65746797331445e+16
6.64350599204073e+16
6.62918808420343e+16
6.61451354466343e+16
6.59948165889947e+16
6.5840917033569e+16
6.56834294577639e+16
6.55223464545859e+16
6.53576605363929e+16
6.51893641383544e+16
6.50174496211796e+16
6.48419092751811e+16
6.46627353236933e+16
6.44799199262647e+16
6.42934551824983e+16
6.41033331358808e+16
6.39095457771296e+16
6.37120850479753e+16
6.35109428453687e+16
6.33061110246521e+16
6.30975814038024e+16
6.28853457675337e+16
6.26693958706572e+16
6.24497234424365e+16
6.22263201907553e+16
6.19991778055982e+16
6.17682879635221e+16
6.15336423318581e+16
6.12952325723281e+16
6.10530503455131e+16
6.08070873151885e+16
6.05573351519802e+16
6.03037855379049e+16
6.00464301707177e+16
5.97852607675887e+16
5.9520269069791e+16
5.92514468469077e+16
5.897878590077e+16
5.87022780698111e+16
5.84219152336036e+16
5.81376893166994e+16
5.78495922928927e+16
5.75576161898227e+16
5.72617530927469e+16
5.69619951488458e+16
5.66583345717194e+16
5.63507636451445e+16
5.60392747273862e+16
5.57238602555517e+16
5.54045127493017e+16
5.5081224815133e+16
5.47539891505893e+16
5.4422798548106e+16
5.40876458988561e+16
5.37485241971756e+16
5.3405426544079e+16
5.30583461512722e+16
5.27072763452394e+16
5.23522105707352e+16
5.19931423946925e+16
5.16300655102011e+16
5.12629737399881e+16
5.08918610400072e+16
5.05167215034993e+16
5.01375493643284e+16
4.9754339000476e+16
4.93670849380469e+16
4.89757818546498e+16
4.85804245826791e+16
4.81810081128107e+16
4.77775275986752e+16
4.73699783624842e+16
4.69583558932249e+16
4.65426558362876e+16
4.61228740283036e+16
4.56990065890822e+16
4.52710497442707e+16
4.48389993215451e+16
4.4402851843507e+16
4.39626072395892e+16
4.35182622947198e+16
4.30697964992684e+16
4.26172080855915e+16
4.21605722817382e+16
4.16998294077119e+16
4.12349568379861e+16
4.0765954962522e+16
4.02928179745495e+16
3.98155397504655e+16
3.93341144604107e+16
3.88485366037092e+16
3.83588010696156e+16
3.78649031688661e+16
3.73668386634731e+16
3.68646038003318e+16
3.63581953509878e+16
3.58476106587758e+16
3.53328476944895e+16
3.4813905122977e+16
3.42907823823282e+16
3.3763479777912e+16
3.32319985951095e+16
3.26963412327741e+16
3.21565113654552e+16
3.16125141299502e+16
3.10643563678943e+16
3.05120468717775e+16
2.99555967821741e+16
2.93950198426214e+16
2.88303331862622e+16
2.82615572809545e+16
2.76887179192022e+16
2.71118445348307e+16
2.65309760886926e+16
2.59461533478217e+16
2.53574365130264e+16
2.47648793245674e+16
2.41685773405763e+16
2.35685986855158e+16
2.29650918155572e+16
2.23581567263331e+16
2.17479755948428e+16
2.11347975109717e+16
2.05185805524797e+16
1.99002255565282e+16
1.92777662908945e+16
1.86630715807213e+16
1.80540021713168e+16
1.74366310785837e+16
1.68183055419293e+16
1.62002844032638e+16
1.55895076661741e+16
1.49860108893688e+16
1.43924260723819e+16
1.38104071911542e+16
1.32284389685619e+16
1.26346625171699e+16
1.20916183278428e+16
1.15674623223859e+16
1.09994604221633e+16
1.05032226974421e+16
1.00398602782149e+16
9.53179923056049e+15
9.105208128145e+15
8.70063663579513e+15
8.27933385388142e+15
7.9260723267849e+15
7.59776005026155e+15
7.2543850631173e+15
6.97851523149274e+15
6.7304439876628e+15
6.46063342533572e+15
6.23811013412463e+15
6.0559221255667e+15
5.8769405870052e+15
5.69627964706033e+15
5.55023151358245e+15
5.43092645928347e+15
5.34432414125154e+15
5.24485761990599e+15
5.18226002773105e+15
5.14572138095222e+15
5.15140105264942e+15
5.17330626049543e+15
5.19056631370487e+15
5.1794088117658e+15
5.14994930003435e+15
5.10372571619736e+15
5.05379042661871e+15
5.00294241453651e+15
4.95538992377632e+15
4.91082466243937e+15
4.87157306012248e+15
4.82489473283073e+15
4.76965677267703e+15
4.71858453098943e+15
4.67262011735736e+15
4.63021751146992e+15
4.59239240147814e+15
4.55751100975324e+15
4.52672342617501e+15
4.4983327492924e+15
4.47359500240018e+15
4.45077597216026e+15
4.43128961686573e+15
4.39997486478281e+15
4.3689006163804e+15
4.33870659223457e+15
4.31176094260856e+15
4.28531528311373e+15
4.26190290127515e+15
4.23866751121429e+15
4.21830687360387e+15
4.19784600201767e+15
4.18014707444604e+15
4.16210980033362e+15
4.14675945197884e+15
4.13086211359892e+15
4.11760644251914e+15
4.10362152541492e+15
4.09225653750038e+15
4.07631868728056e+15
4.05582634802267e+15
4.03443337074885e+15
4.01559038435269e+15
3.99568614405432e+15
3.97833116399137e+15
3.95976776013742e+15
3.94376650942562e+15
3.92642050371255e+15
3.91166144098891e+15
3.89543074294029e+15
3.88181827632616e+15
3.86661439971034e+15
3.85407152826354e+15
3.83982395502133e+15
3.8282869009276e+15
3.81493560218675e+15
3.80435037503596e+15
3.79184451945496e+15
3.78216475456515e+15
3.77046031508851e+15
3.76164556608078e+15
3.75070425021455e+15
3.74206833930139e+15
3.72461364163681e+15
3.71087471430716e+15
3.69398718373077e+15
3.68106555590447e+15
3.66488130518982e+15
3.65273352845466e+15
3.63721090434702e+15
3.62579791333073e+15
3.61089829882606e+15
3.60018339835419e+15
3.58587097514798e+15
3.57582015156083e+15
3.56206258727706e+15
3.55264518691463e+15
3.53941287422559e+15
3.53060193877335e+15
3.51786844840547e+15
3.50963921983396e+15
3.49738091194267e+15
3.48970518178454e+15
3.47788857360407e+15
3.47073941668732e+15
3.45934172669033e+15
3.45269883196978e+15
3.44170058988585e+15
3.43554650448442e+15
3.42490831008317e+15
3.41920568729646e+15
3.40891152342155e+15
3.40363674689022e+15
3.39363885272963e+15
3.38875801986649e+15
3.3785376023052e+15
3.37107717634765e+15
3.35223802655353e+15
)
;

boundaryField
{
    electrode
    {
        type            driftDiffusionPositiveIonDensity;
        seec            0;
        fieldName       Arp1;
        value           uniform 6.90994774957149e+16;
    }
    ground
    {
        type            driftDiffusionPositiveIonDensity;
        seec            0;
        fieldName       Arp1;
        value           uniform 3.35223802655353e+15;
    }
    otherfaces
    {
        type            empty;
    }
}


// ************************************************************************* //
