/*--------------------------------*- C++ -*----------------------------------*\
| =========                 |                                                 |
| \\      /  F ield         | foam-extend: Open Source CFD                    |
|  \\    /   O peration     | Version:     4.0                                |
|   \\  /    A nd           | Web:         http://www.foam-extend.org         |
|    \\/     M anipulation  |                                                 |
\*---------------------------------------------------------------------------*/
FoamFile
{
    version     2.0;
    format      ascii;
    class       volVectorField;
    location    "1e-05";
    object      E;
}
// * * * * * * * * * * * * * * * * * * * * * * * * * * * * * * * * * * * * * //

dimensions      [0 0 0 1 0 0 0];

internalField   nonuniform List<vector> 
300
(
(5.47512369608594 -0 -0)
(11.3518728458994 -0 -0)
(19.9336408546191 -0 -0)
(27.9128169203283 -0 -0)
(35.8490195986875 -0 -0)
(43.8537643948638 -0 -0)
(51.8517707021054 -0 -0)
(59.8643178736912 -0 -0)
(67.892389243874 -0 -0)
(75.9362030589024 -0 -0)
(83.9979257441487 -0 -0)
(92.0790875422193 -0 -0)
(100.18129791567 -0 -0)
(108.306204250894 -0 -0)
(116.455448563592 -0 -0)
(124.630687657613 -0 -0)
(132.833590572864 -0 -0)
(141.0658389725 -0 -0)
(149.329128383559 -0 -0)
(157.625168863137 -0 -0)
(165.955685860199 -0 -0)
(174.322421102326 -0 -0)
(182.727133436752 -0 -0)
(191.1715997463 -0 -0)
(199.657615898577 -0 -0)
(208.186997641131 -0 -0)
(216.761581638138 -0 -0)
(225.383226419576 -0 -0)
(234.053813447094 -0 -0)
(242.775248154861 -0 -0)
(251.549461048632 -0 -0)
(260.378408842246 -0 -0)
(269.264075607205 -0 -0)
(278.208473983328 -0 -0)
(287.213646415982 -0 -0)
(296.281666413465 -0 -0)
(305.414639907606 -0 -0)
(314.614706611807 -0 -0)
(323.8840414033 -0 -0)
(333.224855871039 -0 -0)
(342.639399740427 -0 -0)
(352.129962505369 -0 -0)
(361.698875084339 -0 -0)
(371.348511440866 -0 -0)
(381.081290398747 -0 -0)
(390.899677489606 -0 -0)
(400.806186802357 -0 -0)
(410.803382965048 -0 -0)
(420.893883262872 -0 -0)
(431.08035966263 -0 -0)
(441.365541148421 -0 -0)
(451.752215964484 -0 -0)
(462.243234064426 -0 -0)
(472.841509596748 -0 -0)
(483.550023551485 -0 -0)
(494.371826488441 -0 -0)
(505.310041384926 -0 -0)
(516.367866594587 -0 -0)
(527.548578987853 -0 -0)
(538.855537178581 -0 -0)
(550.292184944899 -0 -0)
(561.86205470282 -0 -0)
(573.568771344909 -0 -0)
(585.41605599405 -0 -0)
(597.407730139211 -0 -0)
(609.547719902851 -0 -0)
(621.84006045664 -0 -0)
(634.288900710916 -0 -0)
(646.898508223419 -0 -0)
(659.673274360012 -0 -0)
(672.617719621327 -0 -0)
(685.7364994007 -0 -0)
(699.034409865142 -0 -0)
(712.516394231333 -0 -0)
(726.187549335362 -0 -0)
(740.053132558607 -0 -0)
(754.118569082223 -0 -0)
(768.389459535128 -0 -0)
(782.871588123145 -0 -0)
(797.570931061589 -0 -0)
(812.493665530801 -0 -0)
(827.646179182934 -0 -0)
(843.035080086263 -0 -0)
(858.667207250058 -0 -0)
(874.549641759289 -0 -0)
(890.68971854243 -0 -0)
(907.095038790817 -0 -0)
(923.773483137248 -0 -0)
(940.733225589051 -0 -0)
(957.98274827456 -0 -0)
(975.530857094774 -0 -0)
(993.386698304262 -0 -0)
(1011.55977617627 -0 -0)
(1030.05997161436 -0 -0)
(1048.89756212236 -0 -0)
(1068.08324284596 -0 -0)
(1087.62814911857 -0 -0)
(1107.54388036154 -0 -0)
(1127.84252557241 -0 -0)
(1148.53669057069 -0 -0)
(1169.63952692788 -0 -0)
(1191.164762976 -0 -0)
(1213.1267369071 -0 -0)
(1235.54043217736 -0 -0)
(1258.4215152976 -0 -0)
(1281.78637646843 -0 -0)
(1305.65217301958 -0 -0)
(1330.03687605589 -0 -0)
(1354.95932049742 -0 -0)
(1380.43925886039 -0 -0)
(1406.49741918199 -0 -0)
(1433.15556767487 -0 -0)
(1460.43657536063 -0 -0)
(1488.36448869303 -0 -0)
(1516.96460997679 -0 -0)
(1546.26359256224 -0 -0)
(1576.28951987387 -0 -0)
(1607.07194315505 -0 -0)
(1638.64206112025 -0 -0)
(1671.03317713929 -0 -0)
(1704.28038750744 -0 -0)
(1738.41889591457 -0 -0)
(1773.48675377012 -0 -0)
(1809.53412774764 -0 -0)
(1846.61701096119 -0 -0)
(1884.78643353439 -0 -0)
(1924.09283572575 -0 -0)
(1964.58982455839 -0 -0)
(2006.3345649484 -0 -0)
(2049.38801345056 -0 -0)
(2093.81525401966 -0 -0)
(2139.68585528347 -0 -0)
(2187.07426450108 -0 -0)
(2236.06024392736 -0 -0)
(2286.72935489752 -0 -0)
(2339.17349575248 -0 -0)
(2393.4915007582 -0 -0)
(2449.78980825399 -0 -0)
(2508.18320729096 -0 -0)
(2568.79567384853 -0 -0)
(2631.7613091425 -0 -0)
(2697.22539496561 -0 -0)
(2765.34558303842 -0 -0)
(2836.29323860227 -0 -0)
(2910.25496166913 -0 -0)
(2987.43431400234 -0 -0)
(3068.053783262 -0 -0)
(3152.35702586959 -0 -0)
(3240.61142744299 -0 -0)
(3333.11104988052 -0 -0)
(3430.17999853045 -0 -0)
(3532.17635168443 -0 -0)
(3639.49661426228 -0 -0)
(3752.58106204323 -0 -0)
(3871.91963189323 -0 -0)
(3998.05938748095 -0 -0)
(4131.61224550353 -0 -0)
(4273.26572706777 -0 -0)
(4423.79304727753 -0 -0)
(4584.06864986738 -0 -0)
(4755.08265171719 -0 -0)
(4937.96055861995 -0 -0)
(5133.9929589991 -0 -0)
(5344.65047125231 -0 -0)
(5571.67322951724 -0 -0)
(5817.17632173095 -0 -0)
(6085.50327217144 -0 -0)
(6382.7805594601 -0 -0)
(6712.74414227525 -0 -0)
(7078.00466131644 -0 -0)
(7483.08524930798 -0 -0)
(7934.9640197855 -0 -0)
(8442.73704145827 -0 -0)
(9016.79633445404 -0 -0)
(9668.49291619505 -0 -0)
(10406.8124925352 -0 -0)
(11237.0567922693 -0 -0)
(12174.9045466508 -0 -0)
(13240.7388491674 -0 -0)
(14435.9491079186 -0 -0)
(15771.2089720003 -0 -0)
(17270.4938686329 -0 -0)
(18931.8010365619 -0 -0)
(20759.5566946363 -0 -0)
(22768.9953180508 -0 -0)
(24949.9164699099 -0 -0)
(27297.4119380942 -0 -0)
(29812.2362367987 -0 -0)
(32471.0475614867 -0 -0)
(35257.6489653089 -0 -0)
(38164.7126491153 -0 -0)
(41159.7993995313 -0 -0)
(44215.5382627849 -0 -0)
(47323.1751275905 -0 -0)
(50464.405131514 -0 -0)
(53612.0188471317 -0 -0)
(56750.4802063738 -0 -0)
(59877.7108242804 -0 -0)
(62992.3401572318 -0 -0)
(66093.2211293507 -0 -0)
(69175.3718438634 -0 -0)
(72240.5759159983 -0 -0)
(75313.615948508 -0 -0)
(78409.4258435025 -0 -0)
(81522.596178532 -0 -0)
(84641.8985435855 -0 -0)
(87752.1618828869 -0 -0)
(90841.6257521049 -0 -0)
(93903.2505431188 -0 -0)
(96935.0277765478 -0 -0)
(99937.3721592512 -0 -0)
(102912.054669797 -0 -0)
(105861.525072858 -0 -0)
(108785.119739487 -0 -0)
(111678.001319504 -0 -0)
(114538.835729329 -0 -0)
(117370.414559747 -0 -0)
(120175.3512411 -0 -0)
(122956.093428186 -0 -0)
(125714.904773483 -0 -0)
(128453.910869139 -0 -0)
(131175.068948898 -0 -0)
(133880.202336873 -0 -0)
(136570.992628848 -0 -0)
(139249.025838629 -0 -0)
(141911.73994435 -0 -0)
(144555.641406429 -0 -0)
(147181.069163621 -0 -0)
(149789.269377166 -0 -0)
(152381.373495886 -0 -0)
(154958.448043568 -0 -0)
(157521.462068585 -0 -0)
(160071.336732545 -0 -0)
(162608.909515277 -0 -0)
(165134.983788327 -0 -0)
(167650.291043994 -0 -0)
(170155.540040028 -0 -0)
(172651.376536312 -0 -0)
(175138.432652776 -0 -0)
(177617.285413406 -0 -0)
(180088.505130922 -0 -0)
(182551.502992922 -0 -0)
(185003.526476344 -0 -0)
(187442.930407644 -0 -0)
(189870.212166943 -0 -0)
(192285.820668254 -0 -0)
(194690.204561543 -0 -0)
(197083.768080957 -0 -0)
(199466.919314667 -0 -0)
(201840.02521224 -0 -0)
(204203.460172457 -0 -0)
(206557.560316507 -0 -0)
(208902.671180442 -0 -0)
(211239.102176853 -0 -0)
(213567.175544924 -0 -0)
(215887.179599525 -0 -0)
(218199.417140779 -0 -0)
(220504.158195006 -0 -0)
(222801.689762424 -0 -0)
(225092.26632676 -0 -0)
(227376.160736334 -0 -0)
(229653.614393009 -0 -0)
(231924.887894366 -0 -0)
(234190.211114018 -0 -0)
(236449.638037739 -0 -0)
(238701.20341977 -0 -0)
(240943.368009033 -0 -0)
(243176.303271817 -0 -0)
(245400.255115069 -0 -0)
(247615.43541817 -0 -0)
(249822.077308825 -0 -0)
(252020.380104852 -0 -0)
(254210.565249885 -0 -0)
(256392.820399688 -0 -0)
(258567.355884688 -0 -0)
(260734.34865154 -0 -0)
(262893.998799061 -0 -0)
(265046.473497524 -0 -0)
(267191.963613876 -0 -0)
(269330.627399535 -0 -0)
(271462.64759732 -0 -0)
(273588.174508044 -0 -0)
(275707.383397715 -0 -0)
(277820.417396369 -0 -0)
(279927.443340501 -0 -0)
(282028.594313311 -0 -0)
(284124.028950807 -0 -0)
(286213.873561544 -0 -0)
(288298.280654303 -0 -0)
(290377.370503037 -0 -0)
(292451.290515765 -0 -0)
(294520.149064474 -0 -0)
(296584.082127004 -0 -0)
(298643.193395675 -0 -0)
(300697.611611465 -0 -0)
(302747.425779517 -0 -0)
(304792.754873734 -0 -0)
(306833.529183602 -0 -0)
(308868.978078011 -0 -0)
(310896.496060662 -0 -0)
)
;

boundaryField
{
    electrode
    {
        type            calculated;
        value           uniform (4.12833736390895 -0 -0);
    }
    ground
    {
        type            calculated;
        value           uniform (311907.410348975 -0 -0);
    }
    otherfaces
    {
        type            empty;
    }
}


// ************************************************************************* //
