/*--------------------------------*- C++ -*----------------------------------*\
| =========                 |                                                 |
| \\      /  F ield         | foam-extend: Open Source CFD                    |
|  \\    /   O peration     | Version:     4.0                                |
|   \\  /    A nd           | Web:         http://www.foam-extend.org         |
|    \\/     M anipulation  |                                                 |
\*---------------------------------------------------------------------------*/
FoamFile
{
    version     2.0;
    format      ascii;
    class       volScalarField;
    location    "1e-05";
    object      electron;
}
// * * * * * * * * * * * * * * * * * * * * * * * * * * * * * * * * * * * * * //

dimensions      [0 0 0 1 0 0 0];

internalField   nonuniform List<scalar> 
300
(
6.92946435500863e+16
6.92926468456648e+16
6.92876178010323e+16
6.92791641059484e+16
6.92673493852281e+16
6.9252148735729e+16
6.92335561347058e+16
6.92115711779323e+16
6.91861908086525e+16
6.91574125015623e+16
6.912523359001e+16
6.90896512009939e+16
6.90506623252892e+16
6.90082637962714e+16
6.89624522922387e+16
6.89132243383564e+16
6.88605763069923e+16
6.88045044188002e+16
6.87450047437858e+16
6.86820732024382e+16
6.86157055669607e+16
6.85458974625732e+16
6.8472644368896e+16
6.83959416214176e+16
6.83157844130346e+16
6.82321677956734e+16
6.81450866819893e+16
6.80545358471396e+16
6.79605099306358e+16
6.78630034382695e+16
6.77620107441128e+16
6.76575260925916e+16
6.75495436006302e+16
6.7438057259869e+16
6.73230609389498e+16
6.72045483858761e+16
6.70825132304382e+16
6.69569489867016e+16
6.68278490555696e+16
6.66952067274032e+16
6.65590151847059e+16
6.64192675048797e+16
6.62759566630265e+16
6.61290755348208e+16
6.59786168994417e+16
6.5824573442551e+16
6.56669377593305e+16
6.5505702357581e+16
6.53408596608598e+16
6.51724020116778e+16
6.50003216747441e+16
6.48246108402505e+16
6.4645261627207e+16
6.44622660868186e+16
6.42756162059016e+16
6.40853039103363e+16
6.3891321068558e+16
6.36936594950834e+16
6.34923109540684e+16
6.32872671628928e+16
6.30785197957708e+16
6.28660604873931e+16
6.26498808365825e+16
6.24299724099683e+16
6.22063267456853e+16
6.19789353570742e+16
6.17477897363965e+16
6.15128813585599e+16
6.12742016848445e+16
6.10317421666236e+16
6.07854942490887e+16
6.0535449374963e+16
6.02815989882002e+16
6.00239345376737e+16
5.97624474808437e+16
5.9497129287398e+16
5.92279714428652e+16
5.89549654521986e+16
5.86781028433137e+16
5.83973751705817e+16
5.81127740182842e+16
5.78242910040048e+16
5.75319177819556e+16
5.72356460462415e+16
5.69354675340482e+16
5.6631374028747e+16
5.63233573629109e+16
5.60114094212329e+16
5.56955221433355e+16
5.53756875264682e+16
5.50518976280803e+16
5.47241445682596e+16
5.43924205320213e+16
5.40567177714427e+16
5.37170286076277e+16
5.33733454324879e+16
5.30256607103288e+16
5.26739669792202e+16
5.23182568521459e+16
5.19585230179007e+16
5.1594758241727e+16
5.12269553656735e+16
5.08551073086415e+16
5.04792070661018e+16
5.00992477094654e+16
4.97152223850744e+16
4.93271243127795e+16
4.893494678408e+16
4.85386831597939e+16
4.81383268672223e+16
4.77338713967626e+16
4.73253102978908e+16
4.69126371745229e+16
4.64958456799049e+16
4.60749295107036e+16
4.56498823990922e+16
4.52206981041626e+16
4.47873704090996e+16
4.43498931160722e+16
4.3908260002354e+16
4.34624647825466e+16
4.30125012615409e+16
4.25583633764109e+16
4.21000440299657e+16
4.16375337286143e+16
4.11708211268943e+16
4.06998942667114e+16
4.02247410050261e+16
3.97453490586344e+16
3.92617059935081e+16
3.87737991951414e+16
3.82816158312349e+16
3.77851428098891e+16
3.72843667337175e+16
3.67792738496949e+16
3.62698499943794e+16
3.57560805340768e+16
3.52379502994529e+16
3.47154435140582e+16
3.41885437161841e+16
3.36572336734124e+16
3.31214952891584e+16
3.25813095004537e+16
3.20366561661598e+16
3.14875139447464e+16
3.09338601606883e+16
3.03756706585775e+16
2.98129196438214e+16
2.92455795092052e+16
2.86736206457998e+16
2.80970112384554e+16
2.75157170430133e+16
2.69297011488573e+16
2.63389237196146e+16
2.57433417251026e+16
2.51429086458872e+16
2.45375741851916e+16
2.39272839473957e+16
2.33119791474796e+16
2.2691596307237e+16
2.20660669323555e+16
2.14353173232699e+16
2.07992677070702e+16
2.01578315157659e+16
1.9510908386592e+16
1.88583702990759e+16
1.81999731139294e+16
1.75352343342383e+16
1.68635422389278e+16
1.61843767293423e+16
1.54973325401517e+16
1.48020198762962e+16
1.40979960884827e+16
1.33847867989092e+16
1.26619892933195e+16
1.19294946386318e+16
1.11878205569466e+16
1.04380656913899e+16
9.68168808513547e+15
8.92105386188932e+15
8.15973404485688e+15
7.4020336494751e+15
6.65326705466438e+15
5.91992761819729e+15
5.20909261523209e+15
4.52823571189321e+15
3.88495234148107e+15
3.28633776894602e+15
2.73858639067211e+15
2.24649731969143e+15
1.81293352293915e+15
1.43870472331028e+15
1.12260124802944e+15
861463719061217
650580947257923
484005429042330
355201202997296
257714642340965
185281443099136
132127303199105
91954688386085.6
62368045447151.7
41573238338954.2
26714206353627
16387131867777.3
9755406018604.52
5853748182737.54
3703723414685.53
2546712233242.17
1917203477378.59
1565187476939.37
1362907346009.64
1244717354853
1175668515643.69
1136299264771.34
1115205406843.3
1105294552038.89
1101971898317.34
1102099269143.21
1104048313297.09
1106494849723.44
1108499324283.59
1109446186340.34
1109073771620.69
1107094709670.23
1103378270996.29
1097876929127.44
1090604400890.23
1081616259512.66
1070998182548.78
1058857001533.86
1045313902209.49
1030499079182.9
1014547519288.85
997595642705.517
979778677051.526
961228251093.752
942070992485.585
922420955905.039
902378722326.706
882046442397.462
861527133749.659
840916579832.376
820303377270.541
799767699315.701
779381040338.638
759206476652.459
739299047868.407
719706212056.136
700468339675.88
681619235267.082
663186719897.742
645193346512.218
627656770247.304
610589955305.075
594003570051.7
577901749056.27
562281774006.338
547143245025.335
532484815865.187
518300833636.016
504583971842.818
491325351213.958
478515033399.47
466142547941.153
454197097669.773
442667747492.236
431543285578.927
420812147332.292
410462565664.823
400482187514.559
390858425546.172
381568534111.84
372587839071.997
363903202642.568
355505581190.083
347387176996.724
339540917557.143
331960346562.273
324639672615.239
317573821817.574
310758536671.77
304189791819.427
297863461534.141
291760510512.713
285848588916.634
280118279317.831
274583958291.024
269262646486.071
264172653066.666
259283257187.164
254574260541.976
250097110492.966
245883054370.542
241952139834.73
238395345897.894
235347021448.481
233082349466.953
232110817569.997
233270015746.937
)
;

boundaryField
{
    electrode
    {
        type            driftDiffusionElectronDensity;
        seec            0.05;
        Edepend         1;
        field_emission  0;
        field_enhancement_factor 55;
        work_function   5;
        value           uniform 6.92946435500864e+16;
    }
    ground
    {
        type            driftDiffusionElectronDensity;
        seec            0.05;
        Edepend         1;
        field_emission  0;
        field_enhancement_factor 55;
        work_function   5;
        value           uniform 235522252925.678;
    }
    otherfaces
    {
        type            empty;
    }
}


// ************************************************************************* //
