/*--------------------------------*- C++ -*----------------------------------*\
| =========                 |                                                 |
| \\      /  F ield         | foam-extend: Open Source CFD                    |
|  \\    /   O peration     | Version:     4.0                                |
|   \\  /    A nd           | Web:         http://www.foam-extend.org         |
|    \\/     M anipulation  |                                                 |
\*---------------------------------------------------------------------------*/
FoamFile
{
    version     2.0;
    format      ascii;
    class       volVectorField;
    location    "1e-05";
    object      J_Arp1;
}
// * * * * * * * * * * * * * * * * * * * * * * * * * * * * * * * * * * * * * //

dimensions      [1 -1 -1 0 0 0 0];

internalField   nonuniform List<vector> 
300
(
(2.22207399429526e+16 -0 -0)
(7.85208139233061e+16 -0 -0)
(1.39389199134415e+17 -0 -0)
(1.93966652869922e+17 -0 -0)
(2.4920640482432e+17 -0 -0)
(3.04780766713579e+17 -0 -0)
(3.60208530447647e+17 -0 -0)
(4.15690823628852e+17 -0 -0)
(4.71197606599822e+17 -0 -0)
(5.26726846484167e+17 -0 -0)
(5.82285559431709e+17 -0 -0)
(6.37875197557425e+17 -0 -0)
(6.93498446271569e+17 -0 -0)
(7.49157979464471e+17 -0 -0)
(8.04856342560054e+17 -0 -0)
(8.60596094717598e+17 -0 -0)
(9.16379765425476e+17 -0 -0)
(9.72209856337379e+17 -0 -0)
(1.0280888422709e+18 -0 -0)
(1.0840191685027e+18 -0 -0)
(1.14000324964679e+18 -0 -0)
(1.1960434684129e+18 -0 -0)
(1.25214217398309e+18 -0 -0)
(1.30830168070248e+18 -0 -0)
(1.36452426684659e+18 -0 -0)
(1.42081217291229e+18 -0 -0)
(1.47716760063002e+18 -0 -0)
(1.53359271121871e+18 -0 -0)
(1.59008962428484e+18 -0 -0)
(1.64666041630471e+18 -0 -0)
(1.70330711927493e+18 -0 -0)
(1.76003171945785e+18 -0 -0)
(1.81683615593966e+18 -0 -0)
(1.87372231932608e+18 -0 -0)
(1.93069205043365e+18 -0 -0)
(1.98774713878935e+18 -0 -0)
(2.04488932153005e+18 -0 -0)
(2.10212028205429e+18 -0 -0)
(2.15944164845416e+18 -0 -0)
(2.21685499272512e+18 -0 -0)
(2.27436182888664e+18 -0 -0)
(2.33196361203223e+18 -0 -0)
(2.38966173718115e+18 -0 -0)
(2.44745753755366e+18 -0 -0)
(2.50535228363776e+18 -0 -0)
(2.56334718205075e+18 -0 -0)
(2.6214433740113e+18 -0 -0)
(2.67964193411756e+18 -0 -0)
(2.73794386952818e+18 -0 -0)
(2.79635011807565e+18 -0 -0)
(2.85486154773379e+18 -0 -0)
(2.91347895495873e+18 -0 -0)
(2.97220306377576e+18 -0 -0)
(3.03103452439579e+18 -0 -0)
(3.08997391220399e+18 -0 -0)
(3.14902172660209e+18 -0 -0)
(3.20817838982393e+18 -0 -0)
(3.26744424565751e+18 -0 -0)
(3.32681955856482e+18 -0 -0)
(3.3863045124019e+18 -0 -0)
(3.44589920946204e+18 -0 -0)
(3.50560366896271e+18 -0 -0)
(3.56541782669914e+18 -0 -0)
(3.625341533155e+18 -0 -0)
(3.68537455290705e+18 -0 -0)
(3.74551656357569e+18 -0 -0)
(3.80576715449202e+18 -0 -0)
(3.86612582577711e+18 -0 -0)
(3.92659198729836e+18 -0 -0)
(3.98716495773343e+18 -0 -0)
(4.04784396316589e+18 -0 -0)
(4.10862813656299e+18 -0 -0)
(4.1695165163306e+18 -0 -0)
(4.23050804546816e+18 -0 -0)
(4.29160157047131e+18 -0 -0)
(4.35279584038811e+18 -0 -0)
(4.41408950570146e+18 -0 -0)
(4.47548111721367e+18 -0 -0)
(4.53696912535747e+18 -0 -0)
(4.59855187881506e+18 -0 -0)
(4.6602276234269e+18 -0 -0)
(4.72199450142129e+18 -0 -0)
(4.78385055022767e+18 -0 -0)
(4.84579370133953e+18 -0 -0)
(4.9078217792549e+18 -0 -0)
(4.9699325004623e+18 -0 -0)
(5.03212347219587e+18 -0 -0)
(5.0943921913872e+18 -0 -0)
(5.15673604354579e+18 -0 -0)
(5.21915230146812e+18 -0 -0)
(5.28163812406043e+18 -0 -0)
(5.34419055506608e+18 -0 -0)
(5.40680652208278e+18 -0 -0)
(5.46948283475806e+18 -0 -0)
(5.53221618402678e+18 -0 -0)
(5.59500314025999e+18 -0 -0)
(5.65784015217618e+18 -0 -0)
(5.72072354524642e+18 -0 -0)
(5.78364952009699e+18 -0 -0)
(5.84661415123066e+18 -0 -0)
(5.90961338506253e+18 -0 -0)
(5.97264303841691e+18 -0 -0)
(6.03569879677911e+18 -0 -0)
(6.09877621261665e+18 -0 -0)
(6.16187070309777e+18 -0 -0)
(6.22497754845089e+18 -0 -0)
(6.28809188979767e+18 -0 -0)
(6.35120872704862e+18 -0 -0)
(6.4143229164567e+18 -0 -0)
(6.47742916806705e+18 -0 -0)
(6.54052204353213e+18 -0 -0)
(6.60359595558102e+18 -0 -0)
(6.6666451628426e+18 -0 -0)
(6.72966375575866e+18 -0 -0)
(6.79264566407524e+18 -0 -0)
(6.85558472037155e+18 -0 -0)
(6.91847459811408e+18 -0 -0)
(6.98130842591229e+18 -0 -0)
(7.04407913917464e+18 -0 -0)
(7.10678158900305e+18 -0 -0)
(7.16941029466274e+18 -0 -0)
(7.23194820664499e+18 -0 -0)
(7.29438049261689e+18 -0 -0)
(7.35674931719917e+18 -0 -0)
(7.41908620704673e+18 -0 -0)
(7.48139108955894e+18 -0 -0)
(7.54365517482727e+18 -0 -0)
(7.60586893146419e+18 -0 -0)
(7.66802245139513e+18 -0 -0)
(7.7301055411734e+18 -0 -0)
(7.7921077861242e+18 -0 -0)
(7.85401855311901e+18 -0 -0)
(7.91582698457986e+18 -0 -0)
(7.97752199001092e+18 -0 -0)
(8.0390922365698e+18 -0 -0)
(8.10052613890738e+18 -0 -0)
(8.16181184850717e+18 -0 -0)
(8.22293724258776e+18 -0 -0)
(8.28388991210804e+18 -0 -0)
(8.3446571493217e+18 -0 -0)
(8.40522593423272e+18 -0 -0)
(8.46558292078373e+18 -0 -0)
(8.5257144215944e+18 -0 -0)
(8.58560639285295e+18 -0 -0)
(8.64524441559012e+18 -0 -0)
(8.70461368293968e+18 -0 -0)
(8.7636989695392e+18 -0 -0)
(8.82248463840419e+18 -0 -0)
(8.88095456134164e+18 -0 -0)
(8.93909222272824e+18 -0 -0)
(8.99688043218074e+18 -0 -0)
(9.05430184088371e+18 -0 -0)
(9.11133784063077e+18 -0 -0)
(9.16797061398005e+18 -0 -0)
(9.22417922577308e+18 -0 -0)
(9.27994661233572e+18 -0 -0)
(9.33524732834978e+18 -0 -0)
(9.39006791076536e+18 -0 -0)
(9.44437478926364e+18 -0 -0)
(9.49816041899364e+18 -0 -0)
(9.55138645617886e+18 -0 -0)
(9.60403110701971e+18 -0 -0)
(9.65611093243941e+18 -0 -0)
(9.70744640029325e+18 -0 -0)
(9.75843588235241e+18 -0 -0)
(9.80774967111379e+18 -0 -0)
(9.85858372274051e+18 -0 -0)
(9.90668517678158e+18 -0 -0)
(9.95450938155495e+18 -0 -0)
(1.00020473843454e+19 -0 -0)
(1.00479965296033e+19 -0 -0)
(1.00945607248278e+19 -0 -0)
(1.01388656185974e+19 -0 -0)
(1.0183865207601e+19 -0 -0)
(1.0227154223321e+19 -0 -0)
(1.02695368274517e+19 -0 -0)
(1.03075691292871e+19 -0 -0)
(1.03552807324928e+19 -0 -0)
(1.03887817452903e+19 -0 -0)
(1.04242348783981e+19 -0 -0)
(1.04696260732962e+19 -0 -0)
(1.04983491274889e+19 -0 -0)
(1.05293296445763e+19 -0 -0)
(1.05710435998771e+19 -0 -0)
(1.05917315270312e+19 -0 -0)
(1.0623368906405e+19 -0 -0)
(1.06520140506223e+19 -0 -0)
(1.06755551706531e+19 -0 -0)
(1.06957077568126e+19 -0 -0)
(1.07265108029856e+19 -0 -0)
(1.07416328457739e+19 -0 -0)
(1.07651416367462e+19 -0 -0)
(1.07894409282564e+19 -0 -0)
(1.08134463482654e+19 -0 -0)
(1.08392767347211e+19 -0 -0)
(1.08684537728098e+19 -0 -0)
(1.0908168338444e+19 -0 -0)
(1.09517724391975e+19 -0 -0)
(1.10185943826706e+19 -0 -0)
(1.11016708042323e+19 -0 -0)
(1.12512418784931e+19 -0 -0)
(1.14303364887271e+19 -0 -0)
(1.16823629884972e+19 -0 -0)
(1.19543841936928e+19 -0 -0)
(1.21983550323062e+19 -0 -0)
(1.24116357259768e+19 -0 -0)
(1.25975360032642e+19 -0 -0)
(1.27230780052395e+19 -0 -0)
(1.28192134494171e+19 -0 -0)
(1.28934562476225e+19 -0 -0)
(1.29575961853674e+19 -0 -0)
(1.30120926906121e+19 -0 -0)
(1.30644622168514e+19 -0 -0)
(1.31111525731951e+19 -0 -0)
(1.31591890768347e+19 -0 -0)
(1.32046144946539e+19 -0 -0)
(1.32514564552091e+19 -0 -0)
(1.32964872589491e+19 -0 -0)
(1.3343606314309e+19 -0 -0)
(1.33889740133986e+19 -0 -0)
(1.34367299668909e+19 -0 -0)
(1.34825466307857e+19 -0 -0)
(1.35307726963839e+19 -0 -0)
(1.35767129696134e+19 -0 -0)
(1.36252426269121e+19 -0 -0)
(1.36704169795306e+19 -0 -0)
(1.37193220348044e+19 -0 -0)
(1.37640554716061e+19 -0 -0)
(1.38125624274358e+19 -0 -0)
(1.38564755995314e+19 -0 -0)
(1.39043083590251e+19 -0 -0)
(1.39471049555177e+19 -0 -0)
(1.39939998637757e+19 -0 -0)
(1.40354278629811e+19 -0 -0)
(1.40811654892451e+19 -0 -0)
(1.41210265311015e+19 -0 -0)
(1.41654417636842e+19 -0 -0)
(1.42035835913966e+19 -0 -0)
(1.42465504808527e+19 -0 -0)
(1.42828679593432e+19 -0 -0)
(1.43243293815232e+19 -0 -0)
(1.43586612121122e+19 -0 -0)
(1.43984119933194e+19 -0 -0)
(1.44310910003946e+19 -0 -0)
(1.44692091047227e+19 -0 -0)
(1.44999477259999e+19 -0 -0)
(1.45365041051891e+19 -0 -0)
(1.45653231914399e+19 -0 -0)
(1.46003531161679e+19 -0 -0)
(1.46272896072649e+19 -0 -0)
(1.46608447253506e+19 -0 -0)
(1.468595334953e+19 -0 -0)
(1.47180880786808e+19 -0 -0)
(1.47414225563822e+19 -0 -0)
(1.47722131217703e+19 -0 -0)
(1.47938512109002e+19 -0 -0)
(1.48233834971619e+19 -0 -0)
(1.48434055597599e+19 -0 -0)
(1.48717678572791e+19 -0 -0)
(1.48902571441129e+19 -0 -0)
(1.49175364784863e+19 -0 -0)
(1.49345740228784e+19 -0 -0)
(1.4960853210215e+19 -0 -0)
(1.49765213342635e+19 -0 -0)
(1.50018932032222e+19 -0 -0)
(1.50153440031707e+19 -0 -0)
(1.50415935943009e+19 -0 -0)
(1.50529868303722e+19 -0 -0)
(1.50785055889502e+19 -0 -0)
(1.50886760293862e+19 -0 -0)
(1.51135338680748e+19 -0 -0)
(1.51225442901705e+19 -0 -0)
(1.51468064742499e+19 -0 -0)
(1.51547119750879e+19 -0 -0)
(1.51784341748517e+19 -0 -0)
(1.51852831439602e+19 -0 -0)
(1.52085145685503e+19 -0 -0)
(1.52143534426059e+19 -0 -0)
(1.52371415036124e+19 -0 -0)
(1.52420132905547e+19 -0 -0)
(1.52644067394906e+19 -0 -0)
(1.52683545402972e+19 -0 -0)
(1.5290398567586e+19 -0 -0)
(1.52934653310885e+19 -0 -0)
(1.53151780261949e+19 -0 -0)
(1.53173518388906e+19 -0 -0)
(1.53387448369404e+19 -0 -0)
(1.53400494414231e+19 -0 -0)
(1.53611531172282e+19 -0 -0)
(1.53616174257432e+19 -0 -0)
(1.53824658152895e+19 -0 -0)
(1.53820205976931e+19 -0 -0)
(1.54025487462383e+19 -0 -0)
(1.54012196102965e+19 -0 -0)
(1.54214153300528e+19 -0 -0)
(1.54190763433009e+19 -0 -0)
(1.54388744357571e+19 -0 -0)
(1.54332519228008e+19 -0 -0)
(1.5456542219545e+19 -0 -0)
(1.54291108572999e+19 -0 -0)
)
;

boundaryField
{
    electrode
    {
        type            calculated;
        value           uniform (-13079363119.4049 -0 -0);
    }
    ground
    {
        type            calculated;
        value           uniform (1.54582104410889e+19 -0 -0);
    }
    otherfaces
    {
        type            empty;
    }
}


// ************************************************************************* //
