/*--------------------------------*- C++ -*----------------------------------*\
| =========                 |                                                 |
| \\      /  F ield         | foam-extend: Open Source CFD                    |
|  \\    /   O peration     | Version:     4.0                                |
|   \\  /    A nd           | Web:         http://www.foam-extend.org         |
|    \\/     M anipulation  |                                                 |
\*---------------------------------------------------------------------------*/
FoamFile
{
    version     2.0;
    format      ascii;
    class       volVectorField;
    location    "1e-05";
    object      J_electron;
}
// * * * * * * * * * * * * * * * * * * * * * * * * * * * * * * * * * * * * * //

dimensions      [1 -1 -1 0 0 0 0];

internalField   nonuniform List<vector> 
300
(
(-1.34548511415422e+19 0 0)
(-1.38118732542684e+19 0 0)
(-1.63351417067317e+19 0 0)
(-1.58207396209762e+19 0 0)
(-1.581181976925e+19 0 0)
(-1.57969036838508e+19 0 0)
(-1.57262871593851e+19 0 0)
(-1.56728576267382e+19 0 0)
(-1.56170022377397e+19 0 0)
(-1.55603906904824e+19 0 0)
(-1.5504173516203e+19 0 0)
(-1.54478231251978e+19 0 0)
(-1.53914366459669e+19 0 0)
(-1.53350205016381e+19 0 0)
(-1.52785608090953e+19 0 0)
(-1.52220583199476e+19 0 0)
(-1.51655101527803e+19 0 0)
(-1.51089135221148e+19 0 0)
(-1.50522659966184e+19 0 0)
(-1.49955650096033e+19 0 0)
(-1.49388080248517e+19 0 0)
(-1.48819925893016e+19 0 0)
(-1.48251162322896e+19 0 0)
(-1.47681765028215e+19 0 0)
(-1.47111710446964e+19 0 0)
(-1.46540974308431e+19 0 0)
(-1.45969533758383e+19 0 0)
(-1.45397365308572e+19 0 0)
(-1.44824446479544e+19 0 0)
(-1.44250754847298e+19 0 0)
(-1.43676268251785e+19 0 0)
(-1.43100965150792e+19 0 0)
(-1.42524824083093e+19 0 0)
(-1.41947824114784e+19 0 0)
(-1.41369944987993e+19 0 0)
(-1.4079116618176e+19 0 0)
(-1.40211467974315e+19 0 0)
(-1.39630831366449e+19 0 0)
(-1.39049236737677e+19 0 0)
(-1.38466666463549e+19 0 0)
(-1.37883101990284e+19 0 0)
(-1.37298525517552e+19 0 0)
(-1.36712920532782e+19 0 0)
(-1.36126269794196e+19 0 0)
(-1.35538556824917e+19 0 0)
(-1.34949766307701e+19 0 0)
(-1.3435988288805e+19 0 0)
(-1.33768891052295e+19 0 0)
(-1.33176777376814e+19 0 0)
(-1.32583526945771e+19 0 0)
(-1.31989126993485e+19 0 0)
(-1.31393564124156e+19 0 0)
(-1.3079682617818e+19 0 0)
(-1.30198900999733e+19 0 0)
(-1.29599777019821e+19 0 0)
(-1.28999443185522e+19 0 0)
(-1.28397889165554e+19 0 0)
(-1.27795104588544e+19 0 0)
(-1.27191080009974e+19 0 0)
(-1.2658580610144e+19 0 0)
(-1.25979274892018e+19 0 0)
(-1.25371477003804e+19 0 0)
(-1.24762405818262e+19 0 0)
(-1.24152053438879e+19 0 0)
(-1.23540412916598e+19 0 0)
(-1.22927478259355e+19 0 0)
(-1.22313243305653e+19 0 0)
(-1.2169770238708e+19 0 0)
(-1.21080850221802e+19 0 0)
(-1.20462682535884e+19 0 0)
(-1.19843194072342e+19 0 0)
(-1.192223813693e+19 0 0)
(-1.1860024038251e+19 0 0)
(-1.17976767672977e+19 0 0)
(-1.17351960042506e+19 0 0)
(-1.16725814657947e+19 0 0)
(-1.16098328886735e+19 0 0)
(-1.15469499762139e+19 0 0)
(-1.14839325460508e+19 0 0)
(-1.14207803811336e+19 0 0)
(-1.13574932233669e+19 0 0)
(-1.12940708862377e+19 0 0)
(-1.12305131754289e+19 0 0)
(-1.11668198698999e+19 0 0)
(-1.11029907351861e+19 0 0)
(-1.10390255522415e+19 0 0)
(-1.09749240522169e+19 0 0)
(-1.09106859322528e+19 0 0)
(-1.08463108762323e+19 0 0)
(-1.07817985275477e+19 0 0)
(-1.07171484638453e+19 0 0)
(-1.06523601533707e+19 0 0)
(-1.05874331182511e+19 0 0)
(-1.05223666391303e+19 0 0)
(-1.04571600457585e+19 0 0)
(-1.03918124517907e+19 0 0)
(-1.03263229180945e+19 0 0)
(-1.02606903561646e+19 0 0)
(-1.01949134756627e+19 0 0)
(-1.01289909059689e+19 0 0)
(-1.00629210140912e+19 0 0)
(-9.99670198268802e+18 0 0)
(-9.93033174205491e+18 0 0)
(-9.86380803791127e+18 0 0)
(-9.79712823000511e+18 0 0)
(-9.73028944621391e+18 0 0)
(-9.66328843074168e+18 0 0)
(-9.59612157778985e+18 0 0)
(-9.52878486314182e+18 0 0)
(-9.46127377551537e+18 0 0)
(-9.39358315328936e+18 0 0)
(-9.32570769677982e+18 0 0)
(-9.25764202482945e+18 0 0)
(-9.18937831891796e+18 0 0)
(-9.12090447144813e+18 0 0)
(-9.0522175204098e+18 0 0)
(-8.98333391652022e+18 0 0)
(-8.91421249054127e+18 0 0)
(-8.84469844265717e+18 0 0)
(-8.77495354134469e+18 0 0)
(-8.70567950046986e+18 0 0)
(-8.63565451595665e+18 0 0)
(-8.56047211306287e+18 0 0)
(-8.48349444421032e+18 0 0)
(-8.41004094266225e+18 0 0)
(-8.33795469250291e+18 0 0)
(-8.26564183773571e+18 0 0)
(-8.19288968919463e+18 0 0)
(-8.11961109740677e+18 0 0)
(-8.04575561568381e+18 0 0)
(-7.97128241664282e+18 0 0)
(-7.89614930472101e+18 0 0)
(-7.82031024915533e+18 0 0)
(-7.74371431838227e+18 0 0)
(-7.66630501872094e+18 0 0)
(-7.58801958319686e+18 0 0)
(-7.50878821301459e+18 0 0)
(-7.42853333170415e+18 0 0)
(-7.34716856068106e+18 0 0)
(-7.26459774993642e+18 0 0)
(-7.1807136725551e+18 0 0)
(-7.09539675416664e+18 0 0)
(-7.00851345422601e+18 0 0)
(-6.91991458167023e+18 0 0)
(-6.82943303930243e+18 0 0)
(-6.7368822018377e+18 0 0)
(-6.64205172463475e+18 0 0)
(-6.54470801362675e+18 0 0)
(-6.44458365774515e+18 0 0)
(-6.34138829197305e+18 0 0)
(-6.23477478767198e+18 0 0)
(-6.12439161616361e+18 0 0)
(-6.00976965447451e+18 0 0)
(-5.89051102990277e+18 0 0)
(-5.76594174415785e+18 0 0)
(-5.6356742566196e+18 0 0)
(-5.498687978268e+18 0 0)
(-5.35467624618997e+18 0 0)
(-5.20220177736086e+18 0 0)
(-5.04062128068284e+18 0 0)
(-4.86888317695767e+18 0 0)
(-4.6822064962268e+18 0 0)
(-4.48264083916561e+18 0 0)
(-4.23545138834204e+18 0 0)
(-3.93708591087459e+18 0 0)
(-3.23995920821649e+18 0 0)
(-2.30128521330242e+18 0 0)
(-1.99484996650533e+18 0 0)
(-1.98949205631199e+18 0 0)
(-1.72054412476704e+18 0 0)
(-1.15750449529016e+18 0 0)
(-4.29360760969232e+17 0 0)
(2.26438067375833e+17 0 0)
(7.00978022071665e+17 0 0)
(5.83684907095556e+17 0 0)
(-2.47500580797284e+17 0 0)
(-4.69500556843418e+15 0 0)
(4.77625611164058e+17 0 0)
(-1.40599294319447e+18 0 0)
(-2.25149109387605e+18 0 0)
(-1.88061519871633e+18 0 0)
(-3.71681525534661e+18 0 0)
(-4.39776573643031e+18 0 0)
(-3.83241828946779e+18 0 0)
(-3.93422237085047e+18 0 0)
(-2.85138362755239e+18 0 0)
(-9.44519383102783e+17 0 0)
(1.03230326586212e+18 0 0)
(3.9893359041708e+18 0 0)
(7.37164956501698e+18 0 0)
(1.00392290640907e+19 0 0)
(1.2401222912424e+19 0 0)
(1.41778163290509e+19 0 0)
(1.45771877397027e+19 0 0)
(1.48307441854277e+19 0 0)
(1.31118641105829e+19 0 0)
(1.07786751965303e+19 0 0)
(9.01060954875547e+18 0 0)
(6.56939877180434e+18 0 0)
(9.46868134920674e+18 0 0)
(-4.43720483431331e+18 0 0)
(2.24335787310662e+18 0 0)
(-1.1996557529804e+17 0 0)
(-2.08511603906573e+18 0 0)
(-2.01333258111389e+18 0 0)
(-1.97369446344054e+18 0 0)
(-2.11351345996411e+18 0 0)
(-2.41732349761539e+18 0 0)
(-2.69659658895621e+18 0 0)
(-2.87238729606543e+18 0 0)
(-2.95457164373821e+18 0 0)
(-2.98187857943345e+18 0 0)
(-2.97414337569146e+18 0 0)
(-2.95280779882412e+18 0 0)
(-2.91896970478054e+18 0 0)
(-2.88579498840014e+18 0 0)
(-2.84603859696869e+18 0 0)
(-2.80188647013721e+18 0 0)
(-2.75589475369825e+18 0 0)
(-2.71001473521609e+18 0 0)
(-2.66464817281036e+18 0 0)
(-2.61768590908212e+18 0 0)
(-2.57078083475835e+18 0 0)
(-2.52408168753702e+18 0 0)
(-2.47675338357543e+18 0 0)
(-2.42941682069175e+18 0 0)
(-2.38210890554074e+18 0 0)
(-2.3349705832213e+18 0 0)
(-2.28809431761552e+18 0 0)
(-2.24156846467029e+18 0 0)
(-2.19547230487626e+18 0 0)
(-2.14987807279955e+18 0 0)
(-2.10485128009524e+18 0 0)
(-2.06045001924423e+18 0 0)
(-2.01672671672003e+18 0 0)
(-1.97372189685513e+18 0 0)
(-1.93148471683558e+18 0 0)
(-1.88996368040375e+18 0 0)
(-1.84933676088028e+18 0 0)
(-1.80965704123496e+18 0 0)
(-1.77073693391946e+18 0 0)
(-1.73270245603353e+18 0 0)
(-1.69554006142561e+18 0 0)
(-1.65925880239183e+18 0 0)
(-1.62386360014588e+18 0 0)
(-1.58935143549601e+18 0 0)
(-1.55571639233072e+18 0 0)
(-1.52294937153586e+18 0 0)
(-1.49103918087138e+18 0 0)
(-1.4599723959829e+18 0 0)
(-1.42973462622702e+18 0 0)
(-1.40031033359306e+18 0 0)
(-1.37168513222315e+18 0 0)
(-1.34383643772995e+18 0 0)
(-1.31677287308442e+18 0 0)
(-1.29036702254891e+18 0 0)
(-1.26474650296866e+18 0 0)
(-1.23985859168937e+18 0 0)
(-1.2155673615399e+18 0 0)
(-1.19196133910641e+18 0 0)
(-1.16898338825145e+18 0 0)
(-1.14661891674451e+18 0 0)
(-1.12484624541697e+18 0 0)
(-1.10364741454006e+18 0 0)
(-1.08300747422815e+18 0 0)
(-1.06290545939651e+18 0 0)
(-1.04332251222159e+18 0 0)
(-1.02424315038189e+18 0 0)
(-1.00565142971916e+18 0 0)
(-9.87524054092798e+17 0 0)
(-9.69860433552664e+17 0 0)
(-9.52513780179481e+17 0 0)
(-9.35802927279017e+17 0 0)
(-9.19446447703875e+17 0 0)
(-9.03460738831567e+17 0 0)
(-8.87856598471747e+17 0 0)
(-8.72625370008426e+17 0 0)
(-8.57756874846025e+17 0 0)
(-8.43240193361022e+17 0 0)
(-8.29064009806008e+17 0 0)
(-8.15218314698966e+17 0 0)
(-8.01684932517283e+17 0 0)
(-7.88463697464311e+17 0 0)
(-7.75395709171948e+17 0 0)
(-7.6280496841311e+17 0 0)
(-7.50696995526316e+17 0 0)
(-7.38709660180369e+17 0 0)
(-7.2699093752551e+17 0 0)
(-7.1556335278713e+17 0 0)
(-7.03993250273475e+17 0 0)
(-6.9359713342277e+17 0 0)
(-6.83112016042239e+17 0 0)
(-6.72600757831926e+17 0 0)
(-6.62776976265412e+17 0 0)
(-6.53424896012442e+17 0 0)
(-6.44071435565679e+17 0 0)
(-6.35867830464667e+17 0 0)
(-6.28538056602833e+17 0 0)
(-6.22113446398819e+17 0 0)
(-6.11048987639674e+17 0 0)
)
;

boundaryField
{
    electrode
    {
        type            calculated;
        value           uniform (-1.60970877299528e+19 0 0);
    }
    ground
    {
        type            calculated;
        value           uniform (-6.0838326826165e+17 0 0);
    }
    otherfaces
    {
        type            empty;
    }
}


// ************************************************************************* //
