/*--------------------------------*- C++ -*----------------------------------*\
| =========                 |                                                 |
| \\      /  F ield         | foam-extend: Open Source CFD                    |
|  \\    /   O peration     | Version:     4.0                                |
|   \\  /    A nd           | Web:         http://www.foam-extend.org         |
|    \\/     M anipulation  |                                                 |
\*---------------------------------------------------------------------------*/
FoamFile
{
    version     2.0;
    format      ascii;
    class       volScalarField;
    location    "1e-05";
    object      N_electronMean;
}
// * * * * * * * * * * * * * * * * * * * * * * * * * * * * * * * * * * * * * //

dimensions      [0 0 0 1 0 0 0];

internalField   nonuniform List<scalar> 
300
(
6.27323949416663e+16
6.27307960358173e+16
6.27265118632691e+16
6.27191018236174e+16
6.27086120799801e+16
6.26950108748329e+16
6.2678283419986e+16
6.26584224705318e+16
6.26354201916682e+16
6.2609270666809e+16
6.25799692720818e+16
6.2547512514054e+16
6.2511897971475e+16
6.24731241870981e+16
6.24311906008404e+16
6.2386097483016e+16
6.23378458769235e+16
6.22864375497733e+16
6.22318749449609e+16
6.21741611368922e+16
6.21132997910865e+16
6.20492951264133e+16
6.19821518786723e+16
6.19118752633321e+16
6.18384709483512e+16
6.17619450328975e+16
6.16823040083415e+16
6.15995547194719e+16
6.15137043328953e+16
6.14247602944352e+16
6.13327303016181e+16
6.1237622296423e+16
6.1139444426555e+16
6.10382049830662e+16
6.0933912355599e+16
6.08265749966461e+16
6.07162013863962e+16
6.06028000005835e+16
6.04863792753141e+16
6.03669475714003e+16
6.02445131451843e+16
6.01190841188517e+16
5.99906684451069e+16
5.98592738749676e+16
5.97249079300725e+16
5.9587577875767e+16
5.94472906961142e+16
5.93040530717791e+16
5.91578713632085e+16
5.90087515989568e+16
5.88566994764052e+16
5.8701720363067e+16
5.85438192783451e+16
5.8383000858752e+16
5.82192693077705e+16
5.80526283442624e+16
5.78830811584459e+16
5.77106303776696e+16
5.75352780405248e+16
5.7357025571855e+16
5.71758737604847e+16
5.69918227386635e+16
5.68048719591624e+16
5.66150201912523e+16
5.64222655393981e+16
5.62266054217615e+16
5.60280365109904e+16
5.58265546995849e+16
5.56221550840589e+16
5.54148319489712e+16
5.52045787509001e+16
5.49913881123974e+16
5.47752518348011e+16
5.45561608908747e+16
5.4334105394185e+16
5.41090746025283e+16
5.38810569340316e+16
5.3650039953008e+16
5.34160103271586e+16
5.31789538019681e+16
5.293885519942e+16
5.26956983737131e+16
5.24494661687573e+16
5.22001404053963e+16
5.19477018771777e+16
5.16921303604032e+16
5.14334045962391e+16
5.1171502250011e+16
5.0906399894926e+16
5.06380730134208e+16
5.03664959830384e+16
5.00916420893041e+16
4.9813483546098e+16
4.95319914449618e+16
4.9247135707583e+16
4.89588850761518e+16
4.86672071033406e+16
4.83720681428221e+16
4.80734333400826e+16
4.77712666307738e+16
4.74655307384431e+16
4.71561871574991e+16
4.68431961580467e+16
4.65265168044553e+16
4.6206106933183e+16
4.58819231396267e+16
4.55539207804113e+16
4.52220539669424e+16
4.4886275570693e+16
4.4546537210063e+16
4.42027892305158e+16
4.38549807009773e+16
4.35030594181787e+16
4.31469719230697e+16
4.278666350533e+16
4.2422078207639e+16
4.2053158863125e+16
4.16798471127318e+16
4.13020833788145e+16
4.09198068449015e+16
4.05329554749291e+16
4.01414660442734e+16
3.97452741623193e+16
3.934431430666e+16
3.89385198321949e+16
3.85278229575485e+16
3.81121547833321e+16
3.76914453179177e+16
3.72656234749927e+16
3.6834617077156e+16
3.63983528775526e+16
3.59567565800261e+16
3.55097528513463e+16
3.50572653306388e+16
3.45992166814915e+16
3.4135528655043e+16
3.36661220819053e+16
3.31909168318611e+16
3.27098318074091e+16
3.22227849603411e+16
3.17296932851313e+16
3.12304728057096e+16
3.07250385745412e+16
3.02133046781849e+16
2.96951842801152e+16
2.91705896502308e+16
2.86394321282893e+16
2.81016220724895e+16
2.75570688019983e+16
2.70056805806006e+16
2.64473646438959e+16
2.58820271620531e+16
2.53095732102273e+16
2.47299067815209e+16
2.41429307373856e+16
2.35485468229472e+16
2.29466557221609e+16
2.2337157172954e+16
2.17199498937035e+16
2.10949311797711e+16
2.04619950455731e+16
1.98210215545826e+16
1.91718613895981e+16
1.85143285882521e+16
1.78481989428534e+16
1.71731961369389e+16
1.64889650799528e+16
1.57950908798164e+16
1.50911699630004e+16
1.43768548073397e+16
1.36518719889575e+16
1.29160726198641e+16
1.21695337559299e+16
1.14126972561429e+16
1.06465795627673e+16
9.87301542000089e+15
9.09478889383373e+15
8.31570976587988e+15
7.54073503053353e+15
6.77599401603042e+15
6.0285901582818e+15
5.30629748392512e+15
4.61717094910606e+15
3.96897762001278e+15
3.36861934743585e+15
2.82162245255346e+15
2.33169660919665e+15
1.90052322480691e+15
1.52776387234374e+15
1.21121395244039e+15
947131544862998
730682992736603
556372525509380
418430066423680
310890453250253
228274172380986
165803976842298
119238426622750
84888041289434.9
59601033733885.5
40984928158642.2
27662264992673.7
18319222567536.2
11835092919311.8
7561925567622.32
4941605504186.81
3435353804272.37
2598917235336.46
2133342528232.47
1866884212276.63
1708493781913.07
1610669955887.41
1547969631921.96
1506248824105.97
1477289067994.23
1456069543033.51
1439359758953.63
1425025764253.36
1411693267953.23
1398555992454.03
1384994461912.67
1370581305894.69
1355094772872.46
1338415486329.29
1320491513695.51
1301334885654.4
1280999639985.38
1259567848659.84
1237139877544.16
1213827544257.17
1189748975312.22
1165025165739.68
1139776504356.58
1114120720210.49
1088171329182.42
1062036090771.78
1035816012047.68
1009605000041.8
983488620597.966
957541906520.327
931831714303.91
906419653616.337
881361993676.313
856709340645.358
832506059794.35
808790042426.308
785592298696.884
762937791350.601
740845960841.834
719331365214.698
698404853592.369
678073583466.647
658341007221.419
639207247117.376
620669639261.346
602724343907.932
585363607873.381
568574965439.229
552347363856.696
536670364053.755
521531368808.681
506916473505.365
492811124220.964
479200247281.044
466068551512.159
453400827641.472
441181332228.511
429394084845.32
418023373646.961
407053439082.804
396468072887.822
386250470595.789
376382607190.048
366849416876.186
357639885729.062
348744043832.032
340152698938.291
331857213915.531
323849681530.076
316122962922.848
308670622061.503
301486448811.217
294563734281.981
287888245844.153
281434610828.593
275186704242.969
269148257788.394
263330427047.548
257745498751.029
252389903913.799
247236452503.488
242288619239.101
237592438789.581
233156343203.227
229006337577.87
225226856679.392
221944987152.948
219422741235.799
218102115825.837
218756833431.811
)
;

boundaryField
{
    electrode
    {
        type            calculated;
        value           uniform 6.27323949417848e+16;
    }
    ground
    {
        type            calculated;
        value           uniform 220626716652.769;
    }
    otherfaces
    {
        type            empty;
    }
}


// ************************************************************************* //
