/*--------------------------------*- C++ -*----------------------------------*\
| =========                 |                                                 |
| \\      /  F ield         | foam-extend: Open Source CFD                    |
|  \\    /   O peration     | Version:     4.0                                |
|   \\  /    A nd           | Web:         http://www.foam-extend.org         |
|    \\/     M anipulation  |                                                 |
\*---------------------------------------------------------------------------*/
FoamFile
{
    version     2.0;
    format      ascii;
    class       volScalarField;
    location    "1e-05";
    object      Phi;
}
// * * * * * * * * * * * * * * * * * * * * * * * * * * * * * * * * * * * * * //

dimensions      [0 0 0 1 0 0 0];

internalField   nonuniform List<scalar> 
300
(
699.999931194377
699.999703797376
699.999174402854
699.998374887986
699.997313548393
699.995984953346
699.9943899641
699.992528168633
699.990399009575
699.98800200935
699.985336596038
699.982402147633
699.979197990202
699.975723394439
699.971977576585
699.967959697868
699.963668864075
699.959104125163
699.95426447481
699.949148849937
699.943756130219
699.938085137547
699.932134635479
699.925903328651
699.919389862162
699.912592820925
699.905510728986
699.898142048816
699.890485180558
699.882538461252
699.874300164014
699.865768497182
699.856941603425
699.847817558809
699.838394371826
699.828669982381
699.818642260732
699.808309006387
699.797667946958
699.78671673696
699.775452956566
699.763874110311
699.751977625732
699.739760851972
699.727221058303
699.714355432612
699.701161079804
699.687635020158
699.673774187606
699.659575427941
699.645035496962
699.630151058531
699.614918682564
699.599334842927
699.583395915258
699.56709817469
699.550437793492
699.533410838598
699.516013269052
699.498240933332
699.480089566573
699.46155478767
699.442632096259
699.42331686958
699.403604359193
699.383489687571
699.362967844533
699.34203368354
699.320681917819
699.298907116325
699.276703699529
699.254065935017
699.230987932902
699.207463641026
699.183486839953
699.159051137737
699.134149964449
699.108776566465
699.08292400048
699.056585127257
699.029752605076
699.002418882888
698.97457619313
698.946216544215
698.917331712647
698.887913234765
698.857952398078
698.827440232179
698.796367499202
698.764724683806
698.73250198265
698.699689293333
698.666276202763
698.632251974922
698.597605537989
698.56232547078
698.526399988466
698.489816927506
698.452563729775
698.414627425801
698.37599461707
698.336651457339
698.296583632872
698.255776341545
698.214214270727
698.171881573858
698.128761845629
698.084838095657
698.040092720559
697.99450747429
697.948063436635
697.900740979678
697.852519732123
697.803378541321
697.753295432877
697.702247567322
697.650211193373
697.59716159933
697.54307306383
697.487918795255
697.431670852021
697.374300102755
697.31577625896
697.256067652503
697.195140650443
697.132959851773
697.069488221541
697.004686996058
696.93851556657
696.870931358394
696.801889699007
696.731343674793
696.659243975321
696.585538723826
696.510173292393
696.433090100166
696.354228392676
696.273524000116
696.190909072126
696.106311786296
696.019656027203
695.930861032354
695.839841000872
695.746504660151
695.650754784965
695.552487662706
695.451592497365
695.347950743822
695.241435362307
695.131909981993
695.019227958981
694.903231315424
694.783749535536
694.660598207807
694.533577464733
694.402470232347
694.267040172234
694.12702941598
693.982155790429
693.832109879495
693.676551213772
693.515104369381
693.347353843197
693.172838172114
692.99104381178
692.801393290146
692.603232056998
692.395693072001
692.177713353034
691.94817679585
691.705846375613
691.449304445896
691.176848774294
690.886455309798
690.575729018664
690.241889115385
689.881941519162
689.492751995901
689.070281216052
688.610036072623
688.107884608857
687.558622141156
686.956518350948
686.296502072052
685.572547904639
684.778569050849
683.909220139978
682.958741588309
681.921737724191
680.79400508421
679.571227793171
678.249690907603
676.827241166535
675.30198835675
673.672362824696
671.937694681316
670.098228234888
668.154329334224
666.106380846603
663.954839990409
661.700166104646
659.343148534151
656.884127710246
654.32224080425
651.656832654013
648.887401059015
646.014039417773
643.037256933489
639.9579310343
636.777040230614
633.495595849196
630.11454875333
626.634792204543
623.057113748474
619.382450888578
615.611913660507
611.746528506623
607.787219356524
603.734838423882
599.590146461312
595.353844772317
591.026552403368
586.608840175724
582.10120558091
577.504107333801
572.817937191668
568.043324670844
563.180894431239
558.23125339327
553.194943139428
548.07249516021
542.864379936524
537.571064355638
532.192957487687
526.730470387953
521.183958568465
515.553784318353
509.84025589913
504.043692549266
498.164360388944
492.202540188372
486.158460046884
480.032439988844
473.824891615128
467.536244628334
461.166877470664
454.717189917118
448.187530499894
441.578272045054
434.889735878917
428.122270364238
421.276171867419
414.351766343137
407.349327122057
400.269159531347
393.111515419061
385.876680891379
378.564887609676
371.176403678379
363.711441625514
356.170252589927
348.553030909761
340.860011630394
333.091371716802
325.247330889459
317.328062514286
309.33391732814
301.265171313684
293.122163776687
284.905154306013
276.614468082142
268.250349152091
259.813109408484
251.30297813543
242.720254715171
234.065154409786
225.33796480507
216.538887823182
207.668199905235
198.726090248924
189.712824745266
180.628580409101
171.473613111397
162.248088182587
152.952251951638
143.586258626555
134.150345664084
124.6446566965
115.069420759982
105.424771319546
95.7109293931103
85.9280186184968
76.0762527888137
66.1557464766955
56.1667065624362
46.1092390359328
35.9835448438017
25.7897220443498
15.5279762315595
5.19845683914792
)
;

boundaryField
{
    electrode
    {
        type            fixedValue;
        value           uniform 700;
    }
    ground
    {
        type            fixedValue;
        value           uniform 0;
    }
    otherfaces
    {
        type            empty;
    }
}


// ************************************************************************* //
