/*--------------------------------*- C++ -*----------------------------------*\
| =========                 |                                                 |
| \\      /  F ield         | foam-extend: Open Source CFD                    |
|  \\    /   O peration     | Version:     4.0                                |
|   \\  /    A nd           | Web:         http://www.foam-extend.org         |
|    \\/     M anipulation  |                                                 |
\*---------------------------------------------------------------------------*/
FoamFile
{
    version     2.0;
    format      ascii;
    class       volScalarField;
    location    "1e-05";
    object      PhiMean;
}
// * * * * * * * * * * * * * * * * * * * * * * * * * * * * * * * * * * * * * //

dimensions      [0 0 0 1 0 0 0];

internalField   nonuniform List<scalar> 
300
(
699.992605539617
699.991776262677
699.990667094224
699.989304911476
699.987698675236
699.985842179116
699.983735434791
699.981377601111
699.978767790698
699.975905312481
699.97278949881
699.969419740904
699.965795469297
699.961916146615
699.957781262072
699.953390324794
699.948742858906
699.943838399817
699.938676489765
699.933256673714
699.927578496166
699.921641498002
699.915445213437
699.908989166968
699.902272869958
699.895295823359
699.888057511239
699.88055739773
699.872794925986
699.864769512927
699.856480545263
699.847927385494
699.839109366883
699.830025784316
699.82067589156
699.811058898345
699.801173967055
699.791020210549
699.780596688764
699.769902404711
699.758936302133
699.747697263314
699.736184104256
699.724395571799
699.712330340467
699.69998700957
699.687364099964
699.674460051643
699.661273220923
699.647801879897
699.634044214735
699.619998330157
699.605662242644
699.59103387975
699.576111069015
699.560891532771
699.545372879872
699.5295526011
699.513428065129
699.49699651369
699.480255057388
699.463200671279
699.445830189712
699.428140301152
699.410127554856
699.391788355223
699.37311894507
699.354115400923
699.334773627791
699.315089353617
699.295058123382
699.274675292625
699.253936028009
699.232835303275
699.211367884478
699.189528328319
699.167310982904
699.144709976789
699.121719210426
699.098332337116
699.074542772243
699.050343667853
699.025727902146
699.000688071837
698.975216479911
698.949305134838
698.922945736596
698.896129658484
698.868847934473
698.841091252379
698.812849937986
698.784113940461
698.75487283938
698.725115807436
698.694831593034
698.664008504884
698.632634393801
698.600696635423
698.56818210904
698.535077179921
698.501367679144
698.46703887826
698.432075462771
698.396461522923
698.360180513126
698.323215225437
698.28554776476
698.247159509351
698.208031087237
698.168142334002
698.127472251226
698.085998967662
698.04369969468
698.000550685615
697.956527188087
697.911603385938
697.865752356624
697.818946016111
697.771155043392
697.722348808624
697.672495299502
697.621561055576
697.569511074504
697.516308736575
697.461915700042
697.4062917882
697.349394874477
697.291180768752
697.231603070583
697.170613024645
697.108159361744
697.044188127835
696.978642492679
696.911462539263
696.842585040768
696.771943237435
696.69946654533
696.625080249498
696.548705160445
696.4702572587
696.389647278698
696.306780253467
696.221555012194
696.133863615666
696.04359074172
695.950613001729
695.854798132843
695.756004109847
695.654078130266
695.548855471282
695.44015823458
695.327793857318
695.211553427907
695.091209785886
694.966515284563
694.837199208393
694.702964878522
694.563486092961
694.418403295954
694.267318390633
694.109789803269
693.945322971963
693.773351184349
693.593224124385
693.404194239164
693.205399687362
692.995821791351
692.774252589961
692.539304588193
692.289377840492
692.022600574665
691.736786760562
691.429400932956
691.097497763185
690.737692070879
690.346253210037
689.919041572876
689.451397590584
688.938291815335
688.374399117138
687.754103110945
687.071592539235
686.32111434123
685.496952506238
684.593667986675
683.606317487988
682.53036836673
681.361899705385
680.097844525238
678.73571318444
677.273551058844
675.710223638241
674.045228790436
672.278440417209
670.409932085314
668.440183839737
666.369683375591
664.198855437334
661.928033604943
659.557577903829
657.087825542683
654.519063447018
651.851239956659
649.084295442941
646.218359256686
643.253871872356
640.191507137174
637.032106346053
633.776593442826
630.425873399244
626.98081730972
623.442220085998
619.810867792873
616.087580297879
612.273292643831
608.368912190582
604.375288093981
600.29318358787
596.123314909505
591.866321526656
587.522806153357
583.093302461657
578.578316523327
573.978292540235
569.293655595212
564.52483279245
559.672440575939
554.737047943744
549.719217523201
544.619454447073
539.43826342054
534.176094692201
528.833403740743
523.41059533761
517.908084135062
512.326234854607
506.665425718251
500.925985974053
495.108261744895
489.212550848443
483.239171130311
477.188392815205
471.060534181824
464.855995330822
458.575224378695
452.218618414671
445.786600148019
439.279541086751
432.697840852452
426.041847436436
419.31193934376
412.508442761956
405.631716762379
398.682067158145
391.659835028534
384.565307045687
377.398807499598
370.160604998203
362.851008065469
355.470268187284
348.018678993704
340.496475698678
332.903937825998
325.241284975257
317.508783286351
309.706640014974
301.835157338138
293.89460096369
285.885316779965
277.807596037674
269.661792868984
261.448184314828
253.167112574682
244.818840467552
236.403698977668
227.921937300101
219.373875865627
210.759750821203
202.079872649554
193.33446498958
184.52382893358
175.6481760807
166.707798665742
157.702896685855
148.633754094232
139.500559817393
130.30359012053
121.04302325688
111.71912825333
102.332073033284
92.8821197802433
83.3694265535009
73.7942494296404
64.1567370947136
54.4571398407275
44.6955975984777
34.8723557964148
24.9875461814531
15.0414111052362
5.03408499757395
)
;

boundaryField
{
    electrode
    {
        type            calculated;
        value           uniform 699.999999999316;
    }
    ground
    {
        type            calculated;
        value           uniform 0;
    }
    otherfaces
    {
        type            empty;
    }
}


// ************************************************************************* //
