/*--------------------------------*- C++ -*----------------------------------*\
| =========                 |                                                 |
| \\      /  F ield         | foam-extend: Open Source CFD                    |
|  \\    /   O peration     | Version:     4.0                                |
|   \\  /    A nd           | Web:         http://www.foam-extend.org         |
|    \\/     M anipulation  |                                                 |
\*---------------------------------------------------------------------------*/
FoamFile
{
    version     2.0;
    format      ascii;
    class       volScalarField;
    location    "1e-05";
    object      Sy_electron;
}
// * * * * * * * * * * * * * * * * * * * * * * * * * * * * * * * * * * * * * //

dimensions      [1 -3 -1 0 0 0 0];

internalField   nonuniform List<scalar> 
300
(
3.03021551761621e-09
3.03084779537261e-09
3.03105831367226e-09
3.03094221081351e-09
3.03082936227704e-09
3.03065397124078e-09
3.03042358738913e-09
3.03014300797555e-09
3.02981001869303e-09
3.02942474223809e-09
3.02898692372774e-09
3.02849621176445e-09
3.02795229778142e-09
3.02735484589082e-09
3.02670350723864e-09
3.02599792072158e-09
3.02523771145892e-09
3.02442249117357e-09
3.02355185805864e-09
3.02262539666687e-09
3.02164267783514e-09
3.02060325859015e-09
3.01950668205575e-09
3.01835247736284e-09
3.01714015952157e-09
3.01586922939658e-09
3.0145391735422e-09
3.01314946411138e-09
3.01169955877534e-09
3.01018890058553e-09
3.00861691784067e-09
3.00698302404999e-09
3.00528661778426e-09
3.00352708252109e-09
3.00170378654551e-09
2.99981608282649e-09
2.99786330887428e-09
2.99584478662518e-09
2.99375982229927e-09
2.99160770624841e-09
2.9893877128127e-09
2.98709910018261e-09
2.98474111022866e-09
2.9823129683461e-09
2.97981388329365e-09
2.9772430470166e-09
2.97459963447138e-09
2.97188280344827e-09
2.9690916943617e-09
2.96622543008296e-09
2.96328311571613e-09
2.96026383843905e-09
2.95716666721916e-09
2.95399065266347e-09
2.95073482672783e-09
2.94739820249926e-09
2.94397977391724e-09
2.94047851553777e-09
2.93689338226052e-09
2.93322330904931e-09
2.9294672106505e-09
2.92562398128473e-09
2.92169249432376e-09
2.91767160195494e-09
2.91356013490248e-09
2.90935690207239e-09
2.90506069011664e-09
2.90067026308635e-09
2.89618436204272e-09
2.89160170464041e-09
2.88692098469321e-09
2.88214087172703e-09
2.87726001052718e-09
2.87227702065528e-09
2.86719049590591e-09
2.86199900382799e-09
2.85670108515471e-09
2.85129525321474e-09
2.84577999337875e-09
2.84015376231656e-09
2.83441498752504e-09
2.82856206649413e-09
2.82259336603439e-09
2.81650722154907e-09
2.81030193621608e-09
2.80397578023222e-09
2.79752698993714e-09
2.79095376689309e-09
2.78425427693971e-09
2.77742664927725e-09
2.7704689753873e-09
2.76337930791363e-09
2.756155659746e-09
2.74879600261464e-09
2.74129826592069e-09
2.73366033544382e-09
2.72588005197494e-09
2.71795520987937e-09
2.70988355558272e-09
2.70166278601322e-09
2.6932905469282e-09
2.68476443115833e-09
2.67608197671974e-09
2.66724066499867e-09
2.65823791857691e-09
2.64907109913492e-09
2.63973750521245e-09
2.63023436972588e-09
2.62055885753561e-09
2.61070806273363e-09
2.60067900584586e-09
2.59046863081898e-09
2.58007380171239e-09
2.56949129958789e-09
2.55871781985837e-09
2.54774996743404e-09
2.53658424766485e-09
2.52521706851014e-09
2.51364476485112e-09
2.50186355776907e-09
2.48986940115381e-09
2.47765821921431e-09
2.46522678823828e-09
2.4535275605257e-09
2.44300037515171e-09
2.43225691146445e-09
2.42129159300483e-09
2.41009901878073e-09
2.39867365050186e-09
2.38700976941748e-09
2.37510145463323e-09
2.36294256804279e-09
2.35052674089805e-09
2.33784735995445e-09
2.32489755278365e-09
2.31167017208126e-09
2.29815777863001e-09
2.28435262303372e-09
2.27024662608794e-09
2.25583135759497e-09
2.24109801342195e-09
2.22603739080769e-09
2.21063986163147e-09
2.19489534353871e-09
2.1787932687024e-09
2.1623225499478e-09
2.14547154412973e-09
2.12822801209502e-09
2.11057907618631e-09
2.09251117220236e-09
2.07401000119586e-09
2.05506046964968e-09
2.03564663805263e-09
2.01575164168575e-09
1.99535764396039e-09
1.97444572280545e-09
1.95299584201889e-09
1.93098669589823e-09
1.90839567494741e-09
1.88519880588068e-09
1.86137045537299e-09
1.83688437121048e-09
1.81171256085608e-09
1.78583424948318e-09
1.75923771089199e-09
1.73201994477498e-09
1.70433743425737e-09
1.67598849960873e-09
1.64655168246665e-09
1.61636327126991e-09
1.5865724592511e-09
1.55575022208899e-09
1.52381742418507e-09
1.49053688986163e-09
1.45543063752696e-09
1.41775773534028e-09
1.3775082110606e-09
1.33521412500426e-09
1.2898185652665e-09
1.240560343061e-09
1.18870310227362e-09
1.13399468629189e-09
1.0742224913509e-09
1.01166397805637e-09
9.4923783244317e-10
8.88382381359394e-10
8.32085926610614e-10
7.82592759007565e-10
7.3569161054497e-10
7.05260353933106e-10
6.87447681385647e-10
6.90083026650536e-10
7.0784842912913e-10
7.54753571023061e-10
8.40160225532518e-10
9.7056569747926e-10
1.18340064057506e-09
1.52893170535517e-09
2.11968546296609e-09
3.18805518268531e-09
4.51622331953734e-09
5.71060979351974e-09
7.01232228352072e-09
7.38622208911216e-09
6.63608245349959e-09
5.35014775948391e-09
4.04545148531431e-09
3.04908311959588e-09
2.35017292664701e-09
1.91070415390187e-09
1.64203036203763e-09
1.47740621717769e-09
1.37869758178567e-09
1.32216017022254e-09
1.29488547195058e-09
1.27881896131763e-09
1.27433366579998e-09
1.27651341973957e-09
1.28196726988897e-09
1.28895742109214e-09
1.29604044204522e-09
1.3008132641201e-09
1.30355496433733e-09
1.30460066055232e-09
1.30362912448134e-09
1.30049998552295e-09
1.29516739992496e-09
1.28765570563732e-09
1.27803705072534e-09
1.26641799215521e-09
1.25292922154285e-09
1.2377177513107e-09
1.22094075574997e-09
1.20276070515492e-09
1.18334148118497e-09
1.16284534371913e-09
1.14143011925929e-09
1.11924768812223e-09
1.09643478131868e-09
1.07311176611473e-09
1.04940115064256e-09
1.02542665398888e-09
1.00130325898479e-09
9.77137439576595e-10
9.53025654911399e-10
9.29054051376919e-10
9.05298775850768e-10
8.81826426189947e-10
8.58694587874266e-10
8.35952416819941e-10
8.13641253673808e-10
7.91682836300469e-10
7.70203149725067e-10
7.49268767729904e-10
7.28895166234012e-10
7.09095080698136e-10
6.8987344663356e-10
6.71227019077573e-10
6.53155320536449e-10
6.3565674396796e-10
6.18724541072726e-10
6.02349965856796e-10
5.86522418511234e-10
5.71092204170569e-10
5.5615093227498e-10
5.41700036041404e-10
5.27727128882646e-10
5.14219451347068e-10
5.01163775939222e-10
4.88546598012294e-10
4.76353658530185e-10
4.64570532576576e-10
4.53170489862157e-10
4.42124440120421e-10
4.31417241768495e-10
4.21038459271088e-10
4.10979038252403e-10
4.01230714140287e-10
3.91785880151931e-10
3.82637639613037e-10
3.7377985712215e-10
3.65207272562736e-10
3.56914786807989e-10
3.48553929459076e-10
3.40112757101594e-10
3.31876549559746e-10
3.23833486302442e-10
3.15998906181659e-10
3.08389913823552e-10
3.01012165693438e-10
2.92541267496195e-10
2.84240278167741e-10
2.76160402062986e-10
2.6763687346178e-10
2.57821121303234e-10
2.48328116654458e-10
2.3601157917982e-10
2.22503096462712e-10
2.05284539168286e-10
1.8040170981263e-10
)
;

boundaryField
{
    electrode
    {
        type            zeroGradient;
    }
    ground
    {
        type            zeroGradient;
    }
    otherfaces
    {
        type            empty;
    }
}


// ************************************************************************* //
