/*--------------------------------*- C++ -*----------------------------------*\
| =========                 |                                                 |
| \\      /  F ield         | foam-extend: Open Source CFD                    |
|  \\    /   O peration     | Version:     4.0                                |
|   \\  /    A nd           | Web:         http://www.foam-extend.org         |
|    \\/     M anipulation  |                                                 |
\*---------------------------------------------------------------------------*/
FoamFile
{
    version     2.0;
    format      ascii;
    class       volScalarField;
    location    "1e-05";
    object      Te;
}
// * * * * * * * * * * * * * * * * * * * * * * * * * * * * * * * * * * * * * //

dimensions      [0 0 0 1 0 0 0];

internalField   nonuniform List<scalar> 
300
(
40005.3188853214
40005.5951740701
40005.7604383577
40005.8578393362
40006.0129627013
40006.2009947244
40006.4249687446
40006.6867747865
40006.9856629185
40007.3217790399
40007.6951339595
40008.1057124279
40008.5535255217
40009.0385841023
40009.5609043456
40010.120508042
40010.7174220657
40011.3516785716
40012.0233149974
40012.7323740808
40013.4789038941
40014.262957873
40015.0845948502
40015.9438790953
40016.8408803533
40017.7756738896
40018.7483405378
40019.7589667491
40020.807644648
40021.8944720889
40023.0195527183
40024.1829960399
40025.3849174831
40026.6254384764
40027.9046865225
40029.2227952806
40030.5799046523
40031.9761608678
40033.4117165831
40034.8867309755
40036.4013698456
40037.9558057299
40039.5502180081
40041.1847930223
40042.859724204
40044.5752121981
40046.3314649964
40048.1286980829
40049.9671345746
40051.8470053761
40053.7685493398
40055.7320134288
40057.7376528908
40059.7857314375
40061.8765214335
40064.0103040898
40066.1873696672
40068.4080176888
40070.6725571614
40072.9813068047
40075.3345952886
40077.7327614871
40080.1761547359
40082.6651351011
40085.2000736667
40087.7813528244
40090.4093665796
40093.0845208739
40095.8072339178
40098.577936535
40101.3970725279
40104.2650990555
40107.1824870249
40110.1497215053
40113.1673021569
40116.2357436792
40119.3555762784
40122.52734616
40125.7516160379
40129.0289656664
40132.3599924041
40135.7453117981
40139.1855581927
40142.6813853719
40146.2334672305
40149.8424984761
40153.5091953652
40157.2342964765
40161.018563519
40164.8627821817
40168.767763025
40172.7343424201
40176.7633835297
40180.8557773443
40185.0124437702
40189.2343327735
40193.5224255873
40197.8777359789
40202.3013115916
40206.7942353541
40211.357626969
40215.992644489
40220.7004859778
40225.4823912639
40230.339643801
40235.273572637
40240.2855544961
40245.3770159883
40250.549435952
40255.8043479458
40261.1433429044
40266.5680719325
40272.0802492282
40277.6816553599
40283.3741410661
40289.159630417
40295.0401223673
40301.0176975917
40307.0945361621
40313.2729068005
40319.5551033069
40325.9435575224
40332.44126345
40339.0514310288
40345.7766955931
40352.6195570742
40359.5829504962
40366.6701025333
40373.8844164177
40381.2294684853
40388.7090150056
40396.3270030849
40404.0875837381
40411.9951264045
40420.054234887
40428.2697648299
40436.6468429121
40445.1908879511
40453.9076341585
40462.8031568191
40471.88390071
40481.1567116174
40490.6288713695
40500.3081368695
40510.2027837143
40520.3216549953
40530.6742161995
40541.2706168071
40552.12176029
40563.2393824717
40574.6361423464
40586.3257220596
40598.3229476369
40610.6439159718
40623.3061603592
40636.3288101829
40649.7328234332
40663.5411936811
40677.7792605202
40692.4750616042
40707.6596237397
40723.3680428713
40739.6395502703
40756.5232769347
40774.080907392
40792.4464353767
40811.8090356394
40832.1781303265
40853.4480479174
40875.6914033689
40899.1289870062
40923.9954104368
40950.4753165811
40978.6957607386
41008.6644122163
41040.2277667461
41073.7042828688
41109.8240070236
41148.262369442
41188.8300373833
41232.8207145819
41280.4423127147
41331.7535418112
41388.8288081408
41453.3853406252
41527.5811702122
41615.7876886685
41723.2832249514
41857.8718618081
42031.8722148452
42261.0038316869
42566.6481045384
42980.713523908
43546.5536034682
44328.4688988121
45416.8118132972
46929.5278926217
49063.4424981439
52118.6882066437
56665.0888195381
62624.2575265386
70297.9157584451
82655.9023917727
99960.5554203324
123761.969623037
157018.724867239
201884.785556196
258449.195327501
323513.794518421
391859.753595029
458557.104204401
520299.849143757
575545.67221504
624032.781829679
666199.134440413
702715.599080334
734328.960723785
761892.378313047
786115.867898728
807554.66878172
826632.099193089
843722.855172254
859156.243291361
873183.475770538
886020.182843038
897849.725350983
908818.302823459
919047.10755336
928635.992490544
937667.666598885
946210.605185089
954321.414554977
962046.70496553
969424.608604072
976486.001670094
983255.569233228
989752.495310909
995992.332662289
1001985.02201513
1007733.48851545
1013240.76936736
1018509.12855774
1023536.54475592
1028318.84910649
1032849.52311738
1037119.99322937
1041119.90419368
1044837.30087904
1048258.79262757
1051369.6972976
1054154.16259614
1056595.2630415
1058674.87670011
1060374.034118
1061672.51166732
1062550.56885109
1062976.78125455
1062952.4722907
1062443.67594282
1061429.78587275
1059887.85234128
1057795.49537502
1055129.94023033
1051868.14125372
1047986.30042093
1043460.17520226
1038265.26679093
1032376.66524405
1025768.93562782
1018416.3585689
1010292.37306966
1001373.93223089
991632.321250863
981035.932522614
969559.228521377
957172.614544384
943843.949134178
929539.21882674
914222.424963441
897855.385074341
880397.398083002
861805.184826341
842032.01794873
821033.536444331
798760.040890062
775147.738986305
750132.740744315
723642.839561842
695586.654748177
665880.288113177
634414.812179004
601054.069849567
565659.599675282
528043.677793932
487970.185340539
445149.749130563
399185.224656204
349506.749684754
295291.173569887
235459.111359226
)
;

boundaryField
{
    electrode
    {
        type            electronTemperature;
        seec            0.05;
        Tse             1000;
        Edepend         1;
        TFN             1000;
        field_emission  0;
        field_enhancement_factor 55;
        work_function   5;
        value           uniform 40005.3188853214;
    }
    ground
    {
        type            electronTemperature;
        seec            0.05;
        Tse             1000;
        Edepend         1;
        TFN             1000;
        field_emission  0;
        field_enhancement_factor 55;
        work_function   5;
        value           uniform 201534.649232353;
    }
    otherfaces
    {
        type            empty;
    }
}


// ************************************************************************* //
