/*--------------------------------*- C++ -*----------------------------------*\
| =========                 |                                                 |
| \\      /  F ield         | foam-extend: Open Source CFD                    |
|  \\    /   O peration     | Version:     4.0                                |
|   \\  /    A nd           | Web:         http://www.foam-extend.org         |
|    \\/     M anipulation  |                                                 |
\*---------------------------------------------------------------------------*/
FoamFile
{
    version     2.0;
    format      ascii;
    class       volScalarField;
    location    "1e-05";
    object      TeMean;
}
// * * * * * * * * * * * * * * * * * * * * * * * * * * * * * * * * * * * * * //

dimensions      [0 0 0 1 0 0 0];

internalField   nonuniform List<scalar> 
300
(
37004.1605556137
37004.4508907104
37004.59453444
37004.6291593925
37004.6970438187
37004.7759257443
37004.8688100255
37004.9781553242
37005.1037168603
37005.2459687207
37005.4052764893
37005.5819755708
37005.7764062045
37005.9888881552
37006.2197336836
37006.4692467037
37006.7377217516
37007.025447098
37007.3327044647
37007.6597689139
37008.006910638
37008.3743936353
37008.7624772526
37009.1714157424
37009.6014580187
37010.0528547249
37010.5258535803
37011.0206977178
37011.5376312036
37012.0768916388
37012.6387093611
37013.2233231658
37013.8309787808
37014.4619163542
37015.1163740784
37015.7945856743
37016.4967855578
37017.2232145643
37017.9741144167
37018.7497248982
37019.5502851703
37020.3760410877
37021.2272400415
37022.1041292352
37023.0069580004
37023.935977701
37024.8914415172
37025.8736039285
37026.8827187436
37027.919039126
37028.9828178199
37030.0743166469
37031.1938119147
37032.3415827971
37033.517914523
37034.7231023042
37035.9574413417
37037.2212282196
37038.5147693265
37039.8383769647
37041.1923684913
37042.5770722733
37043.9928123446
37045.4399151197
37046.9187321499
37048.4296307996
37049.9729825715
37051.5491645697
37053.1585620865
37054.8015719652
37056.478597659
37058.1900438805
37059.9363334659
37061.7179052306
37063.5352005575
37065.3886652837
37067.2787678443
37069.2060044101
37071.1708746816
37073.1738860853
37075.2155760964
37077.2964996194
37079.4172153909
37081.5782911875
37083.7803105344
37086.0238876642
37088.3096651079
37090.638296494
37093.0104486227
37095.4268145302
37097.8880999627
37100.3950314027
37102.9483876567
37105.5489614439
37108.1975627051
37110.89504135
37113.6422695047
37116.4401491723
37119.2896097692
37122.1916146997
37125.1471720738
37128.1573068837
37131.2230788654
37134.3456081436
37137.5260517093
37140.7656042292
37144.0655015635
37147.4270274556
37150.8515227991
37154.3403783062
37157.8950389627
37161.5170050755
37165.2078311836
37168.9691480895
37172.8026462262
37176.7100768424
37180.6932618091
37184.7541145826
37188.8946446641
37193.1169227682
37197.4231074048
37201.815463245
37206.2963523567
37210.8682508801
37215.5337632391
37220.2956099877
37225.1566301726
37230.1198152427
37235.1883152778
37240.3654239563
37245.654601639
37251.0595023868
37256.5839831889
37262.2320826741
37268.0080572896
37273.9164490031
37279.9620750169
37286.1500282489
37292.485710489
37298.9748662272
37305.623612356
37312.4384647266
37319.4263732154
37326.594757511
37333.9515802083
37341.5054207674
37349.2655206257
37357.2418568113
37365.4451773931
37373.8871186083
37382.5803725502
37391.5387513656
37400.7773366238
37410.3127123051
37420.1630710058
37430.3485074576
37440.8912784872
37451.8163359838
37463.1519182841
37474.9311342975
37487.1994998707
37500.0136860034
37513.4300088101
37527.5066360617
37542.3220062668
37557.9804567418
37574.5656410695
37592.1300264988
37610.7667491138
37630.6170970257
37651.8146791043
37674.4824237888
37698.7517935964
37724.6794791637
37752.2701769967
37781.7163688262
37813.3101204099
37847.2556680367
37883.973252338
37924.3552338646
37969.7230730751
38022.1732235531
38085.1665042047
38163.8435500304
38265.9469391931
38403.1389645251
38592.2563304514
38858.0451583346
39237.4750908191
39785.7811776159
40586.8592311197
41772.0638753856
43551.7805793207
46322.650468314
50493.5559834856
56364.0422026045
64873.7288787688
76537.8186186706
92290.5130509366
112524.202220418
137289.832681941
166506.37010799
200139.989987616
237605.644316603
279064.474667784
324741.997754535
374296.69859374
426338.176994752
478585.34479604
528692.057369861
574963.128814954
616570.332069898
653377.694776012
685691.471705443
714017.011966311
738876.541917597
760802.933411485
780298.331053851
797771.398156709
813550.902048949
827895.117631509
841021.557573839
853122.257297382
864352.956901711
874843.655451751
884700.814152117
894011.722414827
902848.271668723
911269.489878534
919323.788348285
927050.65316072
934482.017548978
941643.368577325
948554.603681089
955230.802769612
961682.885973452
967918.103287282
973940.512251045
979751.58949456
985349.32779699
990729.149846766
995885.352278737
1000810.40928796
1005495.32876146
1009929.66247197
1014101.62586837
1017998.09862235
1021604.90200503
1024907.00306221
1027888.38457146
1030532.58117997
1032822.61059836
1034740.71602977
1036268.628615
1037387.27464205
1038077.48343492
1038313.07247995
1038087.61287948
1037377.0681645
1036159.70749644
1034414.73798308
1032121.42621142
1029258.87164089
1025805.91247457
1021741.05049412
1017042.70984276
1011688.7846539
1005656.67944927
998923.847280162
991467.263252936
983263.446511894
974288.658468123
964517.015527958
953922.38067437
942478.769054421
930157.588310769
916928.777931226
902760.549642474
887619.271989272
871469.19872412
854272.275237122
835987.999812017
816575.466286444
795991.315529403
774182.274864336
751091.08792434
726656.253374702
700802.994699376
673451.411021661
644516.483768098
613889.727334133
581444.839291482
547045.541931885
510507.302359576
471605.018444031
430057.310388851
385470.841992662
337297.622325679
284740.012826852
226747.980020855
)
;

boundaryField
{
    electrode
    {
        type            calculated;
        value           uniform 37004.1605556149;
    }
    ground
    {
        type            calculated;
        value           uniform 193862.173077942;
    }
    otherfaces
    {
        type            empty;
    }
}


// ************************************************************************* //
