/*--------------------------------*- C++ -*----------------------------------*\
| =========                 |                                                 |
| \\      /  F ield         | foam-extend: Open Source CFD                    |
|  \\    /   O peration     | Version:     4.0                                |
|   \\  /    A nd           | Web:         http://www.foam-extend.org         |
|    \\/     M anipulation  |                                                 |
\*---------------------------------------------------------------------------*/
FoamFile
{
    version     2.0;
    format      ascii;
    class       volScalarField;
    location    "8.3e-06";
    object      Arp1;
}
// * * * * * * * * * * * * * * * * * * * * * * * * * * * * * * * * * * * * * //

dimensions      [0 0 0 1 0 0 0];

internalField   nonuniform List<scalar> 
300
(
6.68476182268403e+16
6.68902500906819e+16
6.68633146650081e+16
6.68576549307717e+16
6.68472489810948e+16
6.68325577817122e+16
6.68152648723434e+16
6.67946684207573e+16
6.67708698020024e+16
6.67438839798248e+16
6.67136925456952e+16
6.66802963413857e+16
6.6643691844391e+16
6.66038752542036e+16
6.65608429547739e+16
6.65145910115334e+16
6.64651153134749e+16
6.64124115646811e+16
6.6356475277512e+16
6.62973017775148e+16
6.62348862036187e+16
6.61692235099274e+16
6.61003084671914e+16
6.60281356640424e+16
6.59526995089697e+16
6.58739942322185e+16
6.57920138870776e+16
6.57067523523507e+16
6.561820333436e+16
6.55263603687822e+16
6.54312168229971e+16
6.53327658988167e+16
6.52310006343688e+16
6.51259139068016e+16
6.50174984352734e+16
6.49057467830973e+16
6.47906513609109e+16
6.46722044298019e+16
6.45503981037597e+16
6.44252243531909e+16
6.42966750083222e+16
6.41647417619368e+16
6.40294161732401e+16
6.38906896714389e+16
6.37485535588866e+16
6.36029990151567e+16
6.3454017100985e+16
6.33015987616108e+16
6.31457348312074e+16
6.29864160370948e+16
6.28236330032853e+16
6.26573762553259e+16
6.24876362245846e+16
6.23144032523408e+16
6.21376675945271e+16
6.19574194265452e+16
6.17736488475882e+16
6.15863458854542e+16
6.13955005018145e+16
6.12011025964825e+16
6.10031420127802e+16
6.08016085427818e+16
6.05964919318939e+16
6.03877818843959e+16
6.01754680688387e+16
5.99595401228379e+16
5.9739987658799e+16
5.95168002694409e+16
5.92899675327645e+16
5.90594790178574e+16
5.88253242906181e+16
5.85874929188022e+16
5.83459744779515e+16
5.81007585571728e+16
5.78518347642379e+16
5.75991927317014e+16
5.73428221225478e+16
5.7082712635578e+16
5.68188540112084e+16
5.65512360374327e+16
5.6279848555123e+16
5.60046814637224e+16
5.5725724727255e+16
5.54429683795349e+16
5.5156402529858e+16
5.48660173688841e+16
5.45718031737783e+16
5.4273750313834e+16
5.39718492561281e+16
5.3666090570539e+16
5.33564649355071e+16
5.30429631437434e+16
5.27255761058176e+16
5.2404294853859e+16
5.20791105501619e+16
5.17500145064041e+16
5.14169981882797e+16
5.10800531232878e+16
5.07391708428563e+16
5.03943433274933e+16
5.00455638261138e+16
4.96928249996237e+16
4.93361131234285e+16
4.89754122819757e+16
4.86107371073816e+16
4.82421164478788e+16
4.78694865607169e+16
4.74928409604469e+16
4.71121715454996e+16
4.67274677819295e+16
4.63387192505407e+16
4.59459157381765e+16
4.5549047294751e+16
4.51481042525145e+16
4.47430772303219e+16
4.43339571358138e+16
4.39207351665538e+16
4.35034028114311e+16
4.30819518528099e+16
4.26563743684042e+16
4.22266627342249e+16
4.17928096280728e+16
4.13548080335083e+16
4.09126512449838e+16
4.04663328741993e+16
4.00158468572773e+16
3.95611874637416e+16
3.91023493074954e+16
3.86393273593381e+16
3.81721169625144e+16
3.77007138511269e+16
3.72251141718183e+16
3.67453145098631e+16
3.6261311920262e+16
3.57731039643765e+16
3.52806887538327e+16
3.4784065002681e+16
3.42832320891244e+16
3.3778190129289e+16
3.32689400648688e+16
3.27554837675144e+16
3.22378241627241e+16
3.17159653798163e+16
3.11899129248778e+16
3.06596739018145e+16
3.01252572470992e+16
2.9586674068547e+16
2.90439379493365e+16
2.84970654849346e+16
2.79460766917961e+16
2.73909956442832e+16
2.68318519014812e+16
2.62686787225855e+16
2.57015222631725e+16
2.51304221066528e+16
2.4555464086297e+16
2.39766611872059e+16
2.3394228374254e+16
2.28080189713269e+16
2.22186109311758e+16
2.16253851208953e+16
2.10298215398132e+16
2.04298872662628e+16
1.98296541895898e+16
1.9223148745863e+16
1.86188843793614e+16
1.80253011468643e+16
1.74275161596356e+16
1.68245055353963e+16
1.62224815342639e+16
1.56212118286932e+16
1.50319982720619e+16
1.444474299904e+16
1.38751458758907e+16
1.33125221056464e+16
1.27317202054728e+16
1.2175154388695e+16
1.16574648501599e+16
1.11259922970293e+16
1.06037886875047e+16
1.01372488067539e+16
9.66512261247353e+15
9.20192981978065e+15
8.80973077675202e+15
8.3928642612223e+15
8.01630899609381e+15
7.68998334917915e+15
7.35581543232957e+15
7.04267166225155e+15
6.79511258139868e+15
6.53583091974519e+15
6.2962344477281e+15
6.08637590350493e+15
5.92985890462865e+15
5.73561562402822e+15
5.58216707479172e+15
5.43732618638378e+15
5.34417484105244e+15
5.25415328113902e+15
5.17454923334977e+15
5.11442180145372e+15
5.10571097803871e+15
5.11574816759219e+15
5.14924847406333e+15
5.15293394715764e+15
5.13819438085331e+15
5.10409296610415e+15
5.05677112645892e+15
5.00662643408369e+15
4.95703435267889e+15
4.91037176156537e+15
4.867559247703e+15
4.82939399358718e+15
4.78074416672622e+15
4.72700383630103e+15
4.67760783337932e+15
4.63289150704564e+15
4.59195175187888e+15
4.55510966353835e+15
4.52147031786104e+15
4.49140916713833e+15
4.46406934082552e+15
4.4398430943669e+15
4.41793020904647e+15
4.39878403856581e+15
4.3673986547098e+15
4.33677133334782e+15
4.30743551865419e+15
4.28079540425301e+15
4.25508046740956e+15
4.23184845123704e+15
4.20922514011358e+15
4.18893875271847e+15
4.16899632577637e+15
4.15128963204338e+15
4.13370873065674e+15
4.11828847802437e+15
4.10280581928683e+15
4.08943332907115e+15
4.07582371801653e+15
4.06430189453044e+15
4.0493100075531e+15
4.02875382553218e+15
4.0078213138511e+15
3.98887082700974e+15
3.96939204798902e+15
3.95188999059901e+15
3.9337159587346e+15
3.91753398533338e+15
3.90054783261925e+15
3.88558084431338e+15
3.86968686264905e+15
3.85585151474087e+15
3.84096627177273e+15
3.82818597660342e+15
3.81423857993265e+15
3.8024456645304e+15
3.78937183821573e+15
3.7785102592053e+15
3.76625375304922e+15
3.75627495566055e+15
3.74479367868769e+15
3.73566054099812e+15
3.72491653964356e+15
3.71660057887798e+15
3.70047947011587e+15
3.68615746120699e+15
3.66990041826143e+15
3.65639798680053e+15
3.6408368026316e+15
3.62810899484458e+15
3.6132007569358e+15
3.60120707234609e+15
3.58690920233024e+15
3.57561150338623e+15
3.56188713211122e+15
3.5512509987982e+15
3.5380657397504e+15
3.52806094373553e+15
3.51538610813026e+15
3.50598530881227e+15
3.49379359440855e+15
3.48497428654197e+15
3.47324202116366e+15
3.46497599203279e+15
3.45366897452217e+15
3.44593292760991e+15
3.43502894816862e+15
3.42780302943817e+15
3.41728197182604e+15
3.41054784297924e+15
3.40037135370075e+15
3.39409282669769e+15
3.38424474366253e+15
3.37839660208127e+15
3.36882854558292e+15
3.36337956730901e+15
3.35403078706212e+15
3.3472621629113e+15
3.32910271773349e+15
)
;

boundaryField
{
    electrode
    {
        type            driftDiffusionPositiveIonDensity;
        seec            0;
        fieldName       Arp1;
        value           uniform 6.6664338155463e+16;
    }
    ground
    {
        type            driftDiffusionPositiveIonDensity;
        seec            0;
        fieldName       Arp1;
        value           uniform 3.32910271773349e+15;
    }
    otherfaces
    {
        type            empty;
    }
}


// ************************************************************************* //
