/*--------------------------------*- C++ -*----------------------------------*\
| =========                 |                                                 |
| \\      /  F ield         | foam-extend: Open Source CFD                    |
|  \\    /   O peration     | Version:     4.0                                |
|   \\  /    A nd           | Web:         http://www.foam-extend.org         |
|    \\/     M anipulation  |                                                 |
\*---------------------------------------------------------------------------*/
FoamFile
{
    version     2.0;
    format      ascii;
    class       volScalarField;
    location    "8.3e-06";
    object      electron;
}
// * * * * * * * * * * * * * * * * * * * * * * * * * * * * * * * * * * * * * //

dimensions      [0 0 0 1 0 0 0];

internalField   nonuniform List<scalar> 
300
(
6.68592902573276e+16
6.68574816057234e+16
6.68528368597688e+16
6.68449652735122e+16
6.68339286980753e+16
6.68197027148414e+16
6.68022815348569e+16
6.67816645118952e+16
6.67578484282758e+16
6.67308305373438e+16
6.67006079052997e+16
6.66671773559866e+16
6.66305355365072e+16
6.65906788969736e+16
6.65476036929124e+16
6.65013059871013e+16
6.64517816499501e+16
6.63990263605962e+16
6.63430356079925e+16
6.62838046920755e+16
6.62213287250311e+16
6.61556026326491e+16
6.60866211557719e+16
6.60143788518321e+16
6.59388700964821e+16
6.58600890853153e+16
6.5778029835685e+16
6.56926861886069e+16
6.56040518107637e+16
6.55121201966047e+16
6.54168846705303e+16
6.53183383891761e+16
6.52164743437944e+16
6.51112853627275e+16
6.50027641139701e+16
6.48909031078369e+16
6.47756946997185e+16
6.46571310929297e+16
6.45352043416611e+16
6.44099063540142e+16
6.4281228895139e+16
6.4149163590463e+16
6.4013701929008e+16
6.38748352667995e+16
6.3732554830373e+16
6.35868517203643e+16
6.34377169151931e+16
6.3285141274836e+16
6.31291155446785e+16
6.29696303594568e+16
6.28066762472865e+16
6.26402436337676e+16
6.2470322846168e+16
6.22969041176905e+16
6.21199775918139e+16
6.19395333266992e+16
6.17555612996758e+16
6.1568051411795e+16
6.13769934924372e+16
6.11823773039905e+16
6.09841925465858e+16
6.07824288628857e+16
6.05770758429217e+16
6.03681230289772e+16
6.01555599205182e+16
5.99393759791646e+16
5.97195606336865e+16
5.94961032850314e+16
5.92689933113802e+16
5.90382200732153e+16
5.88037729184091e+16
5.85656411873198e+16
5.83238142178827e+16
5.80782813507002e+16
5.78290319341255e+16
5.75760553293238e+16
5.73193409153073e+16
5.70588780939481e+16
5.67946562949449e+16
5.65266649807406e+16
5.62548936513951e+16
5.59793318493907e+16
5.56999691643619e+16
5.54167952377511e+16
5.51297997673712e+16
5.48389725118671e+16
5.45443032950725e+16
5.42457820102403e+16
5.39433986241427e+16
5.36371431810347e+16
5.33270058064481e+16
5.30129767108151e+16
5.26950461929254e+16
5.23732046432267e+16
5.20474425469058e+16
5.17177504864985e+16
5.13841191440276e+16
5.10465393040459e+16
5.07050018588122e+16
5.03594978091822e+16
5.00100182482075e+16
4.96565543505425e+16
4.92990974573982e+16
4.89376392088945e+16
4.85721711791105e+16
4.82026836751375e+16
4.78291651414649e+16
4.74516030720358e+16
4.70699848911238e+16
4.66842981482907e+16
4.62945305558323e+16
4.59006699944614e+16
4.55027045082565e+16
4.51006222962858e+16
4.4694411702772e+16
4.42840612062267e+16
4.38695594076445e+16
4.34508950177205e+16
4.30280568430247e+16
4.26010337710471e+16
4.21698147540017e+16
4.17343887912972e+16
4.12947449105505e+16
4.08508721470088e+16
4.04027595212435e+16
3.99503960149608e+16
3.94937705447494e+16
3.90328719335874e+16
3.85676888799048e+16
3.80982099239603e+16
3.7624423411295e+16
3.71463174529876e+16
3.66638798824063e+16
3.61770982081271e+16
3.56859595626584e+16
3.51904506465695e+16
3.46905576675851e+16
3.41862662741657e+16
3.36775614830505e+16
3.31644276001932e+16
3.26468481344635e+16
3.21248057034448e+16
3.15982819305978e+16
3.10672573330239e+16
3.05317111989882e+16
2.99916214543688e+16
2.94469645171047e+16
2.88977151388175e+16
2.83438462326567e+16
2.77853286865657e+16
2.72221311621013e+16
2.66542198751829e+16
2.60815583677871e+16
2.55041072501669e+16
2.49218239621709e+16
2.43346624464216e+16
2.37425729906962e+16
2.31455017169552e+16
2.2543390679605e+16
2.19361770853414e+16
2.13237938066753e+16
2.07061676905282e+16
2.00832213585316e+16
1.9454866113441e+16
1.88209973612953e+16
1.8181463990623e+16
1.75359206551005e+16
1.68837998768618e+16
1.62245338770702e+16
1.55576807644192e+16
1.48828712959674e+16
1.41997124520852e+16
1.35077612865764e+16
1.28065871859751e+16
1.20958840269517e+16
1.13758229069451e+16
1.06472568868689e+16
9.91145643319333e+15
9.1702230520539e+15
8.42638329942503e+15
7.68371064960103e+15
6.94679777433071e+15
6.22129574231358e+15
5.5136388949849e+15
4.83081738165208e+15
4.18027540818352e+15
3.56926653052153e+15
3.00433185564674e+15
2.49096640144405e+15
2.03306104348996e+15
1.63255923570346e+15
1.28944173339792e+15
1.00176099960696e+15
765815131875722
576578492367371
427926563023508
313644433703758
227515629013972
163615711530122
116372459581693
80674006641872.8
54655917815344.6
36223701224393.3
23010770578413.7
14007222237538.3
8361142552625.41
5100429952506.56
3314092472494.8
2346535696058.33
1813207771051.98
1511030296908.92
1335672518565.59
1232569832003.22
1172189465916.51
1137878526538.85
1119689525433.24
1111337560918.82
1108702148500.61
1109036031576.68
1110835135079.29
1112888593103.28
1114307873554.17
1114649360118.54
1113575450922.11
1110860498960.2
1106397743890.15
1100158145101.38
1092167804363.73
1082491400837.95
1071221150395.59
1058468483519.72
1044357636432.83
1029020612834.44
1012593200273.67
995211823180.141
977011022962.159
958121582230.999
938668343887.266
918770171890.236
898526207562.042
878028827206.999
857377000212.951
836663556025.95
815974478379.561
795387461400.221
774971601693.028
754787666478.098
734888487684.6
715319428778.849
696118885029.073
677318801953.312
658945208677.172
641018750903.985
623555379346.364
606566807345.311
590062600823.651
574045913032.869
558513235726.628
543463430602.165
528894465953.435
514800117937.021
501172587751.045
488002702494.79
475280461983.971
462995090256.223
451135381976.428
439690032561.123
428647564738.547
417996218457.138
407723993974.43
397818281462.219
388264646702.027
379037893150.86
370115878817.317
361488690909.644
353147425123.577
345084350904.4
337292291054.738
329764694698.791
322495680551.974
315480088569.009
308713592320.367
302191919749.044
295910804159.744
289847284662.874
283970088479.04
278274998633.16
272776414516.029
267491060872.919
262436661548.376
257578414702.542
252896966484.013
248448641053.556
244260045817.2
240352303172.43
236816987973.228
233788605194.302
231543345700.888
230583136368.798
231743395376.541
)
;

boundaryField
{
    electrode
    {
        type            driftDiffusionElectronDensity;
        seec            0.05;
        Edepend         1;
        field_emission  0;
        field_enhancement_factor 55;
        work_function   5;
        value           uniform 6.68592902573277e+16;
    }
    ground
    {
        type            driftDiffusionElectronDensity;
        seec            0.05;
        Edepend         1;
        field_emission  0;
        field_enhancement_factor 55;
        work_function   5;
        value           uniform 233987600694.047;
    }
    otherfaces
    {
        type            empty;
    }
}


// ************************************************************************* //
