/*--------------------------------*- C++ -*----------------------------------*\
| =========                 |                                                 |
| \\      /  F ield         | foam-extend: Open Source CFD                    |
|  \\    /   O peration     | Version:     4.0                                |
|   \\  /    A nd           | Web:         http://www.foam-extend.org         |
|    \\/     M anipulation  |                                                 |
\*---------------------------------------------------------------------------*/
FoamFile
{
    version     2.0;
    format      ascii;
    class       volVectorField;
    location    "8.3e-06";
    object      J_Arp1;
}
// * * * * * * * * * * * * * * * * * * * * * * * * * * * * * * * * * * * * * //

dimensions      [1 -1 -1 0 0 0 0];

internalField   nonuniform List<vector> 
300
(
(2.06765843509397e+16 -0 -0)
(7.38131882484727e+16 -0 -0)
(1.31531319143929e+17 -0 -0)
(1.82953426459566e+17 -0 -0)
(2.35068821322267e+17 -0 -0)
(2.8750152371843e+17 -0 -0)
(3.39798058223626e+17 -0 -0)
(3.92152728514026e+17 -0 -0)
(4.44536519141854e+17 -0 -0)
(4.96948611554138e+17 -0 -0)
(5.49396441081904e+17 -0 -0)
(6.01882161879998e+17 -0 -0)
(6.54409126192886e+17 -0 -0)
(7.0698066205646e+17 -0 -0)
(7.59599976791702e+17 -0 -0)
(8.12270289271391e+17 -0 -0)
(8.64994788306474e+17 -0 -0)
(9.17776634566038e+17 -0 -0)
(9.70618961097163e+17 -0 -0)
(1.02352487056079e+18 -0 -0)
(1.07649743429722e+18 -0 -0)
(1.12953969028611e+18 -0 -0)
(1.18265464188353e+18 -0 -0)
(1.23584525600806e+18 -0 -0)
(1.28911446172318e+18 -0 -0)
(1.34246514843409e+18 -0 -0)
(1.39590016425941e+18 -0 -0)
(1.44942231467123e+18 -0 -0)
(1.5030343602017e+18 -0 -0)
(1.55673901534416e+18 -0 -0)
(1.61053894660753e+18 -0 -0)
(1.66443677084501e+18 -0 -0)
(1.71843505337186e+18 -0 -0)
(1.77253630650631e+18 -0 -0)
(1.82674298774909e+18 -0 -0)
(1.8810574976966e+18 -0 -0)
(1.93548217884195e+18 -0 -0)
(1.99001931330314e+18 -0 -0)
(2.04467112127193e+18 -0 -0)
(2.0994397592761e+18 -0 -0)
(2.15432731810306e+18 -0 -0)
(2.20933582127636e+18 -0 -0)
(2.2644672232035e+18 -0 -0)
(2.31972340737061e+18 -0 -0)
(2.37510618435486e+18 -0 -0)
(2.43061729039645e+18 -0 -0)
(2.48625838509793e+18 -0 -0)
(2.54203105004464e+18 -0 -0)
(2.59793678692722e+18 -0 -0)
(2.65397701561843e+18 -0 -0)
(2.71015307245038e+18 -0 -0)
(2.76646620858787e+18 -0 -0)
(2.82291758817076e+18 -0 -0)
(2.87950828651975e+18 -0 -0)
(2.93623928844463e+18 -0 -0)
(2.99311148684857e+18 -0 -0)
(3.05012568039575e+18 -0 -0)
(3.1072825724557e+18 -0 -0)
(3.16458276927355e+18 -0 -0)
(3.22202677821226e+18 -0 -0)
(3.27961500628578e+18 -0 -0)
(3.3373477585026e+18 -0 -0)
(3.39522523657409e+18 -0 -0)
(3.45324753717142e+18 -0 -0)
(3.51141465044639e+18 -0 -0)
(3.56972645856911e+18 -0 -0)
(3.62818273464458e+18 -0 -0)
(3.6867831409311e+18 -0 -0)
(3.745527227772e+18 -0 -0)
(3.80441443219274e+18 -0 -0)
(3.86344407650427e+18 -0 -0)
(3.92261536727897e+18 -0 -0)
(3.98192739409647e+18 -0 -0)
(4.04137912841541e+18 -0 -0)
(4.10096942224514e+18 -0 -0)
(4.16069700747459e+18 -0 -0)
(4.22056049453135e+18 -0 -0)
(4.28055837133699e+18 -0 -0)
(4.34068900263989e+18 -0 -0)
(4.4009506289586e+18 -0 -0)
(4.46134136544481e+18 -0 -0)
(4.52185920142529e+18 -0 -0)
(4.58250199939982e+18 -0 -0)
(4.64326749419825e+18 -0 -0)
(4.70415329237838e+18 -0 -0)
(4.765156871454e+18 -0 -0)
(4.82627557906321e+18 -0 -0)
(4.887506632648e+18 -0 -0)
(4.94884711842239e+18 -0 -0)
(5.01029399092059e+18 -0 -0)
(5.07184407270741e+18 -0 -0)
(5.13349405380677e+18 -0 -0)
(5.19524049059861e+18 -0 -0)
(5.25707980346497e+18 -0 -0)
(5.31900827729675e+18 -0 -0)
(5.38102207250509e+18 -0 -0)
(5.44311723183483e+18 -0 -0)
(5.50528961888499e+18 -0 -0)
(5.56753482222365e+18 -0 -0)
(5.62984839300244e+18 -0 -0)
(5.69222660312391e+18 -0 -0)
(5.75466578515173e+18 -0 -0)
(5.81715769016986e+18 -0 -0)
(5.87968883481434e+18 -0 -0)
(5.94226387888424e+18 -0 -0)
(6.00492322648643e+18 -0 -0)
(6.06768688336959e+18 -0 -0)
(6.13055146789176e+18 -0 -0)
(6.19351011021869e+18 -0 -0)
(6.25655567278806e+18 -0 -0)
(6.31968075659543e+18 -0 -0)
(6.38287782233721e+18 -0 -0)
(6.44613922487108e+18 -0 -0)
(6.50945721740127e+18 -0 -0)
(6.57282395076871e+18 -0 -0)
(6.63623147048946e+18 -0 -0)
(6.69967171290777e+18 -0 -0)
(6.76313650102683e+18 -0 -0)
(6.82661754004874e+18 -0 -0)
(6.89010641277489e+18 -0 -0)
(6.95359457504392e+18 -0 -0)
(7.01707335028354e+18 -0 -0)
(7.08053392453298e+18 -0 -0)
(7.14396734064564e+18 -0 -0)
(7.20736449261886e+18 -0 -0)
(7.27071611918561e+18 -0 -0)
(7.33401279770708e+18 -0 -0)
(7.39724493684835e+18 -0 -0)
(7.46040276964286e+18 -0 -0)
(7.52347634580618e+18 -0 -0)
(7.58645552370552e+18 -0 -0)
(7.64932996183382e+18 -0 -0)
(7.71208910984958e+18 -0 -0)
(7.77472219922593e+18 -0 -0)
(7.83721823303035e+18 -0 -0)
(7.89956597554606e+18 -0 -0)
(7.96175394097068e+18 -0 -0)
(8.02377038177277e+18 -0 -0)
(8.08560327599684e+18 -0 -0)
(8.14724031419407e+18 -0 -0)
(8.20866888551859e+18 -0 -0)
(8.26987606273207e+18 -0 -0)
(8.33084858739428e+18 -0 -0)
(8.39157285177393e+18 -0 -0)
(8.45203488514625e+18 -0 -0)
(8.5122203286006e+18 -0 -0)
(8.57211442885367e+18 -0 -0)
(8.6317019956306e+18 -0 -0)
(8.69096741720013e+18 -0 -0)
(8.7498945989538e+18 -0 -0)
(8.80846690749803e+18 -0 -0)
(8.86666751439606e+18 -0 -0)
(8.92447801312802e+18 -0 -0)
(8.98188225672024e+18 -0 -0)
(9.03885643058953e+18 -0 -0)
(9.0953935931656e+18 -0 -0)
(9.15144458448291e+18 -0 -0)
(9.20705172358048e+18 -0 -0)
(9.26207088505891e+18 -0 -0)
(9.31670060838705e+18 -0 -0)
(9.37053823130094e+18 -0 -0)
(9.42422129170289e+18 -0 -0)
(9.47654817812924e+18 -0 -0)
(9.52958869473563e+18 -0 -0)
(9.57999622712298e+18 -0 -0)
(9.632254744494e+18 -0 -0)
(9.68267803828411e+18 -0 -0)
(9.73259274547743e+18 -0 -0)
(9.78167579847886e+18 -0 -0)
(9.83068706217253e+18 -0 -0)
(9.87782007868925e+18 -0 -0)
(9.92665200816899e+18 -0 -0)
(9.97092728801026e+18 -0 -0)
(1.00200004014967e+19 -0 -0)
(1.00625502659769e+19 -0 -0)
(1.0106465906721e+19 -0 -0)
(1.0150029048905e+19 -0 -0)
(1.01946824335712e+19 -0 -0)
(1.02304487943443e+19 -0 -0)
(1.02728414936949e+19 -0 -0)
(1.03126455270084e+19 -0 -0)
(1.03453039983129e+19 -0 -0)
(1.0380545279027e+19 -0 -0)
(1.04193801479521e+19 -0 -0)
(1.04398815982433e+19 -0 -0)
(1.04805336578522e+19 -0 -0)
(1.05006500355003e+19 -0 -0)
(1.0531020672895e+19 -0 -0)
(1.05502047049513e+19 -0 -0)
(1.05841169915242e+19 -0 -0)
(1.05943459838658e+19 -0 -0)
(1.06297927750054e+19 -0 -0)
(1.06426151940185e+19 -0 -0)
(1.06831737294429e+19 -0 -0)
(1.06932677357437e+19 -0 -0)
(1.07479235666195e+19 -0 -0)
(1.07678320387938e+19 -0 -0)
(1.08450012840553e+19 -0 -0)
(1.08944362511949e+19 -0 -0)
(1.10249288679185e+19 -0 -0)
(1.11670242543781e+19 -0 -0)
(1.13975329051328e+19 -0 -0)
(1.16520241373752e+19 -0 -0)
(1.19442487847993e+19 -0 -0)
(1.21500649377383e+19 -0 -0)
(1.23661078585583e+19 -0 -0)
(1.25333934216861e+19 -0 -0)
(1.2648872279361e+19 -0 -0)
(1.2737552408958e+19 -0 -0)
(1.28086206209916e+19 -0 -0)
(1.28692567874915e+19 -0 -0)
(1.29231073106763e+19 -0 -0)
(1.29736717861213e+19 -0 -0)
(1.30203456676058e+19 -0 -0)
(1.30674972745232e+19 -0 -0)
(1.31130733999259e+19 -0 -0)
(1.31593234683132e+19 -0 -0)
(1.32047791247304e+19 -0 -0)
(1.32513116825363e+19 -0 -0)
(1.32971736837891e+19 -0 -0)
(1.33442048084264e+19 -0 -0)
(1.33905261830896e+19 -0 -0)
(1.34378827034932e+19 -0 -0)
(1.34843685701803e+19 -0 -0)
(1.35319283544078e+19 -0 -0)
(1.35776326222202e+19 -0 -0)
(1.36255165317555e+19 -0 -0)
(1.36707062555192e+19 -0 -0)
(1.37180800151288e+19 -0 -0)
(1.37623700026103e+19 -0 -0)
(1.38089375849073e+19 -0 -0)
(1.38520023496494e+19 -0 -0)
(1.38975123865232e+19 -0 -0)
(1.39391366311172e+19 -0 -0)
(1.39834120813375e+19 -0 -0)
(1.4023469617604e+19 -0 -0)
(1.4066385438956e+19 -0 -0)
(1.41047694317006e+19 -0 -0)
(1.4146232338966e+19 -0 -0)
(1.41828278140964e+19 -0 -0)
(1.42227851840522e+19 -0 -0)
(1.42574426007274e+19 -0 -0)
(1.42956365997512e+19 -0 -0)
(1.43286846171113e+19 -0 -0)
(1.43652002547186e+19 -0 -0)
(1.43963182521595e+19 -0 -0)
(1.44312297345455e+19 -0 -0)
(1.44604200085588e+19 -0 -0)
(1.44937716799666e+19 -0 -0)
(1.4521082824123e+19 -0 -0)
(1.45529401925071e+19 -0 -0)
(1.45784406171897e+19 -0 -0)
(1.46088965745045e+19 -0 -0)
(1.46326513878966e+19 -0 -0)
(1.46617783290516e+19 -0 -0)
(1.46838572806238e+19 -0 -0)
(1.47117212365852e+19 -0 -0)
(1.47321820179475e+19 -0 -0)
(1.47588584995514e+19 -0 -0)
(1.47777570795913e+19 -0 -0)
(1.48033199057638e+19 -0 -0)
(1.4820739055578e+19 -0 -0)
(1.48452802980365e+19 -0 -0)
(1.48612944738197e+19 -0 -0)
(1.48849570931357e+19 -0 -0)
(1.48994485069589e+19 -0 -0)
(1.49225960967524e+19 -0 -0)
(1.49358378421816e+19 -0 -0)
(1.49582810777025e+19 -0 -0)
(1.4970343204286e+19 -0 -0)
(1.49921495307142e+19 -0 -0)
(1.50030861677338e+19 -0 -0)
(1.50243139488563e+19 -0 -0)
(1.50341601623242e+19 -0 -0)
(1.50548578695346e+19 -0 -0)
(1.50636539244665e+19 -0 -0)
(1.50838679091924e+19 -0 -0)
(1.50916479030133e+19 -0 -0)
(1.5111426288198e+19 -0 -0)
(1.51182336773715e+19 -0 -0)
(1.51376227032525e+19 -0 -0)
(1.51434935789344e+19 -0 -0)
(1.5162547457546e+19 -0 -0)
(1.51675216412167e+19 -0 -0)
(1.51862580391017e+19 -0 -0)
(1.51903177015211e+19 -0 -0)
(1.52087639754121e+19 -0 -0)
(1.52119328714608e+19 -0 -0)
(1.52301215403092e+19 -0 -0)
(1.52324233882096e+19 -0 -0)
(1.52503847035973e+19 -0 -0)
(1.52517528555968e+19 -0 -0)
(1.52694274329238e+19 -0 -0)
(1.5269884892382e+19 -0 -0)
(1.52872537189302e+19 -0 -0)
(1.52866700314099e+19 -0 -0)
(1.53036778532201e+19 -0 -0)
(1.53018657771279e+19 -0 -0)
(1.53182170875648e+19 -0 -0)
(1.52935144994607e+19 -0 -0)
)
;

boundaryField
{
    electrode
    {
        type            calculated;
        value           uniform (-13934406034.5513 -0 -0);
    }
    ground
    {
        type            calculated;
        value           uniform (1.53223503677349e+19 -0 -0);
    }
    otherfaces
    {
        type            empty;
    }
}


// ************************************************************************* //
