/*--------------------------------*- C++ -*----------------------------------*\
| =========                 |                                                 |
| \\      /  F ield         | foam-extend: Open Source CFD                    |
|  \\    /   O peration     | Version:     4.0                                |
|   \\  /    A nd           | Web:         http://www.foam-extend.org         |
|    \\/     M anipulation  |                                                 |
\*---------------------------------------------------------------------------*/
FoamFile
{
    version     2.0;
    format      ascii;
    class       volScalarField;
    location    "8.3e-06";
    object      Phi;
}
// * * * * * * * * * * * * * * * * * * * * * * * * * * * * * * * * * * * * * //

dimensions      [0 0 0 1 0 0 0];

internalField   nonuniform List<scalar> 
300
(
699.999928925231
699.999708461424
699.999191108839
699.998409471406
699.997371901745
699.99607300681
699.994513654003
699.99269341337
699.990611720233
699.988268084502
699.985661919894
699.982792588285
699.979659397492
699.976261597964
699.972598383664
699.968668891496
699.964472200876
699.960007333323
699.955273252002
699.950268861234
699.944993005993
699.939444471356
699.933621981941
699.927524201303
699.921149731305
699.914497111457
699.907564818221
699.900351264285
699.892854797802
699.885073701596
699.87700619233
699.868650419639
699.860004465222
699.851066341902
699.841833992637
699.832305289497
699.822478032592
699.81234994896
699.801918691409
699.791181837309
699.780136887338
699.768781264175
699.757112311141
699.745127290785
699.732823383418
699.720197685578
699.707247208444
699.693968876182
699.680359524225
699.666415897486
699.652134648496
699.637512335471
699.622545420299
699.607230266451
699.591563136796
699.575540191341
699.559157484872
699.5424109645
699.525296467104
699.507809716675
699.489946321546
699.471701771505
699.453071434791
699.434050554968
699.414634247653
699.394817497125
699.37459515277
699.353961925389
699.332912383334
699.311440948487
699.289541892055
699.267209330185
699.24443721938
699.221219351718
699.197549349847
699.173420661757
699.14882655532
699.123760112568
699.098214223717
699.072181580903
699.04565467163
699.018625771909
698.991086939062
698.963030004186
698.934446564251
698.905327973811
698.875665336303
698.845449494916
698.814671023003
698.783320214005
698.751387070863
698.718861294876
698.685732273987
698.65198907046
698.617620407908
698.582614657606
698.546959823955
698.510643529218
698.473652998075
698.435975041588
698.397596036841
698.358501900771
698.318678077315
698.278109562148
698.236780884316
698.194675859777
698.151777355196
698.108067559524
698.063528037182
698.018139693075
697.971882739516
697.924736661128
697.876680177096
697.827691200897
697.777746797356
697.726823136811
697.674895446155
697.62193795649
697.567923847127
697.512825185592
697.456612863309
697.399256526569
697.340724502367
697.280983718633
697.219999618345
697.157736066949
697.094155252446
697.029217577428
696.962881542285
696.895103618695
696.825838112388
696.755037014112
696.682649837517
696.608623442587
696.532901843033
696.455425995854
696.376133571081
696.294958699391
696.211831695013
696.126678750979
696.03942160333
695.949977160442
695.858257093057
695.764167379912
695.667607803168
695.568471386811
695.46664377031
695.362002508269
695.254416285796
695.143744036698
695.029833950946
694.912522353406
694.791632433087
694.666972807618
694.538335865348
694.405495933728
694.268207022501
694.126200634279
693.979182266605
693.826829491376
693.668785579554
693.504659459387
693.334012953945
693.156367836242
692.971173095158
692.777837887993
692.575621797958
692.36353923334
692.140507096538
691.905368993229
691.656812390706
691.393319273708
691.11303115298
690.813806264555
690.493049507161
690.147862412847
689.775328788878
689.37197105967
688.933564225094
688.455852053845
687.934297142675
687.363509436959
686.738156939597
686.052867330149
685.301484563337
684.478567362553
683.578606284586
682.595947242349
681.525906792464
680.364413508297
679.107289651707
677.751654735611
676.295415546242
674.736981299181
673.074801715798
671.308883963715
669.439360387819
667.466818928436
665.391395207278
663.213657997388
660.933938047646
658.553103904231
656.070818792769
653.486277104253
650.798658400731
648.007724218202
645.113660399595
642.117079789777
639.018890710834
635.820081379362
632.521640137781
629.124500731354
625.629521451853
622.037468141093
618.349318109947
614.566151312686
610.688960539794
606.718644620106
602.656026457619
598.501846986381
594.256782548099
589.921437528449
585.496361728157
580.982042222522
576.378919542178
571.687378581407
566.908050265545
562.041550252495
557.088468194887
552.049339516721
546.924681004931
541.714959499881
536.420629572356
531.042098787437
525.579767768568
520.033992173829
514.405125111301
508.693476237469
502.899356452176
497.023034218636
491.064782755365
485.024833312293
478.903486893513
472.701156379937
466.418262215937
460.055185002634
453.612315961502
447.090006580104
440.488621857348
433.80848675212
427.049942394146
420.213289329863
413.298846746769
406.306892456784
399.237725383652
392.091602149058
384.868802827264
377.569564223772
370.194148867443
362.742774842684
355.215688277922
347.613089523834
339.935209141941
332.182230498825
324.354369350771
316.451792653371
308.474824290655
300.423751990111
292.29890238556
284.10054674239
275.828997718412
267.484511021851
259.067386195746
250.577864198979
242.016232319354
233.382717534473
224.677595610825
215.901080237205
207.053436351656
198.134864960491
189.145620749641
180.085892592196
170.955925469358
161.755896574971
152.48604166384
143.146526810822
133.737579230921
124.259354353649
114.712071292
105.095875232069
95.4109776001191
85.6575136943235
75.8356880286365
65.9456267518985
55.9875277788469
45.9615086255844
35.867761598567
25.706396240529
15.4776004960218
5.18150985546765
)
;

boundaryField
{
    electrode
    {
        type            fixedValue;
        value           uniform 700;
    }
    ground
    {
        type            fixedValue;
        value           uniform 0;
    }
    otherfaces
    {
        type            empty;
    }
}


// ************************************************************************* //
