/*--------------------------------*- C++ -*----------------------------------*\
| =========                 |                                                 |
| \\      /  F ield         | foam-extend: Open Source CFD                    |
|  \\    /   O peration     | Version:     4.0                                |
|   \\  /    A nd           | Web:         http://www.foam-extend.org         |
|    \\/     M anipulation  |                                                 |
\*---------------------------------------------------------------------------*/
FoamFile
{
    version     2.0;
    format      ascii;
    class       volScalarField;
    location    "8.3e-06";
    object      Sy_electron;
}
// * * * * * * * * * * * * * * * * * * * * * * * * * * * * * * * * * * * * * //

dimensions      [1 -3 -1 0 0 0 0];

internalField   nonuniform List<scalar> 
300
(
3.16939905423079e-09
3.17009048745932e-09
3.17033822324153e-09
3.17024361573164e-09
3.17016137139819e-09
3.17002166747498e-09
3.16983287656609e-09
3.16959984714467e-09
3.16932027036933e-09
3.16899427301687e-09
3.16862157365939e-09
3.16820179476015e-09
3.16773460094634e-09
3.16721962692578e-09
3.16665649265703e-09
3.16604480388871e-09
3.16538415061346e-09
3.16467410745031e-09
3.16391423348187e-09
3.16310407213727e-09
3.16224315109448e-09
3.16133098216692e-09
3.16036706120222e-09
3.15935086796273e-09
3.1582818659886e-09
3.15715950255361e-09
3.1559832084765e-09
3.15475239802385e-09
3.15346646879968e-09
3.15212480159756e-09
3.15072676024877e-09
3.14927169156352e-09
3.14775892517179e-09
3.1461877733515e-09
3.1445575309036e-09
3.14286747501692e-09
3.14111686511316e-09
3.13930494271281e-09
3.13743093127598e-09
3.13549403603264e-09
3.13349344383318e-09
3.13142832299172e-09
3.12929782310226e-09
3.12710107486981e-09
3.12483718993785e-09
3.12250526069685e-09
3.12010436010067e-09
3.11763354147567e-09
3.11509183830388e-09
3.11247826404606e-09
3.10979181190186e-09
3.10703145465223e-09
3.10419614435956e-09
3.10128481221088e-09
3.09829636822295e-09
3.09522970101362e-09
3.09208367752477e-09
3.08885714277579e-09
3.08554891958142e-09
3.08215780826954e-09
3.07868258639946e-09
3.07512200844035e-09
3.07147480545252e-09
3.06773968474288e-09
3.06391532957302e-09
3.06000039881397e-09
3.05599352649485e-09
3.05189332145307e-09
3.04769836693886e-09
3.04340722018585e-09
3.03901841197859e-09
3.03453044618861e-09
3.02994179931375e-09
3.02525091998628e-09
3.02045622841257e-09
3.01555611587873e-09
3.01054894416694e-09
3.00543304494598e-09
3.00020671919884e-09
2.99486823645611e-09
2.98941583429155e-09
2.98384771746518e-09
2.97816205721695e-09
2.97235699049528e-09
2.96643061910306e-09
2.96038100890008e-09
2.95420618886918e-09
2.94790415014479e-09
2.94147284501693e-09
2.93491018593887e-09
2.9282140443766e-09
2.92138224960442e-09
2.91441258767459e-09
2.90730279996133e-09
2.90005058207386e-09
2.89265358243143e-09
2.88510939967698e-09
2.8774155801523e-09
2.8695696213719e-09
2.86156898058908e-09
2.85341105407677e-09
2.84509310308768e-09
2.83661229256454e-09
2.82796613174047e-09
2.81915273611589e-09
2.81161386714359e-09
2.80457026061534e-09
2.79737018330815e-09
2.79001006535685e-09
2.78248639716911e-09
2.7747956107005e-09
2.76693405662482e-09
2.75889799329353e-09
2.75068358053098e-09
2.74228687443578e-09
2.73370382221005e-09
2.72493025683201e-09
2.71596189147627e-09
2.70679431344731e-09
2.69742297788168e-09
2.68784320099079e-09
2.67805015297496e-09
2.66803885031859e-09
2.65780414776696e-09
2.64734072963412e-09
2.63664310057757e-09
2.62570557572446e-09
2.6145222702464e-09
2.60308708803361e-09
2.59139370970081e-09
2.57943557967518e-09
2.5672058924214e-09
2.55469757759911e-09
2.54190328413338e-09
2.52881536313937e-09
2.51542584961018e-09
2.50172644254452e-09
2.48770848361897e-09
2.47336293423895e-09
2.45868035077462e-09
2.44365085772965e-09
2.42826411883035e-09
2.41250930572033e-09
2.39637506414579e-09
2.37984947726559e-09
2.36292002603941e-09
2.34557354599305e-09
2.32779618066962e-09
2.30957333099739e-09
2.29088959924952e-09
2.27172873374009e-09
2.25207355184204e-09
2.23190589770089e-09
2.21120650220412e-09
2.1899550500495e-09
2.16812973987265e-09
2.1457079242259e-09
2.1226646721103e-09
2.09897475414178e-09
2.07460951810596e-09
2.04954176125768e-09
2.02373747545023e-09
1.99732161313406e-09
1.97187617024406e-09
1.94568388819276e-09
1.91897594941611e-09
1.89178219057103e-09
1.8636322857826e-09
1.83418402488031e-09
1.80344721162866e-09
1.7715426098069e-09
1.73847661123823e-09
1.7040677289801e-09
1.66802069321396e-09
1.62947790854562e-09
1.58781783237266e-09
1.54362777949862e-09
1.49677306972929e-09
1.44565705587028e-09
1.38744485086652e-09
1.32622880028896e-09
1.26167400812525e-09
1.19487192974773e-09
1.12725809491089e-09
1.05974893269652e-09
9.94608891660752e-10
9.28003097034386e-10
8.70905630761365e-10
8.28604464663224e-10
7.91903373537451e-10
7.78193911133442e-10
7.75939575491715e-10
8.0118472638811e-10
8.5749467747075e-10
9.59097809608212e-10
1.11910316188113e-09
1.37839979385471e-09
1.80761476204581e-09
2.54446224719326e-09
3.76973065674446e-09
5.11643223184927e-09
6.3427128174084e-09
7.3624553993049e-09
7.25501928433815e-09
6.26971210443646e-09
4.94543265476147e-09
3.74685097229738e-09
2.82346885311212e-09
2.21744621334748e-09
1.83366352110806e-09
1.59808122159206e-09
1.45778457536451e-09
1.36971676965518e-09
1.32163930919918e-09
1.29807260814105e-09
1.2849686975007e-09
1.28200618062006e-09
1.28476932994338e-09
1.29029209595258e-09
1.29696629904877e-09
1.30347306238784e-09
1.30754686383056e-09
1.30953850585225e-09
1.30972652803526e-09
1.30786169550386e-09
1.30383066291014e-09
1.29760883047264e-09
1.28923467633867e-09
1.27879074668586e-09
1.26639103460848e-09
1.25217143071929e-09
1.2362823553871e-09
1.2188829535478e-09
1.2001364969006e-09
1.18020674668341e-09
1.15925503429669e-09
1.1374381024211e-09
1.11490551976455e-09
1.09179990515285e-09
1.06823992428177e-09
1.04433614231219e-09
1.02020749201855e-09
9.95965422004504e-10
9.71713272047854e-10
9.47544527791676e-10
9.23542461396076e-10
8.99780454058964e-10
8.76322461188159e-10
8.53223562717368e-10
8.30530553093045e-10
8.08282552118757e-10
7.86511634398649e-10
7.65219425400342e-10
7.44372439801589e-10
7.24092249032278e-10
7.04390272441008e-10
6.85270274079047e-10
6.66728065975131e-10
6.48762289154452e-10
6.31370518271301e-10
6.14545323468798e-10
5.98252074211171e-10
5.82405256850132e-10
5.6707200495074e-10
5.5224019778279e-10
5.37897162212685e-10
5.24030071852304e-10
5.10625853223117e-10
4.97671049698401e-10
4.85151881470565e-10
4.73053810868216e-10
4.61360218478915e-10
4.50041408635377e-10
4.39071363673449e-10
4.2843880993863e-10
4.18133426174432e-10
4.08146238674002e-10
3.98468855668093e-10
3.8909355896051e-10
3.80013346588082e-10
3.71221983033571e-10
3.62714131934131e-10
3.54484404424882e-10
3.46095106886512e-10
3.37716751999206e-10
3.29537985333054e-10
3.21553163581793e-10
3.13777508031761e-10
3.06227780788701e-10
2.98805447956108e-10
2.90404968393995e-10
2.82170521379757e-10
2.74158988174405e-10
2.65591253638048e-10
2.5586593945324e-10
2.46461755595649e-10
2.34141771958323e-10
2.20637392674085e-10
2.0345848123599e-10
1.78712753246475e-10
)
;

boundaryField
{
    electrode
    {
        type            zeroGradient;
    }
    ground
    {
        type            zeroGradient;
    }
    otherfaces
    {
        type            empty;
    }
}


// ************************************************************************* //
