/*--------------------------------*- C++ -*----------------------------------*\
| =========                 |                                                 |
| \\      /  F ield         | foam-extend: Open Source CFD                    |
|  \\    /   O peration     | Version:     4.0                                |
|   \\  /    A nd           | Web:         http://www.foam-extend.org         |
|    \\/     M anipulation  |                                                 |
\*---------------------------------------------------------------------------*/
FoamFile
{
    version     2.0;
    format      ascii;
    class       volScalarField;
    location    "8.3e-06";
    object      Te;
}
// * * * * * * * * * * * * * * * * * * * * * * * * * * * * * * * * * * * * * //

dimensions      [0 0 0 1 0 0 0];

internalField   nonuniform List<scalar> 
300
(
40099.2011604538
40099.4864507968
40099.6582123171
40099.7604990481
40099.9224387767
40100.118856076
40100.3529578679
40100.6265756042
40100.9389657452
40101.2902779589
40101.6805227493
40102.1096870099
40102.5777837008
40103.0848257868
40103.6308318272
40104.2158262043
40104.8398386196
40105.5029042884
40106.2050639428
40106.9463638547
40107.7268558692
40108.546597436
40109.405651649
40110.3040872856
40111.2419788507
40112.2194066232
40113.2364567098
40114.293221095
40115.3897977015
40116.5262904546
40117.7028093442
40118.9194704949
40120.1763962413
40121.4737152064
40122.811562379
40124.190079205
40125.6094136762
40127.0697204235
40128.5711608207
40130.1139030852
40131.6981223892
40133.3240009759
40134.9917282776
40136.7015010401
40138.4535234562
40140.2480073003
40142.0851720712
40143.9652451441
40145.8884619219
40147.8550659979
40149.8653093267
40151.9194523992
40154.0177644236
40156.1605235188
40158.3480169145
40160.5805411548
40162.8584023158
40165.1819162332
40167.5514087316
40169.9672158708
40172.4296841998
40174.9391710226
40177.4960446728
40180.1006847991
40182.7534826658
40185.4548414676
40188.2051766515
40191.0049162547
40193.8545012603
40196.7543859624
40199.7050383521
40202.7069405193
40205.760589068
40208.8664955522
40212.0251869337
40215.2372060563
40218.5031121389
40221.8234812989
40225.1989070927
40228.6300010781
40232.1173934109
40235.6617334648
40239.2636904753
40242.9239542222
40246.6432357391
40250.4222680557
40254.2618069809
40258.1626319186
40262.1255467235
40266.1513806075
40270.240989081
40274.3952549396
40278.6150892991
40282.9014327054
40287.255256361
40291.677563336
40296.1693894114
40300.7318040151
40305.365913636
40310.0728675314
40314.853852125
40319.7100634576
40324.6427230906
40329.6532584414
40334.7434255867
40339.9148434141
40345.1687007355
40350.5062475444
40355.9290157008
40361.4386484587
40367.0368617188
40372.7254401857
40378.5062381734
40384.3811824732
40390.3522759361
40396.4216014228
40402.5913260655
40408.863705839
40415.2410904572
40421.7259286282
40428.3207736833
40435.0282896296
40441.8512576613
40448.792583165
40455.8553032749
40463.0425950292
40470.3577841799
40477.8043547305
40485.3859592784
40493.1064302308
40500.9697920011
40508.9802742867
40517.1423265487
40525.4606338227
40533.9401340229
40542.5860369077
40551.4038449065
40560.3993760337
40569.5787891497
40578.9486118738
40588.5157714803
40598.2876291867
40608.272018282
40618.477286645
40628.9123442427
40639.5867163879
40650.5106035152
40661.694948607
40673.1515133359
40684.8929638711
40696.9329707571
40709.2863154586
40721.9690303697
40734.9985174779
40748.3937836442
40762.1754791827
40776.3664557568
40790.9914253915
40806.0782270595
40821.6568010011
40837.7619647637
40854.4300859757
40871.7087081051
40889.650191564
40908.3355177825
40927.9635230093
40948.6607031579
40970.3284875897
40992.9398384305
41016.65609765
41041.7193613196
41068.3468706348
41096.6946303543
41126.8947060082
41158.7900938263
41192.3499858774
41228.2623692312
41266.846648182
41307.7436566965
41351.4613044029
41398.8445508264
41450.0283340204
41506.2181272956
41569.0423127031
41639.8576681147
41722.3164333505
41821.364752568
41942.8584234211
42096.5000950877
42295.9305093101
42558.5301200747
42909.3396677611
43384.2848061646
44032.4665868031
44929.748655721
46169.3426144047
47891.8931029613
50337.3459898212
53838.4125493417
58898.7436454371
65411.9894143281
74271.2108317819
88143.6614664325
106997.724135165
133206.428829108
169429.166569323
217329.275739412
276070.419179041
341731.604842221
409092.005447425
473803.807361537
533153.029999794
585984.281816867
632230.518208417
672445.168521885
707297.784927694
737543.062691836
763982.402102354
787274.748974857
807939.519939257
826379.947399643
842944.489566848
857933.932800547
871590.069591647
884120.406917547
895693.715099441
906447.989807126
916497.262949928
925935.741715008
934841.471604755
943279.076190621
951301.947363833
958953.997432662
966271.074980206
973282.125287558
980010.112827445
986472.937935845
992683.677513244
998653.817717856
1004386.00988817
1009879.27399117
1015135.97763379
1020153.69440677
1024927.82483248
1029451.45802022
1033715.676297
1037709.83400288
1041421.73598681
1044837.79886525
1047943.19283728
1050721.9691979
1053157.178891
1055230.9371374
1056924.53744232
1058217.84835129
1059091.07817988
1059513.15661155
1059485.20324519
1058973.46876136
1057957.45222843
1056414.34487956
1054321.89252875
1051657.36080097
1048397.51224235
1044518.64546138
1039996.6802949
1034807.30749367
1028925.84828788
1022327.1316018
1014985.66024111
1006875.72860951
997974.521901037
988251.736774901
977677.202042773
966226.62618643
953869.224359926
940573.109745688
926304.396750215
911027.311350657
894703.901212094
877293.698171258
858753.75745195
839037.484510406
818102.496944648
795897.17071284
772357.698392166
747422.304143987
721016.887375282
693050.566381337
663441.297767235
632079.351993953
598828.648227252
563553.454761954
526064.14450001
486126.030316174
443450.619605925
397640.732468105
348128.554537801
294092.899262514
234457.225546972
)
;

boundaryField
{
    electrode
    {
        type            electronTemperature;
        seec            0.05;
        Tse             1000;
        Edepend         1;
        TFN             1000;
        field_emission  0;
        field_enhancement_factor 55;
        work_function   5;
        value           uniform 40099.2011604538;
    }
    ground
    {
        type            electronTemperature;
        seec            0.05;
        Tse             1000;
        Edepend         1;
        TFN             1000;
        field_emission  0;
        field_enhancement_factor 55;
        work_function   5;
        value           uniform 200640.975470893;
    }
    otherfaces
    {
        type            empty;
    }
}


// ************************************************************************* //
