/*--------------------------------*- C++ -*----------------------------------*\
| =========                 |                                                 |
| \\      /  F ield         | foam-extend: Open Source CFD                    |
|  \\    /   O peration     | Version:     4.0                                |
|   \\  /    A nd           | Web:         http://www.foam-extend.org         |
|    \\/     M anipulation  |                                                 |
\*---------------------------------------------------------------------------*/
FoamFile
{
    version     2.0;
    format      ascii;
    class       volScalarField;
    location    "8e-07";
    object      Ar;
}
// * * * * * * * * * * * * * * * * * * * * * * * * * * * * * * * * * * * * * //

dimensions      [0 0 0 1 0 0 0];

internalField   nonuniform List<scalar> 
300
(
3.21880312832831e+22
3.21880312610757e+22
3.21880312814351e+22
3.21880312994442e+22
3.21880313240445e+22
3.21880313563778e+22
3.21880313959694e+22
3.21880314429641e+22
3.21880314972533e+22
3.21880315588228e+22
3.21880316276697e+22
3.21880317037685e+22
3.21880317871035e+22
3.21880318776591e+22
3.21880319754179e+22
3.21880320803615e+22
3.2188032192473e+22
3.2188032311729e+22
3.21880324381036e+22
3.21880325715697e+22
3.2188032712097e+22
3.21880328596523e+22
3.21880330141988e+22
3.2188033175696e+22
3.21880333441158e+22
3.21880335193977e+22
3.21880337014908e+22
3.21880338903421e+22
3.21880340858827e+22
3.21880342880482e+22
3.21880344967891e+22
3.21880347120262e+22
3.218803493367e+22
3.218803516164e+22
3.21880353958519e+22
3.21880356362185e+22
3.21880358826541e+22
3.2188036135063e+22
3.21880363933465e+22
3.21880366574067e+22
3.21880369271432e+22
3.21880372024516e+22
3.21880374832273e+22
3.21880377693639e+22
3.21880380607539e+22
3.21880383572891e+22
3.21880386588626e+22
3.21880389653663e+22
3.21880392767014e+22
3.21880395927621e+22
3.21880399134547e+22
3.21880402386599e+22
3.21880405682778e+22
3.21880409021858e+22
3.21880412402721e+22
3.21880415824178e+22
3.21880419285189e+22
3.21880422784732e+22
3.21880426321807e+22
3.2188042989546e+22
3.21880433504726e+22
3.21880437148687e+22
3.21880440826493e+22
3.21880444537472e+22
3.21880448280759e+22
3.21880452055302e+22
3.21880455860318e+22
3.21880459695059e+22
3.21880463558812e+22
3.21880467450902e+22
3.21880471370716e+22
3.21880475317736e+22
3.21880479291433e+22
3.21880483291222e+22
3.21880487316774e+22
3.21880491367657e+22
3.21880495443425e+22
3.21880499543792e+22
3.21880503668264e+22
3.21880507816917e+22
3.21880511989212e+22
3.21880516184994e+22
3.21880520404214e+22
3.21880524646819e+22
3.2188052891299e+22
3.2188053320274e+22
3.21880537516102e+22
3.21880541853288e+22
3.21880546214698e+22
3.21880550600608e+22
3.2188055501149e+22
3.21880559448298e+22
3.21880563911043e+22
3.2188056840036e+22
3.21880572916979e+22
3.21880577461717e+22
3.2188058203548e+22
3.21880586639268e+22
3.21880591274282e+22
3.21880595941711e+22
3.21880600642785e+22
3.21880605378884e+22
3.21880610151836e+22
3.21880614962963e+22
3.2188061981409e+22
3.2188062470717e+22
3.21880629644025e+22
3.2188063462696e+22
3.21880639658107e+22
3.2188064473978e+22
3.21880649874507e+22
3.21880655064962e+22
3.21880660314015e+22
3.21880665624631e+22
3.21880670999921e+22
3.21880676443305e+22
3.2188068195837e+22
3.21880687548419e+22
3.21880693217154e+22
3.2188069896852e+22
3.21880704806812e+22
3.21880710736077e+22
3.21880716760947e+22
3.21880722885812e+22
3.21880729115204e+22
3.21880735453938e+22
3.21880741907243e+22
3.21880748480023e+22
3.21880755177606e+22
3.21880762005358e+22
3.21880768968904e+22
3.21880776073863e+22
3.21880783325972e+22
3.21880790731264e+22
3.2188079829597e+22
3.21880806025825e+22
3.21880813926777e+22
3.21880822005104e+22
3.21880830267048e+22
3.21880838718586e+22
3.21880847365937e+22
3.21880856215308e+22
3.21880865273023e+22
3.21880874545342e+22
3.21880884038381e+22
3.21880893757717e+22
3.21880903709153e+22
3.21880913898388e+22
3.2188092433111e+22
3.21880935013014e+22
3.21880945949013e+22
3.21880957144173e+22
3.21880968603725e+22
3.21880980332049e+22
3.21880992333431e+22
3.21881004612205e+22
3.2188101717233e+22
3.21881030017004e+22
3.21881043149317e+22
3.21881056572007e+22
3.21881070287496e+22
3.21881084297497e+22
3.21881098602953e+22
3.21881113203873e+22
3.21881128098495e+22
3.21881143284632e+22
3.21881158767671e+22
3.21881174534159e+22
3.21881190524625e+22
3.2188120687769e+22
3.21881223449693e+22
3.21881240004239e+22
3.21881256748971e+22
3.21881273574385e+22
3.21881290840474e+22
3.21881307665786e+22
3.21881324414997e+22
3.21881341718769e+22
3.21881357983755e+22
3.21881374716047e+22
3.2188139058266e+22
3.21881405695458e+22
3.21881420257971e+22
3.21881433630763e+22
3.21881446103159e+22
3.2188145675974e+22
3.2188146643101e+22
3.21881474517089e+22
3.21881481210604e+22
3.21881487011431e+22
3.21881491254601e+22
3.21881494570577e+22
3.21881497505134e+22
3.21881499933159e+22
3.21881501844095e+22
3.21881503235794e+22
3.21881504576875e+22
3.21881505729281e+22
3.21881506410247e+22
3.21881506879454e+22
3.21881507365193e+22
3.21881507829612e+22
3.21881508423002e+22
3.2188150922083e+22
3.21881509963012e+22
3.21881510519083e+22
3.21881510983402e+22
3.21881511380519e+22
3.21881511663952e+22
3.21881511933598e+22
3.21881512111793e+22
3.21881512417263e+22
3.21881512821179e+22
3.218815131941e+22
3.21881513514068e+22
3.21881513798709e+22
3.21881514048745e+22
3.21881514203035e+22
3.21881514362624e+22
3.2188151445405e+22
3.2188151454031e+22
3.21881514636778e+22
3.21881514726439e+22
3.21881514878981e+22
3.21881515107193e+22
3.2188151536032e+22
3.21881515558791e+22
3.21881515736205e+22
3.21881515904057e+22
3.21881516023894e+22
3.21881516186749e+22
3.21881516327973e+22
3.21881516505814e+22
3.21881516711679e+22
3.21881516901248e+22
3.21881517150051e+22
3.21881517336325e+22
3.21881517568573e+22
3.21881517738793e+22
3.21881517938756e+22
3.2188151821866e+22
3.21881518520352e+22
3.21881518806483e+22
3.21881519126961e+22
3.21881519432049e+22
3.2188151977615e+22
3.2188152010364e+22
3.21881520470881e+22
3.21881520814334e+22
3.2188152120369e+22
3.21881521554438e+22
3.21881521962674e+22
3.21881522318382e+22
3.21881522728723e+22
3.21881523084885e+22
3.21881523488801e+22
3.21881523831422e+22
3.21881524236582e+22
3.21881524573955e+22
3.21881524981368e+22
3.21881525328745e+22
3.21881525755523e+22
3.21881526113787e+22
3.21881526561401e+22
3.21881526983162e+22
3.21881527504795e+22
3.21881527936307e+22
3.21881528461644e+22
3.21881528887751e+22
3.21881529410039e+22
3.21881529818085e+22
3.21881530328794e+22
3.21881530719483e+22
3.21881531225373e+22
3.2188153160188e+22
3.21881532101765e+22
3.21881532463513e+22
3.21881532960093e+22
3.21881533312155e+22
3.21881533810833e+22
3.21881534155987e+22
3.21881534657158e+22
3.21881534994753e+22
3.21881535497819e+22
3.21881535826818e+22
3.21881536331647e+22
3.21881536651721e+22
3.21881537158187e+22
3.21881537468497e+22
3.21881537975689e+22
3.21881538274658e+22
3.21881538781648e+22
3.21881539068076e+22
3.21881539572955e+22
3.21881539846374e+22
3.21881540348826e+22
3.21881540609909e+22
3.21881541109451e+22
3.21881541358761e+22
3.21881541970579e+22
)
;

boundaryField
{
    electrode
    {
        type            zeroGradient;
    }
    ground
    {
        type            zeroGradient;
    }
    otherfaces
    {
        type            empty;
    }
}


// ************************************************************************* //
