/*--------------------------------*- C++ -*----------------------------------*\
| =========                 |                                                 |
| \\      /  F ield         | foam-extend: Open Source CFD                    |
|  \\    /   O peration     | Version:     4.0                                |
|   \\  /    A nd           | Web:         http://www.foam-extend.org         |
|    \\/     M anipulation  |                                                 |
\*---------------------------------------------------------------------------*/
FoamFile
{
    version     2.0;
    format      ascii;
    class       volScalarField;
    location    "8e-07";
    object      Arm;
}
// * * * * * * * * * * * * * * * * * * * * * * * * * * * * * * * * * * * * * //

dimensions      [0 0 0 1 0 0 0];

internalField   nonuniform List<scalar> 
300
(
3.5741659989992e+15
3.57604651138768e+15
3.57799660040816e+15
3.57930230635224e+15
3.58011843693051e+15
3.58049687894804e+15
3.58048184934108e+15
3.58010477314298e+15
3.5793913048554e+15
3.57836343386495e+15
3.57703692538065e+15
3.57542586628897e+15
3.57354230882942e+15
3.57139685511405e+15
3.56899896174643e+15
3.5663571794909e+15
3.56347631620769e+15
3.56036496694847e+15
3.55703147665499e+15
3.55348232161852e+15
3.54972370331344e+15
3.54576154346906e+15
3.54160153209964e+15
3.53724914946782e+15
3.53269362805616e+15
3.52795279332679e+15
3.52303032310074e+15
3.51792820539921e+15
3.51266007491361e+15
3.50723083342802e+15
3.50162663142302e+15
3.49585888146424e+15
3.48994573068202e+15
3.48389253652136e+15
3.47770438526226e+15
3.47138608754746e+15
3.4649377945184e+15
3.45836603448195e+15
3.45167788500472e+15
3.44487687426413e+15
3.43796650225429e+15
3.43095205183415e+15
3.42383740142352e+15
3.41662624268958e+15
3.40932207594083e+15
3.40192816925386e+15
3.39444546142912e+15
3.38687542090635e+15
3.37921025188675e+15
3.37144858080666e+15
3.36357772878936e+15
3.35561029065082e+15
3.34754078763991e+15
3.33938700710924e+15
3.33115704534694e+15
3.32286731787154e+15
3.31452109918961e+15
3.30612130546852e+15
3.29767051255867e+15
3.28916912581373e+15
3.28062147345302e+15
3.27202967337456e+15
3.26339039975418e+15
3.2546856129702e+15
3.2459192920218e+15
3.23711711749375e+15
3.22828113405982e+15
3.21941318151623e+15
3.21051484566141e+15
3.20158749021125e+15
3.19263027825999e+15
3.18363603341719e+15
3.1746032116864e+15
3.16553932230562e+15
3.15643074739833e+15
3.14727856542679e+15
3.13808915338016e+15
3.12885830769908e+15
3.11960616683286e+15
3.11030192450944e+15
3.10098037522103e+15
3.09164358725268e+15
3.0822884540688e+15
3.07291728393616e+15
3.06351517290481e+15
3.05408990245535e+15
3.04465321087573e+15
3.03520542030974e+15
3.02573455221138e+15
3.01624843206551e+15
3.00674109898555e+15
2.99716720061604e+15
2.98758233851426e+15
2.97798803997307e+15
2.96838433064361e+15
2.95877123714621e+15
2.94914854110624e+15
2.93951583186295e+15
2.9298621275891e+15
2.92018737691996e+15
2.91049786713012e+15
2.9007949380735e+15
2.89104662319467e+15
2.88128236252316e+15
2.87149285455841e+15
2.86166870169528e+15
2.85182505364691e+15
2.84194215850176e+15
2.83203051573987e+15
2.82209558204069e+15
2.81213547248986e+15
2.802147911388e+15
2.79212513459856e+15
2.78206494168725e+15
2.77196514502176e+15
2.76180806193151e+15
2.75157470935579e+15
2.74129003227919e+15
2.73095487178826e+15
2.72056116829275e+15
2.71008240937941e+15
2.69953173187074e+15
2.68887997254065e+15
2.6781376079523e+15
2.66731610051594e+15
2.65641327582524e+15
2.64540086904441e+15
2.6342964736202e+15
2.6230891822577e+15
2.61177700190748e+15
2.60034423483062e+15
2.58878703863972e+15
2.57710045810067e+15
2.56525838320868e+15
2.55322420903533e+15
2.54101694133231e+15
2.52864053339568e+15
2.51606986674364e+15
2.50328603629574e+15
2.49029827687526e+15
2.47709054907208e+15
2.46364622943224e+15
2.44993313939679e+15
2.43591916428972e+15
2.42157961205288e+15
2.40693445217004e+15
2.39196874615205e+15
2.37666615717739e+15
2.36099615688045e+15
2.34490968439409e+15
2.32841938015949e+15
2.31150049658363e+15
2.29409055465751e+15
2.2761885338579e+15
2.25777620837605e+15
2.23880376769157e+15
2.21922788362638e+15
2.19904813568975e+15
2.17824539366931e+15
2.15677462203329e+15
2.13460019050291e+15
2.11170710137293e+15
2.08805694366724e+15
2.0636624242593e+15
2.03851058284155e+15
2.01254659983993e+15
1.98579140716448e+15
1.95828965807237e+15
1.93007025941446e+15
1.90117515145101e+15
1.87167306905892e+15
1.84159713762208e+15
1.81103969771165e+15
1.78017238249766e+15
1.74918923997265e+15
1.71826004734037e+15
1.6875639699714e+15
1.65729996453164e+15
1.62770709636582e+15
1.59894075734396e+15
1.57115523077825e+15
1.54449767264e+15
1.51904922014878e+15
1.49492494170154e+15
1.47212455473375e+15
1.45055719123292e+15
1.43026269932963e+15
1.41118933946607e+15
1.39324804298856e+15
1.37634949040944e+15
1.3603716785665e+15
1.34526755321729e+15
1.33102163666099e+15
1.31756447120233e+15
1.30491929837856e+15
1.2931966706989e+15
1.28243344087625e+15
1.27328071476713e+15
1.26742055142659e+15
1.26210794074216e+15
1.2538640670957e+15
1.24347797546494e+15
1.23293906183743e+15
1.22311045263413e+15
1.21413503246065e+15
1.2058371240484e+15
1.19815345906037e+15
1.19091240246742e+15
1.18407766716589e+15
1.17754230891279e+15
1.17125905452874e+15
1.16523884237283e+15
1.15945004261971e+15
1.15384837780117e+15
1.14845202650881e+15
1.14323241127324e+15
1.13815842482821e+15
1.13325324375368e+15
1.12849193760994e+15
1.12386496244097e+15
1.11938103664197e+15
1.11502492891782e+15
1.11079810001142e+15
1.10669836354686e+15
1.10271435082632e+15
1.09884600253786e+15
1.09510114620971e+15
1.09146532322699e+15
1.08793919003318e+15
1.08452932217099e+15
1.08121988259242e+15
1.07801151856104e+15
1.07491041296689e+15
1.07190661347219e+15
1.06899439606755e+15
1.06618553523455e+15
1.06345927797939e+15
1.06083028934681e+15
1.05828294485731e+15
1.05582376694323e+15
1.05344935060494e+15
1.05114826879995e+15
1.04893204949649e+15
1.04678328473346e+15
1.0447050930588e+15
1.04271011666918e+15
1.04078191749061e+15
1.03892595214766e+15
1.03714259835138e+15
1.03542193182843e+15
1.03376912110441e+15
1.03217829935169e+15
1.03064530325408e+15
1.0291744184106e+15
1.02775842077433e+15
1.02639629217927e+15
1.02508826065559e+15
1.02382088105769e+15
1.02260505726468e+15
1.02143510976449e+15
1.02031885630079e+15
1.01924591486486e+15
1.01822151728924e+15
1.0172397680307e+15
1.01630084410458e+15
1.01540341229458e+15
1.01454259602609e+15
1.01371828127776e+15
1.01292261876292e+15
1.01216442332126e+15
1.01143868150977e+15
1.0107531902089e+15
1.01009678865123e+15
1.0094770819308e+15
1.00888356455414e+15
1.00831631707481e+15
1.00777498372305e+15
1.00726081101079e+15
1.0067769035625e+15
1.00631783138037e+15
1.00588332579225e+15
1.0054668808348e+15
1.00506885697886e+15
1.00469749933876e+15
1.00435085723536e+15
1.00401915097478e+15
1.00370832167105e+15
1.00341779411861e+15
1.00313942215997e+15
1.00287564563363e+15
1.00263175046793e+15
1.00240136319415e+15
1.00218135458643e+15
1.00197177731289e+15
1.00177402882961e+15
1.00157809793455e+15
1.00138745173694e+15
1.00118972824221e+15
1.00097810614071e+15
1.00073687220277e+15
)
;

boundaryField
{
    electrode
    {
        type            zeroGradient;
    }
    ground
    {
        type            zeroGradient;
    }
    otherfaces
    {
        type            empty;
    }
}


// ************************************************************************* //
