/*--------------------------------*- C++ -*----------------------------------*\
| =========                 |                                                 |
| \\      /  F ield         | foam-extend: Open Source CFD                    |
|  \\    /   O peration     | Version:     4.0                                |
|   \\  /    A nd           | Web:         http://www.foam-extend.org         |
|    \\/     M anipulation  |                                                 |
\*---------------------------------------------------------------------------*/
FoamFile
{
    version     2.0;
    format      ascii;
    class       volScalarField;
    location    "8e-07";
    object      Arp1;
}
// * * * * * * * * * * * * * * * * * * * * * * * * * * * * * * * * * * * * * //

dimensions      [0 0 0 1 0 0 0];

internalField   nonuniform List<scalar> 
300
(
6.10589229464864e+16
6.10818745622968e+16
6.1065407384884e+16
6.10554400728693e+16
6.10428641228597e+16
6.10264811482137e+16
6.10067215967535e+16
6.09834092474513e+16
6.09566268027501e+16
6.09263654329392e+16
6.08926112090797e+16
6.08553739543051e+16
6.08146549336103e+16
6.07704559501442e+16
6.07227809114449e+16
6.06716345929492e+16
6.06170228290044e+16
6.05589527945046e+16
6.04974331109443e+16
6.04324739227968e+16
6.03640870561431e+16
6.02922861058294e+16
6.02170864106092e+16
6.01385054438216e+16
6.00565623812315e+16
5.99712786896026e+16
5.98826777477673e+16
5.9790785104234e+16
5.9695628311439e+16
5.95972371887962e+16
5.94956434017889e+16
5.93908808032966e+16
5.92829852093267e+16
5.91719942772384e+16
5.90579475964465e+16
5.89408864928192e+16
5.88208539421004e+16
5.8697894513847e+16
5.8572054218427e+16
5.84433804265419e+16
5.8311921681238e+16
5.81777276814912e+16
5.80408490222899e+16
5.79013371684264e+16
5.77592442597194e+16
5.76146230025244e+16
5.74675265082444e+16
5.73180082494864e+16
5.7166121696503e+16
5.70119206482467e+16
5.6855458385373e+16
5.66967884800923e+16
5.65359636664676e+16
5.63730366633794e+16
5.62080593199448e+16
5.60410830118377e+16
5.58721582669147e+16
5.57013347778562e+16
5.55286612965016e+16
5.53541854824984e+16
5.51779539965967e+16
5.50000120622066e+16
5.48204039009238e+16
5.46391721756286e+16
5.4456358120841e+16
5.42720016688826e+16
5.40861409459948e+16
5.3898812591435e+16
5.37100515832992e+16
5.3519891004426e+16
5.33283622466472e+16
5.31354948408701e+16
5.29413162038481e+16
5.27458519728056e+16
5.25491256283139e+16
5.2351158321726e+16
5.21519695763882e+16
5.1951575687441e+16
5.17499918511124e+16
5.15472295787835e+16
5.13432988324158e+16
5.11382066043116e+16
5.09319570875221e+16
5.07245521243281e+16
5.05159903213789e+16
5.03062675710926e+16
5.00953765915402e+16
4.98833070010562e+16
4.96700452343864e+16
4.94555738696163e+16
4.9239872889345e+16
4.90229174409183e+16
4.88046799219688e+16
4.85851282231429e+16
4.83642262638327e+16
4.81419339061216e+16
4.79182064213746e+16
4.76929946656427e+16
4.74662447068616e+16
4.72378979093397e+16
4.70078901323798e+16
4.67761527649127e+16
4.65426109199527e+16
4.63071847145365e+16
4.60697884331806e+16
4.58303299211388e+16
4.55887116116274e+16
4.53448289784946e+16
4.50985712978863e+16
4.48498212013788e+16
4.45984542601415e+16
4.43443391918968e+16
4.40873376275016e+16
4.38273035869579e+16
4.35640840152308e+16
4.32975181267633e+16
4.30274373881378e+16
4.27536659079845e+16
4.24760194219067e+16
4.21943066742018e+16
4.19083275949689e+16
4.16178752785627e+16
4.13227343816924e+16
4.10226823003215e+16
4.07174886055612e+16
4.04069159283118e+16
4.00907191855657e+16
3.97686468956339e+16
3.94404406815846e+16
3.910583598769e+16
3.87645623202629e+16
3.84163440733072e+16
3.80609000817688e+16
3.769794563244e+16
3.73271915802831e+16
3.69483460867536e+16
3.65611146776584e+16
3.61652015962595e+16
3.57603099869769e+16
3.5346143239034e+16
3.49224057795486e+16
3.44888041809085e+16
3.40450474590113e+16
3.35908496396062e+16
3.31259292134092e+16
3.2650011009664e+16
3.21628283251959e+16
3.16641221298881e+16
3.11536437989735e+16
3.06311574316593e+16
3.00964378005897e+16
2.95492762842006e+16
2.89894795249413e+16
2.8416871941647e+16
2.78312993286318e+16
2.72326288078232e+16
2.66207543927817e+16
2.59955995215447e+16
2.53571145379996e+16
2.47053093133144e+16
2.40402158983946e+16
2.33619178040857e+16
2.26706008324261e+16
2.19664965359679e+16
2.12500433951159e+16
2.05217680393315e+16
1.97813589716945e+16
1.90303563682251e+16
1.82749423022989e+16
1.75014618617822e+16
1.67244235965347e+16
1.59678959129384e+16
1.52118890729142e+16
1.44680897170978e+16
1.37006368164813e+16
1.29970661123312e+16
1.2319527105347e+16
1.16016964795781e+16
1.09970015765444e+16
1.03462085214495e+16
9.77070322729301e+15
9.2445258881865e+15
8.73043947234963e+15
8.27433926296778e+15
7.83011250580624e+15
7.47517758193673e+15
7.11709702475058e+15
6.81258098099129e+15
6.54551205652155e+15
6.27470838991e+15
6.07955167821138e+15
5.91220958638574e+15
5.73305130642065e+15
5.56816895721286e+15
5.42979797304586e+15
5.32650993969619e+15
5.2173154562383e+15
5.11981612986675e+15
5.06314134179843e+15
5.02492546646284e+15
4.98642475727906e+15
4.95128916103355e+15
4.90295208313946e+15
4.83323888241509e+15
4.76812563411088e+15
4.72088731404865e+15
4.6821771418292e+15
4.64972544671688e+15
4.62822483992569e+15
4.60779736494702e+15
4.59625965947776e+15
4.57172980433689e+15
4.53712350591224e+15
4.50542973605306e+15
4.47882683402195e+15
4.45558106662949e+15
4.435651313734e+15
4.42512887619359e+15
4.41393400067805e+15
4.40942272965115e+15
4.40528638894053e+15
4.40000288250148e+15
4.39527196103942e+15
4.38412711700446e+15
4.36530050834493e+15
4.34386775160275e+15
4.32777787669074e+15
4.31368536208265e+15
4.3004399307354e+15
4.29188018174417e+15
4.27891860603529e+15
4.2680192594339e+15
4.25335114939345e+15
4.23578349768076e+15
4.21975375969205e+15
4.19769729477827e+15
4.18181097812501e+15
4.16122979524651e+15
4.14676959320247e+15
4.12924666238195e+15
4.10364462257483e+15
4.07579012701456e+15
4.04940659861526e+15
4.01952045347505e+15
3.99110243950946e+15
3.95869961035373e+15
3.92789064198327e+15
3.89303399859e+15
3.86048315380582e+15
3.82327902137509e+15
3.78986726677751e+15
3.7506445309409e+15
3.71661630564716e+15
3.67706233068884e+15
3.6428710479402e+15
3.60385011490147e+15
3.57090430375223e+15
3.53166357125661e+15
3.4991497000476e+15
3.45958563587564e+15
3.42597125978423e+15
3.384373138112e+15
3.34957760188936e+15
3.30580413708038e+15
3.26457298390359e+15
3.21331287373045e+15
3.17102807112879e+15
3.11932393596021e+15
3.07751405138376e+15
3.02604840102749e+15
2.98597424906389e+15
2.93559343017222e+15
2.89718532978701e+15
2.84722039336893e+15
2.81016731540323e+15
2.7607500129398e+15
2.72512044261957e+15
2.6759803645957e+15
2.64126166779234e+15
2.59185636732926e+15
2.55777883161844e+15
2.5080813643912e+15
2.4747229857729e+15
2.42479079953857e+15
2.39224041501692e+15
2.34209202744642e+15
2.31039820244104e+15
2.26004481723473e+15
2.22929469346133e+15
2.17884168137276e+15
2.14919107493427e+15
2.09872463268434e+15
2.07030404100599e+15
2.02002768294325e+15
1.9928852901616e+15
1.94283766645804e+15
1.91692140816472e+15
1.86716586347884e+15
1.84244667986977e+15
1.7815051566352e+15
)
;

boundaryField
{
    electrode
    {
        type            driftDiffusionPositiveIonDensity;
        seec            0;
        fieldName       Arp1;
        value           uniform 6.09796004155807e+16;
    }
    ground
    {
        type            driftDiffusionPositiveIonDensity;
        seec            0;
        fieldName       Arp1;
        value           uniform 1.7815051566352e+15;
    }
    otherfaces
    {
        type            empty;
    }
}


// ************************************************************************* //
