/*--------------------------------*- C++ -*----------------------------------*\
| =========                 |                                                 |
| \\      /  F ield         | foam-extend: Open Source CFD                    |
|  \\    /   O peration     | Version:     4.0                                |
|   \\  /    A nd           | Web:         http://www.foam-extend.org         |
|    \\/     M anipulation  |                                                 |
\*---------------------------------------------------------------------------*/
FoamFile
{
    version     2.0;
    format      ascii;
    class       volVectorField;
    location    "8e-07";
    object      E;
}
// * * * * * * * * * * * * * * * * * * * * * * * * * * * * * * * * * * * * * //

dimensions      [0 0 0 1 0 0 0];

internalField   nonuniform List<vector> 
300
(
(4.01183518905502 -0 -0)
(9.2721557307107 -0 -0)
(15.7968992678392 -0 -0)
(22.226973041273 -0 -0)
(28.5747589340296 -0 -0)
(34.9294140361559 -0 -0)
(41.2904319901934 -0 -0)
(47.658694024565 -0 -0)
(54.0332870363486 -0 -0)
(60.4151602121023 -0 -0)
(66.8047899041167 -0 -0)
(73.2019600019347 -0 -0)
(79.6064718852637 -0 -0)
(86.0179124720345 -0 -0)
(92.4355915102324 -0 -0)
(98.8585876909875 -0 -0)
(105.285750330584 -0 -0)
(111.71569807983 -0 -0)
(118.146827263189 -0 -0)
(124.577322091477 -0 -0)
(131.005167709754 -0 -0)
(137.428165797316 -0 -0)
(143.843949043651 -0 -0)
(150.250003180809 -0 -0)
(156.643684831594 -0 -0)
(163.022241847496 -0 -0)
(169.382838750844 -0 -0)
(175.722576606365 -0 -0)
(182.038515128542 -0 -0)
(188.327698827375 -0 -0)
(194.587177591874 -0 -0)
(200.814026640698 -0 -0)
(207.005372285261 -0 -0)
(213.15840921523 -0 -0)
(219.270419309037 -0 -0)
(225.338791817765 -0 -0)
(231.361038406675 -0 -0)
(237.334808039731 -0 -0)
(243.25790122656 -0 -0)
(249.128282012204 -0 -0)
(254.944087474344 -0 -0)
(260.703637182418 -0 -0)
(266.40544058684 -0 -0)
(272.048201869992 -0 -0)
(277.630825071289 -0 -0)
(283.152416601126 -0 -0)
(288.612286632126 -0 -0)
(294.009950660452 -0 -0)
(299.34512634919 -0 -0)
(304.617735569163 -0 -0)
(309.827897887504 -0 -0)
(314.975929401081 -0 -0)
(320.062338286733 -0 -0)
(325.087817282276 -0 -0)
(330.053240588134 -0 -0)
(334.959652831192 -0 -0)
(339.808262503382 -0 -0)
(344.600389344564 -0 -0)
(349.337317756479 -0 -0)
(354.020741080742 -0 -0)
(358.652725905608 -0 -0)
(363.235171045511 -0 -0)
(367.770392976959 -0 -0)
(372.261130462995 -0 -0)
(376.710108161628 -0 -0)
(381.120180369158 -0 -0)
(385.494359213301 -0 -0)
(389.835808509075 -0 -0)
(394.147851094687 -0 -0)
(398.433969400795 -0 -0)
(402.697810938855 -0 -0)
(406.943200882737 -0 -0)
(411.17414511936 -0 -0)
(415.394842002897 -0 -0)
(419.609696805699 -0 -0)
(423.823324585721 -0 -0)
(428.040572927811 -0 -0)
(432.266523051102 -0 -0)
(436.506513164279 -0 -0)
(440.766150964964 -0 -0)
(445.051319206185 -0 -0)
(449.368210533919 -0 -0)
(453.723327975463 -0 -0)
(458.123511251674 -0 -0)
(462.575959361878 -0 -0)
(467.088245210871 -0 -0)
(471.668341313399 -0 -0)
(476.324643944361 -0 -0)
(481.066000593181 -0 -0)
(485.901724414698 -0 -0)
(490.841638883849 -0 -0)
(495.896096448693 -0 -0)
(501.076003177385 -0 -0)
(506.392867080701 -0 -0)
(511.858814408638 -0 -0)
(517.48663159606 -0 -0)
(523.289801074358 -0 -0)
(529.282533784261 -0 -0)
(535.479810243097 -0 -0)
(541.897422359824 -0 -0)
(548.552004390915 -0 -0)
(555.461087434267 -0 -0)
(562.643137513915 -0 -0)
(570.117591282167 -0 -0)
(577.904922045903 -0 -0)
(586.026667755201 -0 -0)
(594.505488267398 -0 -0)
(603.365220340546 -0 -0)
(612.630916592475 -0 -0)
(622.328911420319 -0 -0)
(632.486869391106 -0 -0)
(643.133839338471 -0 -0)
(654.300322326527 -0 -0)
(666.018322326221 -0 -0)
(678.321411440377 -0 -0)
(691.244802576571 -0 -0)
(704.825407071915 -0 -0)
(719.101914960282 -0 -0)
(734.114864556064 -0 -0)
(749.906731366344 -0 -0)
(766.522006114075 -0 -0)
(784.007286895436 -0 -0)
(802.411390611662 -0 -0)
(821.785448332322 -0 -0)
(842.183027607687 -0 -0)
(863.660271408035 -0 -0)
(886.276035906649 -0 -0)
(910.092050475199 -0 -0)
(935.173109217852 -0 -0)
(961.587265484282 -0 -0)
(989.406063503307 -0 -0)
(1018.70480988262 -0 -0)
(1049.56285493936 -0 -0)
(1082.06394027871 -0 -0)
(1116.29659394914 -0 -0)
(1152.35455966237 -0 -0)
(1190.33731205119 -0 -0)
(1230.3506495491 -0 -0)
(1272.50736729909 -0 -0)
(1316.92802634144 -0 -0)
(1363.7418649724 -0 -0)
(1413.08784711041 -0 -0)
(1465.11584648538 -0 -0)
(1519.98806875597 -0 -0)
(1577.88068665969 -0 -0)
(1638.98570063709 -0 -0)
(1703.51320247526 -0 -0)
(1771.69394729604 -0 -0)
(1843.78234638732 -0 -0)
(1920.06011585523 -0 -0)
(2000.84041743231 -0 -0)
(2086.47280460867 -0 -0)
(2177.34916017502 -0 -0)
(2273.91060809596 -0 -0)
(2376.65586658396 -0 -0)
(2486.1511828819 -0 -0)
(2603.04227307656 -0 -0)
(2728.06868695188 -0 -0)
(2862.08093342345 -0 -0)
(3006.06257596542 -0 -0)
(3161.15517201362 -0 -0)
(3328.68766232015 -0 -0)
(3510.21761517309 -0 -0)
(3707.58095040924 -0 -0)
(3922.95742499037 -0 -0)
(4158.92698795058 -0 -0)
(4418.47564070696 -0 -0)
(4705.31328183921 -0 -0)
(5024.34740229008 -0 -0)
(5380.49134390546 -0 -0)
(5780.5538035795 -0 -0)
(6237.46024192231 -0 -0)
(6766.74010514913 -0 -0)
(7383.38386715379 -0 -0)
(8101.04716325664 -0 -0)
(8942.38873431158 -0 -0)
(9936.16868243081 -0 -0)
(11098.5397727939 -0 -0)
(12454.4032948181 -0 -0)
(14025.0073010812 -0 -0)
(15823.3155764565 -0 -0)
(17869.0225133582 -0 -0)
(20164.4398207094 -0 -0)
(22701.4708895546 -0 -0)
(25461.6190818519 -0 -0)
(28424.5779032425 -0 -0)
(31558.1522774362 -0 -0)
(34818.1708907071 -0 -0)
(38168.7265019443 -0 -0)
(41562.2523834668 -0 -0)
(44970.0261261693 -0 -0)
(48379.014747248 -0 -0)
(51759.1969593595 -0 -0)
(55087.4286100464 -0 -0)
(58357.4692267946 -0 -0)
(61573.1344428965 -0 -0)
(64737.836163766 -0 -0)
(67850.0093967651 -0 -0)
(70917.7754535863 -0 -0)
(73956.8892161678 -0 -0)
(76974.0130730468 -0 -0)
(79969.9054058965 -0 -0)
(82941.0648751596 -0 -0)
(85876.7725750426 -0 -0)
(88771.8766149631 -0 -0)
(91633.1261926468 -0 -0)
(94468.4682678547 -0 -0)
(97282.3587037873 -0 -0)
(100079.987161822 -0 -0)
(102864.974833841 -0 -0)
(105640.323013038 -0 -0)
(108404.792496208 -0 -0)
(111151.426204192 -0 -0)
(113878.064147884 -0 -0)
(116587.119432955 -0 -0)
(119281.138558354 -0 -0)
(121962.133339196 -0 -0)
(124633.942606352 -0 -0)
(127299.202307738 -0 -0)
(129959.726393187 -0 -0)
(132617.64594163 -0 -0)
(135272.731164393 -0 -0)
(137924.805288763 -0 -0)
(140572.096856641 -0 -0)
(143210.354873561 -0 -0)
(145836.480792841 -0 -0)
(148451.296692912 -0 -0)
(151057.016389817 -0 -0)
(153654.498656703 -0 -0)
(156245.412925337 -0 -0)
(158829.847380254 -0 -0)
(161407.097262449 -0 -0)
(163976.649236918 -0 -0)
(166536.492426126 -0 -0)
(169086.215395574 -0 -0)
(171624.46404758 -0 -0)
(174151.27965062 -0 -0)
(176667.106592613 -0 -0)
(179172.374370232 -0 -0)
(181668.005477045 -0 -0)
(184150.640447526 -0 -0)
(186617.163456842 -0 -0)
(189067.33939961 -0 -0)
(191500.55582795 -0 -0)
(193916.199145839 -0 -0)
(196313.510259386 -0 -0)
(198691.767846792 -0 -0)
(201050.231442418 -0 -0)
(203388.375432109 -0 -0)
(205705.491342073 -0 -0)
(208001.319145151 -0 -0)
(210275.249757168 -0 -0)
(212527.096419067 -0 -0)
(214756.758800324 -0 -0)
(216964.187257882 -0 -0)
(219149.541744912 -0 -0)
(221313.197840996 -0 -0)
(223455.089445119 -0 -0)
(225575.346581086 -0 -0)
(227673.872074661 -0 -0)
(229750.334439564 -0 -0)
(231804.120084805 -0 -0)
(233834.872649783 -0 -0)
(235841.936272263 -0 -0)
(237823.369930237 -0 -0)
(239776.914923217 -0 -0)
(241702.252792345 -0 -0)
(243599.2493325 -0 -0)
(245468.047326648 -0 -0)
(247308.718090876 -0 -0)
(249121.7846459 -0 -0)
(250907.574029 -0 -0)
(252666.588797145 -0 -0)
(254398.954387002 -0 -0)
(256105.079253333 -0 -0)
(257785.128422961 -0 -0)
(259439.531182499 -0 -0)
(261068.371237365 -0 -0)
(262671.92338285 -0 -0)
(264250.107640351 -0 -0)
(265803.117287774 -0 -0)
(267330.86406637 -0 -0)
(268833.564733467 -0 -0)
(270311.148435627 -0 -0)
(271763.858709786 -0 -0)
(273191.63026695 -0 -0)
(274594.721394816 -0 -0)
(275973.070115316 -0 -0)
(277326.960879902 -0 -0)
(278656.363562068 -0 -0)
(279961.609602717 -0 -0)
(281242.69480189 -0 -0)
(282499.98997807 -0 -0)
(283733.552318129 -0 -0)
(284943.767096165 -0 -0)
(286130.703219094 -0 -0)
(287294.72970621 -0 -0)
(288435.934985452 -0 -0)
(289554.702202837 -0 -0)
(290647.614992924 -0 -0)
)
;

boundaryField
{
    electrode
    {
        type            calculated;
        value           uniform (2.01770287731051 -0 -0);
    }
    ground
    {
        type            calculated;
        value           uniform (291184.860889004 -0 -0);
    }
    otherfaces
    {
        type            empty;
    }
}


// ************************************************************************* //
