/*--------------------------------*- C++ -*----------------------------------*\
| =========                 |                                                 |
| \\      /  F ield         | foam-extend: Open Source CFD                    |
|  \\    /   O peration     | Version:     4.0                                |
|   \\  /    A nd           | Web:         http://www.foam-extend.org         |
|    \\/     M anipulation  |                                                 |
\*---------------------------------------------------------------------------*/
FoamFile
{
    version     2.0;
    format      ascii;
    class       volScalarField;
    location    "8e-07";
    object      electron;
}
// * * * * * * * * * * * * * * * * * * * * * * * * * * * * * * * * * * * * * //

dimensions      [0 0 0 1 0 0 0];

internalField   nonuniform List<scalar> 
300
(
6.10629608054317e+16
6.10603360352058e+16
6.10544938076159e+16
6.10451463255721e+16
6.10323058894958e+16
6.10159771763052e+16
6.09961601767315e+16
6.09728549260191e+16
6.09460617516602e+16
6.09157815373796e+16
6.08820154042249e+16
6.0844765018046e+16
6.08040327464773e+16
6.07598217322884e+16
6.07121360297661e+16
6.06609807395465e+16
6.06063621339471e+16
6.05482877806112e+16
6.04867666621801e+16
6.04218092894048e+16
6.03534278062954e+16
6.02816360856828e+16
6.02064498146623e+16
6.01278865682471e+16
6.00459658702748e+16
5.9960709241915e+16
5.98721402359593e+16
5.97802844570272e+16
5.96851695685083e+16
5.95868252849247e+16
5.94852833502101e+16
5.93805775035231e+16
5.92727434316368e+16
5.9161818708796e+16
5.90478427259152e+16
5.89308566087439e+16
5.88109031262418e+16
5.86880265906666e+16
5.85622727499125e+16
5.84336886731244e+16
5.8302322630988e+16
5.81682239716146e+16
5.80314429928244e+16
5.78920308121803e+16
5.77500392355739e+16
5.76055206251557e+16
5.74585277677343e+16
5.73091137440359e+16
5.71573318001026e+16
5.70032352208813e+16
5.68468772069118e+16
5.66883107550079e+16
5.65275885425419e+16
5.63647628169336e+16
5.61998852900766e+16
5.60330070386265e+16
5.58641784110056e+16
5.56934489407694e+16
5.55208672878855e+16
5.5346480356375e+16
5.5170333614686e+16
5.49924720859243e+16
5.48129397926778e+16
5.4631779364212e+16
5.4449031978208e+16
5.42647372832457e+16
5.40789333315638e+16
5.38916565164182e+16
5.37029415118678e+16
5.35128212135429e+16
5.3321326680686e+16
5.3128487076754e+16
5.29343296090274e+16
5.27388794673889e+16
5.25421597598024e+16
5.23441914465247e+16
5.21449932712452e+16
5.19445816896393e+16
5.17429707954745e+16
5.15401722418149e+16
5.13361951613475e+16
5.1131046081304e+16
5.09247288342867e+16
5.07172444669167e+16
5.05085911420246e+16
5.02987640371534e+16
5.00877552387885e+16
4.9875553630987e+16
4.96621447782477e+16
4.94475108048902e+16
4.92316302681113e+16
4.90144780241972e+16
4.87960250923787e+16
4.85762385109726e+16
4.83550811881682e+16
4.81325117491815e+16
4.79084843766974e+16
4.76829486472375e+16
4.74558493631718e+16
4.72271263794713e+16
4.6996714428023e+16
4.67645429382142e+16
4.65305358534025e+16
4.6294611448054e+16
4.60566821415432e+16
4.58166543114628e+16
4.55744281095135e+16
4.53298972765154e+16
4.50829489617572e+16
4.48334635463764e+16
4.45813144710919e+16
4.4326368072584e+16
4.40684834272361e+16
4.38075122053391e+16
4.35432985388549e+16
4.32756789016845e+16
4.30044820069148e+16
4.27295287227917e+16
4.24506320089656e+16
4.21675968753564e+16
4.18802203660155e+16
4.158829157189e+16
4.12915916715033e+16
4.09898940039912e+16
4.06829641779632e+16
4.03705602148926e+16
4.00524327307485e+16
3.97283251590797e+16
3.9397974014292e+16
3.90611091975167e+16
3.87174543473842e+16
3.83667272330707e+16
3.8008640192274e+16
3.76429006138332e+16
3.72692114603921e+16
3.68872718329162e+16
3.64967775747268e+16
3.6097421908842e+16
3.56888961056999e+16
3.52708901783855e+16
3.4843093597585e+16
3.440519601686e+16
3.39568880047127e+16
3.34978617722827e+16
3.30278118821126e+16
3.25464359340855e+16
3.20534352099481e+16
3.15485152595918e+16
3.10313864257643e+16
3.05017642779469e+16
2.99593699406285e+16
2.94039303100974e+16
2.88351781266499e+16
2.82528518921708e+16
2.76566956198852e+16
2.70464583966212e+16
2.64218937548179e+16
2.57827588472782e+16
2.51288134641147e+16
2.44598188257313e+16
2.37755362449866e+16
2.30757260177946e+16
2.23601463115895e+16
2.16285519603215e+16
2.08806935011543e+16
2.01163178796599e+16
1.9335176780597e+16
1.85370304913233e+16
1.77216153832116e+16
1.68886819591555e+16
1.60380190899875e+16
1.51691648379083e+16
1.42812523405934e+16
1.33733740550945e+16
1.24451974144475e+16
1.14971623077993e+16
1.05304730824126e+16
9.54818854243282e+15
8.55597768977406e+15
7.56231079254359e+15
6.57894694777139e+15
5.62051390852114e+15
4.70381517320618e+15
3.84678417478391e+15
3.06660096258121e+15
2.37747904053747e+15
1.78876393744011e+15
1.30378282315308e+15
919477193480838
627128774454249
413973658313128
264844204735646
164809029442230
100357589351807
60288019885184
36133744348301.9
21985964504209.9
13398665266008.7
7837876518722.58
4446354822964.51
2617668535402.25
1697725423026.32
1234814015758.25
993933131087.906
864358282286.398
793564792270.607
755486008588.974
736530800541.253
728612077426.799
726786262097.229
728232476236.455
731299959459.548
734857559882.77
738137314015.435
740627683791.047
741943012894.488
742025406195.784
740704072900.723
737898037263.009
733592206629.204
727835098879.316
720702515147.922
712290558377.413
702707950235.904
692072013597.296
680504815065.591
668129046632.799
655064687028.027
641427282752.42
627326769620.855
612866689524.583
598143924538.933
583248285952.009
568262398224.261
553261488306.016
538313250538.496
523477896639.485
508808122198.485
494349483387.851
480140361665.55
466213533922.557
452589380290.331
439284629312.061
426319393655.742
413709254754.731
401466092818.886
389598046051.465
378109946520.005
367003673579.379
356278532832.958
345931592027.582
335958002337.211
326351353751.698
317103823845.179
308207389244.958
299652351413.179
291426096567.062
283517115373.303
275915258306.618
268609513099.836
261588495164.897
254840901727.7
248355616526.243
242121796096.22
236128999825.236
230367290985.139
224827136268.53
219499293649.486
214374543420.488
209443330742.41
204690678606.808
200103056163.039
195673503171.621
191395740978.336
187264271641.857
183274027798.301
179420387897.017
175699173728.047
172106679424.259
168639669057.536
165295431354.915
162071136000.227
158964106440.647
155957853286.204
153037087010.081
150204996689.93
147468449174.885
144835174961.515
142312792069.941
139883959941.514
137537253126.093
135295784695.076
133178895046.083
131186485513.335
129350041768.31
127713685038.559
126353646092.011
125464539033.902
125218167635.14
126172607585.043
)
;

boundaryField
{
    electrode
    {
        type            driftDiffusionElectronDensity;
        seec            0.05;
        Edepend         1;
        field_emission  0;
        field_enhancement_factor 55;
        work_function   5;
        value           uniform 6.10629608054317e+16;
    }
    ground
    {
        type            driftDiffusionElectronDensity;
        seec            0.05;
        Edepend         1;
        field_emission  0;
        field_enhancement_factor 55;
        work_function   5;
        value           uniform 127551440849.876;
    }
    otherfaces
    {
        type            empty;
    }
}


// ************************************************************************* //
