/*--------------------------------*- C++ -*----------------------------------*\
| =========                 |                                                 |
| \\      /  F ield         | foam-extend: Open Source CFD                    |
|  \\    /   O peration     | Version:     4.0                                |
|   \\  /    A nd           | Web:         http://www.foam-extend.org         |
|    \\/     M anipulation  |                                                 |
\*---------------------------------------------------------------------------*/
FoamFile
{
    version     2.0;
    format      ascii;
    class       volVectorField;
    location    "8e-07";
    object      J_Arp1;
}
// * * * * * * * * * * * * * * * * * * * * * * * * * * * * * * * * * * * * * //

dimensions      [1 -1 -1 0 0 0 0];

internalField   nonuniform List<vector> 
300
(
(1.76271656080062e+16 -0 -0)
(5.6751936481656e+16 -0 -0)
(9.77118132391148e+16 -0 -0)
(1.36514140063419e+17 -0 -0)
(1.7543959252471e+17 -0 -0)
(2.14396434549622e+17 -0 -0)
(2.5333643679939e+17 -0 -0)
(2.922711050455e+17 -0 -0)
(3.31181998543665e+17 -0 -0)
(3.70071884562352e+17 -0 -0)
(4.08936108535345e+17 -0 -0)
(4.47766066302223e+17 -0 -0)
(4.86554108344801e+17 -0 -0)
(5.25290874872424e+17 -0 -0)
(5.63965340604679e+17 -0 -0)
(6.02565151991129e+17 -0 -0)
(6.41076594082594e+17 -0 -0)
(6.79484604395458e+17 -0 -0)
(7.17772849605364e+17 -0 -0)
(7.55923804296737e+17 -0 -0)
(7.93918850271491e+17 -0 -0)
(8.31738398603028e+17 -0 -0)
(8.69361984915592e+17 -0 -0)
(9.06768443393293e+17 -0 -0)
(9.43936020485326e+17 -0 -0)
(9.80842523438769e+17 -0 -0)
(1.01746549908647e+18 -0 -0)
(1.05378236692776e+18 -0 -0)
(1.08977056561248e+18 -0 -0)
(1.12540773929524e+18 -0 -0)
(1.16067186410182e+18 -0 -0)
(1.19554137825366e+18 -0 -0)
(1.22999535959528e+18 -0 -0)
(1.26401362233391e+18 -0 -0)
(1.29757683999359e+18 -0 -0)
(1.33066667214461e+18 -0 -0)
(1.3632658484124e+18 -0 -0)
(1.39535825789333e+18 -0 -0)
(1.42692902860936e+18 -0 -0)
(1.45796459347325e+18 -0 -0)
(1.48845273309408e+18 -0 -0)
(1.5183826256302e+18 -0 -0)
(1.5477448740811e+18 -0 -0)
(1.57653152000461e+18 -0 -0)
(1.60473605837846e+18 -0 -0)
(1.63235343356486e+18 -0 -0)
(1.65938002472922e+18 -0 -0)
(1.68581364446324e+18 -0 -0)
(1.71165347799706e+18 -0 -0)
(1.7369001041717e+18 -0 -0)
(1.76155539530529e+18 -0 -0)
(1.78562252552708e+18 -0 -0)
(1.80910588982233e+18 -0 -0)
(1.83201105551357e+18 -0 -0)
(1.85434471308715e+18 -0 -0)
(1.87611458729955e+18 -0 -0)
(1.89732938218239e+18 -0 -0)
(1.91799846093051e+18 -0 -0)
(1.93813103022792e+18 -0 -0)
(1.95773854384054e+18 -0 -0)
(1.97683447815986e+18 -0 -0)
(1.9954313335991e+18 -0 -0)
(2.01354381886871e+18 -0 -0)
(2.03118882026367e+18 -0 -0)
(2.04838299469362e+18 -0 -0)
(2.06514355827882e+18 -0 -0)
(2.08148838879863e+18 -0 -0)
(2.09743596827275e+18 -0 -0)
(2.11300541286777e+18 -0 -0)
(2.12821642772375e+18 -0 -0)
(2.14308931644107e+18 -0 -0)
(2.15764503236088e+18 -0 -0)
(2.17190513795329e+18 -0 -0)
(2.18589185653369e+18 -0 -0)
(2.19962812232195e+18 -0 -0)
(2.21313751583447e+18 -0 -0)
(2.22644443330441e+18 -0 -0)
(2.23957393635586e+18 -0 -0)
(2.25255196411454e+18 -0 -0)
(2.26540524862892e+18 -0 -0)
(2.27816135048172e+18 -0 -0)
(2.29084880732745e+18 -0 -0)
(2.3034970267048e+18 -0 -0)
(2.31613643176106e+18 -0 -0)
(2.32879848122991e+18 -0 -0)
(2.34151569563437e+18 -0 -0)
(2.35432172394853e+18 -0 -0)
(2.36725139057818e+18 -0 -0)
(2.38034078973159e+18 -0 -0)
(2.39362720294134e+18 -0 -0)
(2.407149362156e+18 -0 -0)
(2.42094732056908e+18 -0 -0)
(2.4350625681935e+18 -0 -0)
(2.44953814593076e+18 -0 -0)
(2.46441858606732e+18 -0 -0)
(2.4797500430052e+18 -0 -0)
(2.49558031160993e+18 -0 -0)
(2.51195886044672e+18 -0 -0)
(2.52893687695219e+18 -0 -0)
(2.54656734143236e+18 -0 -0)
(2.5649049393241e+18 -0 -0)
(2.58400624272734e+18 -0 -0)
(2.60392960129843e+18 -0 -0)
(2.62473514765362e+18 -0 -0)
(2.64648491928497e+18 -0 -0)
(2.669242657535e+18 -0 -0)
(2.69307392216018e+18 -0 -0)
(2.71804600170546e+18 -0 -0)
(2.74422781177978e+18 -0 -0)
(2.77168990785882e+18 -0 -0)
(2.80050432586218e+18 -0 -0)
(2.83074447775444e+18 -0 -0)
(2.86248508705624e+18 -0 -0)
(2.89580194164218e+18 -0 -0)
(2.93077177908754e+18 -0 -0)
(2.96747210701611e+18 -0 -0)
(3.00598090047274e+18 -0 -0)
(3.04637646102927e+18 -0 -0)
(3.08873701280448e+18 -0 -0)
(3.13314056787366e+18 -0 -0)
(3.17966441274007e+18 -0 -0)
(3.22838488768932e+18 -0 -0)
(3.27937696000464e+18 -0 -0)
(3.33271380427005e+18 -0 -0)
(3.38846634050078e+18 -0 -0)
(3.44670287323818e+18 -0 -0)
(3.50748848436662e+18 -0 -0)
(3.57088460410636e+18 -0 -0)
(3.63694848835008e+18 -0 -0)
(3.70573265360233e+18 -0 -0)
(3.77728432164836e+18 -0 -0)
(3.85164497214446e+18 -0 -0)
(3.92884959707383e+18 -0 -0)
(4.00892635007705e+18 -0 -0)
(4.0918959008816e+18 -0 -0)
(4.17777094074262e+18 -0 -0)
(4.26655565798444e+18 -0 -0)
(4.3582453647956e+18 -0 -0)
(4.45282600096075e+18 -0 -0)
(4.55027376758104e+18 -0 -0)
(4.65055485724822e+18 -0 -0)
(4.75362528011572e+18 -0 -0)
(4.85943048330705e+18 -0 -0)
(4.9679055970442e+18 -0 -0)
(5.0789752898569e+18 -0 -0)
(5.19255379972451e+18 -0 -0)
(5.30854561176141e+18 -0 -0)
(5.42684546232483e+18 -0 -0)
(5.54733886192252e+18 -0 -0)
(5.66990339115018e+18 -0 -0)
(5.79440861150881e+18 -0 -0)
(5.92071779539733e+18 -0 -0)
(6.04868883916081e+18 -0 -0)
(6.17817531427274e+18 -0 -0)
(6.30902844260899e+18 -0 -0)
(6.44109806052988e+18 -0 -0)
(6.57423483675864e+18 -0 -0)
(6.70829216003961e+18 -0 -0)
(6.84312451605715e+18 -0 -0)
(6.97860006538428e+18 -0 -0)
(7.11458900102221e+18 -0 -0)
(7.25096262540816e+18 -0 -0)
(7.38761603316269e+18 -0 -0)
(7.52444733368554e+18 -0 -0)
(7.66141869334765e+18 -0 -0)
(7.79851817847344e+18 -0 -0)
(7.93514199310716e+18 -0 -0)
(8.07131385829426e+18 -0 -0)
(8.21045622592429e+18 -0 -0)
(8.34477801772567e+18 -0 -0)
(8.47882455857467e+18 -0 -0)
(8.61795330775946e+18 -0 -0)
(8.75231323512994e+18 -0 -0)
(8.89752442808903e+18 -0 -0)
(9.01618115091199e+18 -0 -0)
(9.15544640839674e+18 -0 -0)
(9.29124196329325e+18 -0 -0)
(9.39897510780569e+18 -0 -0)
(9.54979054903607e+18 -0 -0)
(9.64074051738153e+18 -0 -0)
(9.76204719334247e+18 -0 -0)
(9.87415274560946e+18 -0 -0)
(9.98758378182898e+18 -0 -0)
(1.00571367630408e+19 -0 -0)
(1.01591343212671e+19 -0 -0)
(1.0238936647694e+19 -0 -0)
(1.03321572065675e+19 -0 -0)
(1.04094601705674e+19 -0 -0)
(1.04476918583147e+19 -0 -0)
(1.05106103394802e+19 -0 -0)
(1.06022842763932e+19 -0 -0)
(1.06578330071298e+19 -0 -0)
(1.07281323518234e+19 -0 -0)
(1.07784412983975e+19 -0 -0)
(1.08184964241071e+19 -0 -0)
(1.08763544950737e+19 -0 -0)
(1.09122418445655e+19 -0 -0)
(1.09986722562352e+19 -0 -0)
(1.11400063485866e+19 -0 -0)
(1.12957800926114e+19 -0 -0)
(1.14268576190886e+19 -0 -0)
(1.15426055296354e+19 -0 -0)
(1.16110615337189e+19 -0 -0)
(1.16801551759542e+19 -0 -0)
(1.17389150853463e+19 -0 -0)
(1.18231233729024e+19 -0 -0)
(1.19127409106812e+19 -0 -0)
(1.20036418981607e+19 -0 -0)
(1.21096553069971e+19 -0 -0)
(1.22062507210691e+19 -0 -0)
(1.23150176397077e+19 -0 -0)
(1.23973369411001e+19 -0 -0)
(1.24835488233344e+19 -0 -0)
(1.25673027912983e+19 -0 -0)
(1.26556722036988e+19 -0 -0)
(1.27446693525763e+19 -0 -0)
(1.28347738436799e+19 -0 -0)
(1.29446044281022e+19 -0 -0)
(1.30454911043266e+19 -0 -0)
(1.3159468176714e+19 -0 -0)
(1.32683379162661e+19 -0 -0)
(1.33674597545423e+19 -0 -0)
(1.34620302077917e+19 -0 -0)
(1.354544124378e+19 -0 -0)
(1.36343792258918e+19 -0 -0)
(1.37091748007954e+19 -0 -0)
(1.37951458160979e+19 -0 -0)
(1.38823180055539e+19 -0 -0)
(1.39672018128372e+19 -0 -0)
(1.40626669547422e+19 -0 -0)
(1.41391232060585e+19 -0 -0)
(1.42177429599646e+19 -0 -0)
(1.42792009087593e+19 -0 -0)
(1.43260535007616e+19 -0 -0)
(1.4373338932566e+19 -0 -0)
(1.43952024994446e+19 -0 -0)
(1.44334596864566e+19 -0 -0)
(1.44509071400881e+19 -0 -0)
(1.44851275729507e+19 -0 -0)
(1.45044662970938e+19 -0 -0)
(1.4529117309379e+19 -0 -0)
(1.45422087088211e+19 -0 -0)
(1.45562143429716e+19 -0 -0)
(1.45533074423512e+19 -0 -0)
(1.45514213652672e+19 -0 -0)
(1.45307210044736e+19 -0 -0)
(1.45116075573695e+19 -0 -0)
(1.44732984269985e+19 -0 -0)
(1.44393832739239e+19 -0 -0)
(1.43839110133354e+19 -0 -0)
(1.43386613808381e+19 -0 -0)
(1.42674217343482e+19 -0 -0)
(1.42120431015352e+19 -0 -0)
(1.41317483709283e+19 -0 -0)
(1.40683827526819e+19 -0 -0)
(1.39828165743899e+19 -0 -0)
(1.39174284472505e+19 -0 -0)
(1.38242031583255e+19 -0 -0)
(1.37541277210724e+19 -0 -0)
(1.36532568882884e+19 -0 -0)
(1.35728560141137e+19 -0 -0)
(1.34578621141201e+19 -0 -0)
(1.33670392096632e+19 -0 -0)
(1.32375910043692e+19 -0 -0)
(1.3132789991939e+19 -0 -0)
(1.29885648089014e+19 -0 -0)
(1.28772304909995e+19 -0 -0)
(1.27243482407422e+19 -0 -0)
(1.26086419480678e+19 -0 -0)
(1.24502874920005e+19 -0 -0)
(1.23358577358056e+19 -0 -0)
(1.21760180735869e+19 -0 -0)
(1.20631375353795e+19 -0 -0)
(1.18995206218527e+19 -0 -0)
(1.17873634451342e+19 -0 -0)
(1.16209246905305e+19 -0 -0)
(1.15102125028553e+19 -0 -0)
(1.13401967921911e+19 -0 -0)
(1.12291465944028e+19 -0 -0)
(1.10535634186555e+19 -0 -0)
(1.09413342661996e+19 -0 -0)
(1.07603265475508e+19 -0 -0)
(1.06475329204665e+19 -0 -0)
(1.04615968429156e+19 -0 -0)
(1.03488942729852e+19 -0 -0)
(1.0158352025311e+19 -0 -0)
(1.00462132611534e+19 -0 -0)
(9.85134450262405e+18 -0 -0)
(9.74039918257575e+18 -0 -0)
(9.54188635278439e+18 -0 -0)
(9.43306026132355e+18 -0 -0)
(9.23150046090431e+18 -0 -0)
(9.12560450888235e+18 -0 -0)
(8.92210919849326e+18 -0 -0)
(8.81958808192327e+18 -0 -0)
(8.61453819732266e+18 -0 -0)
(8.51537709293956e+18 -0 -0)
(8.30925033361318e+18 -0 -0)
(8.21358836066179e+18 -0 -0)
(7.95513496138838e+18 -0 -0)
)
;

boundaryField
{
    electrode
    {
        type            calculated;
        value           uniform (-630463333.436289 -0 -0);
    }
    ground
    {
        type            calculated;
        value           uniform (7.96129056009868e+18 -0 -0);
    }
    otherfaces
    {
        type            empty;
    }
}


// ************************************************************************* //
