/*--------------------------------*- C++ -*----------------------------------*\
| =========                 |                                                 |
| \\      /  F ield         | foam-extend: Open Source CFD                    |
|  \\    /   O peration     | Version:     4.0                                |
|   \\  /    A nd           | Web:         http://www.foam-extend.org         |
|    \\/     M anipulation  |                                                 |
\*---------------------------------------------------------------------------*/
FoamFile
{
    version     2.0;
    format      ascii;
    class       volVectorField;
    location    "8e-07";
    object      J_electron;
}
// * * * * * * * * * * * * * * * * * * * * * * * * * * * * * * * * * * * * * //

dimensions      [1 -1 -1 0 0 0 0];

internalField   nonuniform List<vector> 
300
(
(-1.15759624042703e+19 0 0)
(-1.15490670410083e+19 0 0)
(-1.33135684830773e+19 0 0)
(-1.32582811944115e+19 0 0)
(-1.31893388936572e+19 0 0)
(-1.31515423664996e+19 0 0)
(-1.31108052142262e+19 0 0)
(-1.307449903658e+19 0 0)
(-1.30353556403494e+19 0 0)
(-1.29971762278614e+19 0 0)
(-1.29599007194312e+19 0 0)
(-1.29227051020859e+19 0 0)
(-1.28859302041443e+19 0 0)
(-1.28496291464244e+19 0 0)
(-1.28137611881049e+19 0 0)
(-1.27783352660108e+19 0 0)
(-1.27433603321117e+19 0 0)
(-1.27088347826744e+19 0 0)
(-1.26747550530639e+19 0 0)
(-1.26411139472788e+19 0 0)
(-1.26079007453981e+19 0 0)
(-1.257510735364e+19 0 0)
(-1.25427151121685e+19 0 0)
(-1.25107119147023e+19 0 0)
(-1.24790825261572e+19 0 0)
(-1.24478050949939e+19 0 0)
(-1.24168658149366e+19 0 0)
(-1.23862480445679e+19 0 0)
(-1.23559301291512e+19 0 0)
(-1.23258980038156e+19 0 0)
(-1.22961389328933e+19 0 0)
(-1.22666320914809e+19 0 0)
(-1.223736868489e+19 0 0)
(-1.22083374019733e+19 0 0)
(-1.2179525296058e+19 0 0)
(-1.21509262618473e+19 0 0)
(-1.21225339583961e+19 0 0)
(-1.20943428879704e+19 0 0)
(-1.20663500383057e+19 0 0)
(-1.20385553792833e+19 0 0)
(-1.20109584180374e+19 0 0)
(-1.19835608010541e+19 0 0)
(-1.19563669701866e+19 0 0)
(-1.19293801922681e+19 0 0)
(-1.1902606492565e+19 0 0)
(-1.18760527084124e+19 0 0)
(-1.18497240816445e+19 0 0)
(-1.18236320724854e+19 0 0)
(-1.17977793405901e+19 0 0)
(-1.17721799476055e+19 0 0)
(-1.17468392640034e+19 0 0)
(-1.17217665218e+19 0 0)
(-1.16969744244864e+19 0 0)
(-1.16724686581963e+19 0 0)
(-1.16482657846905e+19 0 0)
(-1.16243754714981e+19 0 0)
(-1.16008116053114e+19 0 0)
(-1.15777170795691e+19 0 0)
(-1.15499183764422e+19 0 0)
(-1.1533068081474e+19 0 0)
(-1.15125195862169e+19 0 0)
(-1.14898110333646e+19 0 0)
(-1.14674587533899e+19 0 0)
(-1.1445272050368e+19 0 0)
(-1.14233282705076e+19 0 0)
(-1.14016475853617e+19 0 0)
(-1.1380239932754e+19 0 0)
(-1.13590888159196e+19 0 0)
(-1.13381792833948e+19 0 0)
(-1.13174849204524e+19 0 0)
(-1.12969674232905e+19 0 0)
(-1.127659906229e+19 0 0)
(-1.12563411451039e+19 0 0)
(-1.12361512306821e+19 0 0)
(-1.12160035635483e+19 0 0)
(-1.11958461382331e+19 0 0)
(-1.11756569944974e+19 0 0)
(-1.11553856880058e+19 0 0)
(-1.11349956442514e+19 0 0)
(-1.11144600734395e+19 0 0)
(-1.10937145969371e+19 0 0)
(-1.10727386627813e+19 0 0)
(-1.10514777283934e+19 0 0)
(-1.10298835048999e+19 0 0)
(-1.10079155822275e+19 0 0)
(-1.09855196104035e+19 0 0)
(-1.09626444144879e+19 0 0)
(-1.09392317720486e+19 0 0)
(-1.0915240886131e+19 0 0)
(-1.08905935473549e+19 0 0)
(-1.08652423062387e+19 0 0)
(-1.08391323552323e+19 0 0)
(-1.08121806688842e+19 0 0)
(-1.07843425645421e+19 0 0)
(-1.0755541541275e+19 0 0)
(-1.07257103135329e+19 0 0)
(-1.0694783850332e+19 0 0)
(-1.06626887582975e+19 0 0)
(-1.06293499709547e+19 0 0)
(-1.05947060712762e+19 0 0)
(-1.05586693980396e+19 0 0)
(-1.05211709348606e+19 0 0)
(-1.04821462706406e+19 0 0)
(-1.0441497051687e+19 0 0)
(-1.03991699910946e+19 0 0)
(-1.03550794630001e+19 0 0)
(-1.03091454264166e+19 0 0)
(-1.02613072860666e+19 0 0)
(-1.02114770804162e+19 0 0)
(-1.01595896271345e+19 0 0)
(-1.01055763121481e+19 0 0)
(-1.00493577665234e+19 0 0)
(-9.99087722834952e+18 0 0)
(-9.93006739057384e+18 0 0)
(-9.86685850319376e+18 0 0)
(-9.80120328183375e+18 0 0)
(-9.73303597658433e+18 0 0)
(-9.66231186448948e+18 0 0)
(-9.58897279661874e+18 0 0)
(-9.51298172030131e+18 0 0)
(-9.43429759786969e+18 0 0)
(-9.35287120901649e+18 0 0)
(-9.26868178246566e+18 0 0)
(-9.18169494360634e+18 0 0)
(-9.09187615091012e+18 0 0)
(-8.9992072592286e+18 0 0)
(-8.90366712911495e+18 0 0)
(-8.80522415034964e+18 0 0)
(-8.70386541730411e+18 0 0)
(-8.59956706596985e+18 0 0)
(-8.49229386581698e+18 0 0)
(-8.38203062451438e+18 0 0)
(-8.26873292458348e+18 0 0)
(-8.15234911452791e+18 0 0)
(-8.032835501292e+18 0 0)
(-7.91011499856364e+18 0 0)
(-7.7840927219033e+18 0 0)
(-7.65465740416804e+18 0 0)
(-7.52167690390051e+18 0 0)
(-7.38496922815824e+18 0 0)
(-7.2443160463902e+18 0 0)
(-7.09947801968365e+18 0 0)
(-6.95012630428176e+18 0 0)
(-6.79588003105053e+18 0 0)
(-6.63632133581963e+18 0 0)
(-6.47087876663883e+18 0 0)
(-6.29893512348723e+18 0 0)
(-6.11978112407804e+18 0 0)
(-5.93248117227887e+18 0 0)
(-5.73606063679472e+18 0 0)
(-5.52933804650529e+18 0 0)
(-5.31088272330011e+18 0 0)
(-5.0791382886069e+18 0 0)
(-4.8322162546977e+18 0 0)
(-4.56797799926622e+18 0 0)
(-4.28395467027094e+18 0 0)
(-3.97727704171623e+18 0 0)
(-3.6448701029936e+18 0 0)
(-3.28244229972479e+18 0 0)
(-2.88617919139545e+18 0 0)
(-2.45240676369931e+18 0 0)
(-1.97405445248464e+18 0 0)
(-1.44440166799901e+18 0 0)
(-8.55342500891591e+17 0 0)
(-2.04888874999087e+17 0 0)
(4.83438095821177e+17 0 0)
(1.28778274295775e+18 0 0)
(2.39003612238945e+18 0 0)
(3.24975532070614e+18 0 0)
(4.52153989511564e+18 0 0)
(7.54816541997295e+18 0 0)
(1.04695578120809e+19 0 0)
(1.2193055363142e+19 0 0)
(1.2365673319222e+19 0 0)
(1.38658769799154e+19 0 0)
(1.54750129803341e+19 0 0)
(1.21335891152245e+19 0 0)
(1.02669018779898e+19 0 0)
(7.06941762461185e+18 0 0)
(3.00267624768261e+18 0 0)
(2.06111102248944e+18 0 0)
(1.41880767376943e+18 0 0)
(4.24474367774163e+18 0 0)
(1.10560298713114e+19 0 0)
(2.21831650404697e+19 0 0)
(3.51726524922268e+19 0 0)
(4.79850971490073e+19 0 0)
(5.86842464562782e+19 0 0)
(6.43396527347173e+19 0 0)
(6.40699603218554e+19 0 0)
(6.01439144962585e+19 0 0)
(4.81454144896945e+19 0 0)
(3.7877927920571e+19 0 0)
(2.55437537252661e+19 0 0)
(1.57861006294456e+19 0 0)
(7.8563485241355e+18 0 0)
(5.22298668542659e+18 0 0)
(1.86226831606174e+17 0 0)
(-1.1858567832982e+18 0 0)
(-1.14132776187002e+18 0 0)
(-1.28429564707583e+18 0 0)
(-1.53775044964299e+18 0 0)
(-1.72254848315584e+18 0 0)
(-1.81188921012444e+18 0 0)
(-1.84394357048296e+18 0 0)
(-1.84734721599611e+18 0 0)
(-1.83645355757804e+18 0 0)
(-1.82028845376773e+18 0 0)
(-1.79556856400691e+18 0 0)
(-1.76673031717216e+18 0 0)
(-1.73844769234636e+18 0 0)
(-1.70941082912294e+18 0 0)
(-1.67976079324428e+18 0 0)
(-1.64953666460196e+18 0 0)
(-1.61838545873999e+18 0 0)
(-1.58726712783944e+18 0 0)
(-1.55654504894366e+18 0 0)
(-1.52505571666055e+18 0 0)
(-1.49392705329796e+18 0 0)
(-1.4625439320219e+18 0 0)
(-1.43133686148395e+18 0 0)
(-1.40032751730392e+18 0 0)
(-1.36960684594303e+18 0 0)
(-1.33923235351958e+18 0 0)
(-1.3092513493189e+18 0 0)
(-1.27970659170345e+18 0 0)
(-1.25064512352805e+18 0 0)
(-1.22210816211198e+18 0 0)
(-1.19412176477385e+18 0 0)
(-1.16671558263374e+18 0 0)
(-1.13990775965455e+18 0 0)
(-1.11371193275921e+18 0 0)
(-1.0881424138115e+18 0 0)
(-1.06320103024817e+18 0 0)
(-1.0388964189612e+18 0 0)
(-1.01522531537243e+18 0 0)
(-9.9218731546761e+17 0 0)
(-9.69779469486566e+17 0 0)
(-9.47987809462367e+17 0 0)
(-9.26827593721133e+17 0 0)
(-9.06170503929037e+17 0 0)
(-8.86291131925691e+17 0 0)
(-8.66884391128029e+17 0 0)
(-8.48053257871166e+17 0 0)
(-8.29766743009174e+17 0 0)
(-8.12016426008108e+17 0 0)
(-7.94786048849746e+17 0 0)
(-7.78059969722241e+17 0 0)
(-7.61822707277564e+17 0 0)
(-7.46057627137264e+17 0 0)
(-7.30749534847921e+17 0 0)
(-7.15882608967445e+17 0 0)
(-7.01439177778569e+17 0 0)
(-6.87418792677539e+17 0 0)
(-6.73760981475304e+17 0 0)
(-6.60497653389027e+17 0 0)
(-6.47631494064981e+17 0 0)
(-6.35089578436777e+17 0 0)
(-6.22887332907284e+17 0 0)
(-6.11015746172997e+17 0 0)
(-5.99458819714308e+17 0 0)
(-5.88204561540731e+17 0 0)
(-5.77241825425341e+17 0 0)
(-5.66560280184212e+17 0 0)
(-5.56148849155911e+17 0 0)
(-5.45996033654692e+17 0 0)
(-5.36093750669327e+17 0 0)
(-5.26429710953954e+17 0 0)
(-5.16997301594423e+17 0 0)
(-5.07732548447765e+17 0 0)
(-4.98816703856905e+17 0 0)
(-4.90037820988495e+17 0 0)
(-4.8146719510535e+17 0 0)
(-4.73088331974793e+17 0 0)
(-4.64899924972977e+17 0 0)
(-4.56895131188865e+17 0 0)
(-4.49068776203487e+17 0 0)
(-4.41414957965493e+17 0 0)
(-4.33928175880081e+17 0 0)
(-4.26603754669104e+17 0 0)
(-4.19428976078403e+17 0 0)
(-4.1241539709342e+17 0 0)
(-4.05406432641757e+17 0 0)
(-3.98848700126508e+17 0 0)
(-3.92307433208006e+17 0 0)
(-3.85906152507442e+17 0 0)
(-3.79630222522685e+17 0 0)
(-3.73503993621005e+17 0 0)
(-3.67303506427874e+17 0 0)
(-3.61701306197502e+17 0 0)
(-3.56027880564406e+17 0 0)
(-3.50422496860867e+17 0 0)
(-3.44937802711319e+17 0 0)
(-3.39971287559073e+17 0 0)
(-3.34703086115108e+17 0 0)
(-3.30171191753179e+17 0 0)
(-3.25712887031239e+17 0 0)
(-3.21809736001954e+17 0 0)
(-3.18168756053873e+17 0 0)
(-3.12751844289284e+17 0 0)
)
;

boundaryField
{
    electrode
    {
        type            calculated;
        value           uniform (-1.33675006195251e+19 0 0);
    }
    ground
    {
        type            calculated;
        value           uniform (-3.11327130707509e+17 0 0);
    }
    otherfaces
    {
        type            empty;
    }
}


// ************************************************************************* //
