/*--------------------------------*- C++ -*----------------------------------*\
| =========                 |                                                 |
| \\      /  F ield         | foam-extend: Open Source CFD                    |
|  \\    /   O peration     | Version:     4.0                                |
|   \\  /    A nd           | Web:         http://www.foam-extend.org         |
|    \\/     M anipulation  |                                                 |
\*---------------------------------------------------------------------------*/
FoamFile
{
    version     2.0;
    format      ascii;
    class       volScalarField;
    location    "8e-07";
    object      N_electronMean;
}
// * * * * * * * * * * * * * * * * * * * * * * * * * * * * * * * * * * * * * //

dimensions      [0 0 0 1 0 0 0];

internalField   nonuniform List<scalar> 
300
(
6.09557062819676e+16
6.09567690316906e+16
6.095593796808e+16
6.09519501949894e+16
6.09447982410933e+16
6.09342589726684e+16
6.09201870566455e+16
6.09024767961348e+16
6.08810330640437e+16
6.08557780340907e+16
6.08266480736635e+16
6.07935923149827e+16
6.07565714053078e+16
6.07155563215116e+16
6.06705275287773e+16
6.0621474146713e+16
6.05683932503927e+16
6.05112892755753e+16
6.04501734467015e+16
6.03850632435986e+16
6.03159819405649e+16
6.02429581798942e+16
6.01660255700707e+16
6.00852222818162e+16
6.00005907792508e+16
5.99121776339172e+16
5.9820033126753e+16
5.97242108628968e+16
5.96247674861903e+16
5.95217622662575e+16
5.94152568846248e+16
5.93053154839359e+16
5.91920043343986e+16
5.90753912145748e+16
5.89555450224865e+16
5.88325355093842e+16
5.8706433030638e+16
5.85773083435562e+16
5.84452323768242e+16
5.83102760018706e+16
5.8172509892456e+16
5.80320043815632e+16
5.78888292499721e+16
5.77430535564397e+16
5.75947455280607e+16
5.74439724645202e+16
5.72908006701547e+16
5.71352954258207e+16
5.69775210313063e+16
5.68175409166573e+16
5.66554179111708e+16
5.64912145203035e+16
5.63249929563286e+16
5.61568149612112e+16
5.5986741435517e+16
5.5814832048376e+16
5.56411449401031e+16
5.5465736544108e+16
5.52886615101141e+16
5.51099726365345e+16
5.49297208364268e+16
5.47479551242847e+16
5.45647225718788e+16
5.4380068497013e+16
5.41940369315722e+16
5.40066705797708e+16
5.3818010298662e+16
5.36280948795113e+16
5.34369610577828e+16
5.32446435133612e+16
5.30511748630928e+16
5.28565857736914e+16
5.26609053068725e+16
5.24641610075677e+16
5.22663786961932e+16
5.2067582680612e+16
5.1867796121394e+16
5.1667041013144e+16
5.14653378024836e+16
5.12627052154869e+16
5.10591603822796e+16
5.0854718417742e+16
5.06493920175414e+16
5.04431914179574e+16
5.02361244542358e+16
5.00281967899519e+16
4.98194117878765e+16
4.96097700838903e+16
4.93992694536265e+16
4.91879048907895e+16
4.8975668483891e+16
4.87625496197069e+16
4.85485352688876e+16
4.83336093737121e+16
4.81177522644527e+16
4.79009405360058e+16
4.76831469060583e+16
4.74643400648734e+16
4.72444845137302e+16
4.70235404837428e+16
4.68014638315705e+16
4.6578205736512e+16
4.63537126576278e+16
4.61279264469122e+16
4.59007839359803e+16
4.56722166165767e+16
4.54421504958159e+16
4.52105058244782e+16
4.49771969532443e+16
4.47421319387336e+16
4.45052120457791e+16
4.4266331431987e+16
4.40253769082815e+16
4.37822278273893e+16
4.35367558046418e+16
4.32888244172521e+16
4.30382892970292e+16
4.27849979499536e+16
4.25287890107132e+16
4.22694915542898e+16
4.20069248799428e+16
4.17408984372302e+16
4.14712116610395e+16
4.11976538747587e+16
4.09200036628715e+16
4.06380278683987e+16
4.03514811292919e+16
4.00601056315118e+16
3.9763630535569e+16
3.94617714871781e+16
3.91542303626857e+16
3.88406950099829e+16
3.85208389086201e+16
3.81943208232286e+16
3.78607850158624e+16
3.75198616636579e+16
3.71711664062684e+16
3.68142997438575e+16
3.64488472435302e+16
3.60743798129894e+16
3.56904534407961e+16
3.52966090472197e+16
3.48923727534718e+16
3.44772563932374e+16
3.40507584900513e+16
3.36123651342939e+16
3.31615502227793e+16
3.26977756737323e+16
3.22204917369658e+16
3.17291380109072e+16
3.12231451517421e+16
3.07019358285967e+16
3.0164925904584e+16
2.96115261246083e+16
2.90411431441194e+16
2.84531809545422e+16
2.78470429633593e+16
2.72221339249139e+16
2.65778611887275e+16
2.5913635754099e+16
2.52288735295365e+16
2.45229943393315e+16
2.37954183910356e+16
2.30455597492025e+16
2.22728087648044e+16
2.14764932050164e+16
2.06558319083344e+16
1.98099168656145e+16
1.89377315926435e+16
1.8038196346997e+16
1.71102232966498e+16
1.61528408079868e+16
1.51654996029013e+16
1.41484794281739e+16
1.31032677120692e+16
1.20329212797495e+16
1.09425954996153e+16
9.84008713789449e+15
8.73601635837142e+15
7.64381050638409e+15
6.57933935029164e+15
5.5600941713601e+15
4.60401275883804e+15
3.72790914425909e+15
2.94582920600766e+15
2.26752046196318e+15
1.6973531079688e+15
1.23392892622499e+15
870423972035879
595714691471641
395947376746311
256241626837811
162309586875932
101505075740023
63487530774516.7
40429358929898.9
26765212263516.9
18724526676628.4
13817829909417.6
10728305103539.2
8834014057161.87
7729174615971.9
7064169189390.59
6616762101784.86
6277909511900.61
5997416897577.16
5751820721510
5529515591176.71
5324094772661.6
5131721408163.39
4949955472746.22
4777312781255.32
4612643680097.78
4455064421071.48
4303875001352.44
4158505707743.98
4018490799154.02
3883450505283.93
3753057077627.82
3627037787720.32
3505164206942.92
3387219793573.15
3273021330572.48
3162410855628.95
3055246306766.79
2951400245560.12
2850758523211.13
2753214902082.72
2658672912593.13
2567042119031.33
2478235808329.8
2392175154201.53
2308782173243.39
2227981967787.57
2149704479832.24
2073880980435.1
2000443121464.53
1929327516175.7
1860469556574.88
1793806080096.97
1729277746536.96
1666824697940.5
1606391660651.87
1547923694019.18
1491366442165.47
1436668030867.12
1383775845042.67
1332638769423.32
1283205082188.03
1235424479725.7
1189247940182.98
1144625995326.96
1101510618433.56
1059853644628.58
1019609247844.35
980734498376.861
943187368281.795
906927778585.661
871917737144.453
838119256614.388
805496307803.94
774012161011.975
743631164129.338
714316836983.858
686033761411.524
658749260773.105
632432035031.016
607052875372.996
582582786123.878
558994528395.71
536260344654.308
514353268863.205
493246673191.008
472916416383.739
453339165411.436
434492674980.842
416355152013.675
398904331906.128
382119229904.769
365980198856.536
350467835008.956
335560385391.804
321237481786.236
307481269356.118
294274171528.357
281601233626.987
269449832581.183
257805553994.834
246653163995.3
235978416683.34
225770114765.126
216020166163.055
206720410564.353
197866953512.72
189467399487.162
181535359785.806
174102015335.176
167231909937.334
161081995242.168
155827002742.223
)
;

boundaryField
{
    electrode
    {
        type            calculated;
        value           uniform 6.09557062834412e+16;
    }
    ground
    {
        type            calculated;
        value           uniform 153836941181.569;
    }
    otherfaces
    {
        type            empty;
    }
}


// ************************************************************************* //
