/*--------------------------------*- C++ -*----------------------------------*\
| =========                 |                                                 |
| \\      /  F ield         | foam-extend: Open Source CFD                    |
|  \\    /   O peration     | Version:     4.0                                |
|   \\  /    A nd           | Web:         http://www.foam-extend.org         |
|    \\/     M anipulation  |                                                 |
\*---------------------------------------------------------------------------*/
FoamFile
{
    version     2.0;
    format      ascii;
    class       volScalarField;
    location    "8e-07";
    object      Phi;
}
// * * * * * * * * * * * * * * * * * * * * * * * * * * * * * * * * * * * * * //

dimensions      [0 0 0 1 0 0 0];

internalField   nonuniform List<scalar> 
300
(
699.999966371619
699.999766172702
699.999348227904
699.998713046084
699.997866429701
699.996808062155
699.995537802098
699.994055366689
699.99236055583
699.990453147553
699.988332878483
699.985999494893
699.983452747816
699.980692396767
699.977718220318
699.974530024
699.971127647805
699.967510973978
699.9636799346
699.959634518827
699.955374779794
699.95090084098
699.946212902074
699.941311244377
699.936196235195
699.930868332055
699.925328085739
699.919576142804
699.913613247298
699.907440241796
699.901058067376
699.89446776329
699.8876704656
699.880667405137
699.873459904986
699.866049377183
699.858437318865
699.850625307956
699.842614998329
699.834408114541
699.826006446195
699.817411842043
699.808626203715
699.799651479338
699.790489656924
699.781142757666
699.771612829151
699.761901938557
699.752012165774
699.7419455968
699.731704316736
699.721290403608
699.710705921442
699.699952914389
699.689033400291
699.677949365016
699.666702756769
699.655295480849
699.643729397479
699.632006326332
699.62012801474
699.608096144605
699.595912336671
699.583578118406
699.571094927973
699.558464111195
699.545686915949
699.532764487248
699.519697862048
699.506487963841
699.493135597422
699.479641443112
699.466006050696
699.452229833438
699.438313061229
699.42425585365
699.410058172923
699.395719815455
699.38124040472
699.366619381244
699.351855994655
699.336949293297
699.321898113953
699.306701071433
699.291356546536
699.275862674142
699.260217330189
699.244418118054
699.228462353926
699.212347051348
699.196068905631
699.179624275422
699.163009165868
699.146219208544
699.129249641396
699.112095287583
699.094750532623
699.077209300845
699.059465030371
699.041510646829
699.023338535547
699.004940513203
698.986307796384
698.967430970702
698.948299956966
698.928903975899
698.909231512449
698.889270276681
698.869007164426
698.848428215574
698.827518570332
698.806262424282
698.784642981042
698.762642402793
698.740241759554
698.717420975364
698.694158772715
698.670432614893
698.646218645051
698.621491623922
698.59622486296
698.570390156848
698.543957710501
698.51689606414
698.489172013945
698.460750528966
698.431594662518
698.401665459906
698.370921859153
698.339320585958
698.306816041454
698.273360181725
698.238902387462
698.203389324729
698.166764791443
698.128969551799
698.089941154132
698.049613730996
698.007917777495
697.964779906509
697.920122575739
697.873863782178
697.825916719266
697.776189392412
697.724584181348
697.670997346635
697.615318467973
697.557429799803
697.497205538153
697.434510976711
697.369201530429
697.301121615549
697.230103343455
697.15596500487
697.078509302915
696.997521280432
696.912765890723
696.823985128893
696.730894644926
696.633179733332
696.530490473195
696.422436055198
696.308577962373
696.18842154752
696.061405899013
695.92689105252
695.784144099816
695.632326009807
695.470456547693
695.29736951632
695.111757124766
694.911999262749
694.695926441971
694.460883255739
694.203700850828
693.920813444855
693.607541601874
693.25840219936
692.867638950354
692.428108646372
691.932638463615
691.373220941274
690.741370296058
690.028924953227
689.227938903421
688.331483681104
687.332967043205
686.227606862608
685.011755650491
683.683025095812
682.240938824926
680.685023354068
679.015671175109
677.234410223444
675.34317593444
673.343912274991
671.238300304913
669.028056530739
666.71496634513
664.300204833834
661.784507064051
659.168603962297
656.453180036992
653.639199637287
650.728061865322
647.721074529622
644.619186785812
641.423176645099
638.13369620556
634.751177500977
631.276031216636
627.708489300107
624.049045050223
620.298394219829
616.457174107031
612.525919590965
608.505098203141
604.395110701685
600.196168696051
595.908497214503
591.532186936505
587.067320818394
582.514004858879
577.872333799143
573.142531735103
568.324976807572
563.420099682247
558.428223694711
553.349631922926
548.184590450931
542.933271061236
537.595933958914
532.172797910407
526.664157343118
521.070365081999
515.391742983413
509.628734145493
503.781657673372
497.850927039319
491.836832715356
485.739726674183
479.560123352188
473.298582443727
466.955634058882
460.531878721863
454.027887449158
447.444311371239
440.781769592705
434.04096260841
427.222544563898
420.327263185606
413.355789954221
406.308913201794
399.187316859617
391.991795948439
384.72303770909
377.381826498779
369.96882451969
362.484820535771
354.930468080951
347.30656239746
339.613779118316
331.852954391807
324.024787608329
316.130158640323
308.169896279647
300.145030978774
292.056412760158
283.905081023274
275.691876271714
267.417833150549
259.083757295321
250.690661548615
242.239318042175
233.730731256148
225.165646091955
216.545056027952
207.869677346455
199.140497945461
190.358215787599
181.523824102771
172.638007968413
163.701766498347
154.715770319516
145.681023269304
136.598179738864
127.468247918174
118.291864979209
109.070043243821
99.8034009205479
90.4929523396804
81.1392936137018
71.7434393528893
62.3059609484961
52.8278691983482
43.3097098087534
33.7524889837419
24.1567278283387
14.5234266513766
4.85308101481519
)
;

boundaryField
{
    electrode
    {
        type            fixedValue;
        value           uniform 700;
    }
    ground
    {
        type            fixedValue;
        value           uniform 0;
    }
    otherfaces
    {
        type            empty;
    }
}


// ************************************************************************* //
