/*--------------------------------*- C++ -*----------------------------------*\
| =========                 |                                                 |
| \\      /  F ield         | foam-extend: Open Source CFD                    |
|  \\    /   O peration     | Version:     4.0                                |
|   \\  /    A nd           | Web:         http://www.foam-extend.org         |
|    \\/     M anipulation  |                                                 |
\*---------------------------------------------------------------------------*/
FoamFile
{
    version     2.0;
    format      ascii;
    class       volScalarField;
    location    "8e-07";
    object      PhiMean;
}
// * * * * * * * * * * * * * * * * * * * * * * * * * * * * * * * * * * * * * //

dimensions      [0 0 0 1 0 0 0];

internalField   nonuniform List<scalar> 
300
(
699.908330789329
699.90041501828
699.892185458277
699.883691805808
699.874945877928
699.865918805034
699.856603195039
699.846990927557
699.83707472644
699.826848957686
699.816308928672
699.805450984638
699.794272274549
699.782770690345
699.770944789896
699.758793721721
699.746317165166
699.73351529065
699.720388709672
699.706938427979
699.693165814421
699.679072567986
699.66466068877
699.649932447995
699.634890355711
699.619537207186
699.60387601043
699.587909964076
699.571642456244
699.555077013959
699.53821726913
699.52106705085
699.503630340096
699.485911173343
699.467913630874
699.44964182044
699.431099857205
699.41229186262
699.39322194521
699.37389417736
699.354312593931
699.334481192836
699.314403904211
699.294084583018
699.273527002585
699.252734848552
699.231711713517
699.210461099562
699.188986421551
699.167291034872
699.145378255785
699.123251455583
699.100914017893
699.078369370947
699.055620894378
699.032671897316
699.009525561459
698.986184932295
698.962652915854
698.938932268326
698.91502559716
698.890935358196
698.866663848156
698.842213196032
698.817585506815
698.792782850614
698.7678071173
698.742660019388
698.717343095205
698.69185770578
698.666205032364
698.640386066034
698.614401690809
698.58825271121
698.561939747199
698.535463296902
698.508823832616
698.4820217537
698.455057371422
698.427930768931
698.40064201575
698.373190955102
698.345577179801
698.317800050202
698.289858657862
698.261751936734
698.23347861776
698.205037129569
698.176425582226
698.147641820317
698.11868337717
698.089547448793
698.060231143051
698.030731188133
698.001043890604
697.971165133533
697.941090344044
697.910814485616
697.880332008727
697.849636856758
697.818722455347
697.787581646694
697.756206625371
697.724589102774
697.692720098892
697.660589921501
697.628188189131
697.595503688285
697.562524449809
697.529237616412
697.49562934221
697.461684752761
697.427387861868
697.39272156769
697.357667593956
697.322206341247
697.286316966266
697.249977352765
697.213163871281
697.175851237659
697.138012404254
697.099618609614
697.06063915866
697.021041505382
696.980791002662
696.939850606716
696.898180707303
696.855739091361
696.812480614071
696.768357024581
696.723316762191
696.677304761237
696.630262184251
696.582126111534
696.532829304919
696.482300210364
696.430462417302
696.377234155785
696.322528000172
696.266250582066
696.208301941642
696.148574959595
696.086954806713
696.02331832377
695.957533458896
695.889458691269
695.818941920279
695.745819480487
695.669914872755
695.591037444385
695.508981406335
695.423523983101
695.334423444263
695.241417392959
695.144219827381
695.042518382385
694.935971068004
694.82420239908
694.706798576993
694.583301489468
694.453202239376
694.315932399102
694.170852398345
694.017238390449
693.85426315861
693.680966143981
693.496208395622
693.298629733652
693.086603919308
692.858181041256
692.611018359711
692.342272599527
692.048551569777
691.725881883339
691.369626790732
690.974393290504
690.533950987086
690.041422246854
689.489189000224
688.868994271139
688.172228053689
687.38992259135
686.513311184955
685.533902175895
684.44393983664
683.236696911282
681.906529401951
680.449408108936
678.862464525374
677.144148643775
675.294307817939
673.313510312598
671.203070245264
668.965020298674
666.601583937045
664.115042719053
661.507704734687
658.781967404203
655.940133183721
652.984261221993
649.916196455751
646.737666704564
643.450424913506
640.05627718936
636.55705095221
632.954485141698
629.250227463183
625.445866781118
621.54293480199
617.542933486962
613.447341140423
609.257627421951
604.975282520762
600.601765502042
596.138491573823
591.586828870855
586.948115742508
582.223654830176
577.414730270398
572.522604860982
567.548530318948
562.493750045484
557.359504690587
552.147038624711
546.857601610681
541.492428527064
536.052728193088
530.539682811029
524.954455485785
519.29818696663
513.572002275889
507.777009385492
501.914307670032
495.985002146843
489.990192730274
483.930976295675
477.808445268178
471.623687017498
465.377791186149
459.071842733739
452.706937222613
446.284158338228
439.804577489011
433.269242948149
426.679193001683
420.035441832743
413.338995889943
406.590835991739
399.791937474377
392.943248395353
386.045713850499
379.10024957505
372.107771646482
365.069163894702
357.985314586855
350.857076833481
343.685312342335
336.470845023599
329.214511884326
321.917108619068
314.579448859878
307.202300820425
299.786455082284
292.332652084007
284.841659586452
277.314205367123
269.751054443611
262.15291216976
254.520520459469
246.854553897389
239.155729584713
231.424690578501
223.662129816617
215.868659254007
208.044948700558
200.191579358329
192.309198958203
184.398358512722
176.459684852628
168.493699202515
160.501008354729
152.482103830122
144.437573156418
136.367878264435
128.273588292685
120.15513565536
112.013071871428
103.847799931442
95.6598546203401
87.449609501684
79.2175835237941
70.9641209286115
62.6897257476307
54.3947129488477
46.0795726794341
37.7445907966496
29.3902445938727
21.0167910153115
12.6246955693375
4.21418718533704
)
;

boundaryField
{
    electrode
    {
        type            calculated;
        value           uniform 699.999999999958;
    }
    ground
    {
        type            calculated;
        value           uniform 0;
    }
    otherfaces
    {
        type            empty;
    }
}


// ************************************************************************* //
