/*--------------------------------*- C++ -*----------------------------------*\
| =========                 |                                                 |
| \\      /  F ield         | foam-extend: Open Source CFD                    |
|  \\    /   O peration     | Version:     4.0                                |
|   \\  /    A nd           | Web:         http://www.foam-extend.org         |
|    \\/     M anipulation  |                                                 |
\*---------------------------------------------------------------------------*/
FoamFile
{
    version     2.0;
    format      ascii;
    class       volScalarField;
    location    "8e-07";
    object      Sy_electron;
}
// * * * * * * * * * * * * * * * * * * * * * * * * * * * * * * * * * * * * * //

dimensions      [1 -3 -1 0 0 0 0];

internalField   nonuniform List<scalar> 
300
(
3.33911057772777e-15
3.34256386932952e-15
3.34612899928687e-15
3.34849694653105e-15
3.34995941553299e-15
3.35061087069315e-15
3.35053201410165e-15
3.34978048112789e-15
3.34840351904272e-15
3.34644182324228e-15
3.34392478231774e-15
3.34087881773345e-15
3.33732671439922e-15
3.33328867678676e-15
3.32878288026963e-15
3.32382590309639e-15
3.31842754268385e-15
3.31260456717611e-15
3.3063733217976e-15
3.29974677539862e-15
3.29273742711371e-15
3.28535729323987e-15
3.27761799089639e-15
3.2695307743906e-15
3.26107751189375e-15
3.25229190573263e-15
3.24318201638215e-15
3.2337528782027e-15
3.22403051369419e-15
3.21402515942263e-15
3.20371341110471e-15
3.1931173060484e-15
3.18227083224226e-15
3.17118497442491e-15
3.15987020258299e-15
3.14833646444702e-15
3.13658540615065e-15
3.12462999745978e-15
3.11248411865601e-15
3.10015531479567e-15
3.08765105480378e-15
3.07498191239746e-15
3.06215594189184e-15
3.04918083213583e-15
3.03606389980675e-15
3.02281201981109e-15
3.00942798189972e-15
2.99591549366692e-15
2.98226221793581e-15
2.96846704429683e-15
2.9545094218665e-15
2.94041246068691e-15
2.92616809188572e-15
2.91180814791763e-15
2.89734764156469e-15
2.88281561765891e-15
2.86821853899985e-15
2.85356221023233e-15
2.83885181958803e-15
2.82408886530821e-15
2.80928139399131e-15
2.79443369098928e-15
2.77954094646437e-15
2.76457385999848e-15
2.74954006090798e-15
2.73448309389998e-15
2.7194069593623e-15
2.70431528315376e-15
2.68921124020932e-15
2.67409761237299e-15
2.65897355784423e-15
2.64382791246898e-15
2.62865880312587e-15
2.61347906478849e-15
2.59826723614027e-15
2.58302580188583e-15
2.56776574419327e-15
2.55248096922606e-15
2.53720435839312e-15
2.52188724989948e-15
2.50658576458134e-15
2.49130353469757e-15
2.47603598137802e-15
2.46078710624801e-15
2.44553385637419e-15
2.43028895162118e-15
2.41507113082995e-15
2.39988115591964e-15
2.38470071679644e-15
2.36954232960318e-15
2.35439712452557e-15
2.33919587340431e-15
2.32402472136484e-15
2.30888623948606e-15
2.29378068307787e-15
2.27870830578192e-15
2.26366898790777e-15
2.24866232180529e-15
2.23367204120418e-15
2.21869844347686e-15
2.20375127408983e-15
2.18883280030322e-15
2.17389593956159e-15
2.15898486963227e-15
2.14408619678891e-15
2.12918657064751e-15
2.11430868482396e-15
2.09942412052143e-15
2.08454873912264e-15
2.06969089812289e-15
2.0548482671878e-15
2.04001799155477e-15
2.02518941202834e-15
2.01035995579444e-15
1.99552711292432e-15
1.98066649904759e-15
1.96575226668129e-15
1.95082065016495e-15
1.93587364499418e-15
1.92090082785963e-15
1.90586633539162e-15
1.89078970371747e-15
1.87563193442882e-15
1.86040905280491e-15
1.84513821318902e-15
1.82981777126162e-15
1.81441078882282e-15
1.79894285679572e-15
1.78340088872005e-15
1.76778398965828e-15
1.75207307551544e-15
1.73626517204298e-15
1.72035595247499e-15
1.70431344045746e-15
1.68808409055541e-15
1.67160811333803e-15
1.65499480629412e-15
1.63821505944227e-15
1.62124843440333e-15
1.60411095223189e-15
1.58678639251477e-15
1.56925830888855e-15
1.55149128212857e-15
1.53345098663778e-15
1.51511336265045e-15
1.49651029859016e-15
1.4776304735405e-15
1.45846148404322e-15
1.43897445479679e-15
1.41911943743433e-15
1.39892194191726e-15
1.3783630506606e-15
1.35738064915701e-15
1.33598685380912e-15
1.31417430294601e-15
1.29190050389809e-15
1.2691327330176e-15
1.24588887616745e-15
1.22216653201669e-15
1.19793609016236e-15
1.17318086627866e-15
1.14790885612345e-15
1.12210451192533e-15
1.09580903948798e-15
1.0690370699523e-15
1.04176157850682e-15
1.01403653477227e-15
9.85939839949033e-16
9.57531701904582e-16
9.288842805976e-16
9.00095870244818e-16
8.71226663656043e-16
8.42386860510474e-16
8.13752442514243e-16
7.85511802885618e-16
7.57821480818126e-16
7.30829969010365e-16
7.04693429988397e-16
6.7959346274052e-16
6.5562783679711e-16
6.32888866456928e-16
6.11456170773351e-16
5.91350565590308e-16
5.72616791167467e-16
5.55206907092436e-16
5.39005223984421e-16
5.23996270356141e-16
5.10100313750606e-16
4.97221836542914e-16
4.85301053524973e-16
4.74374742078888e-16
4.65820173062287e-16
4.91756902247115e-16
1.7796177502102e-15
6.5130315434616e-14
1.34399965064113e-11
4.56811370974724e-10
1.91518081200098e-09
2.59383661964541e-09
2.33981814522024e-09
1.84719268092264e-09
1.43678869758252e-09
1.16699674565494e-09
1.00454894136211e-09
9.11746925684583e-10
8.61016251730491e-10
8.34717873230472e-10
8.23855445272677e-10
8.23648153853963e-10
8.28607810404683e-10
8.33877379939668e-10
8.40596087798341e-10
8.47551910049353e-10
8.53920105606254e-10
8.59153459821276e-10
8.62836103885542e-10
8.64920446721848e-10
8.65225117309701e-10
8.63668474831319e-10
8.60015794034207e-10
8.53986910275459e-10
8.46298868712846e-10
8.37066607937074e-10
8.26419441767131e-10
8.14496516682748e-10
8.01442383738437e-10
7.87402214482219e-10
7.72517910440792e-10
7.5692612859193e-10
7.40756921628907e-10
7.24132831701382e-10
7.07168597635459e-10
6.89970671796635e-10
6.72637091501079e-10
6.55257228024898e-10
6.37911621388803e-10
6.20672037640036e-10
6.03601414688222e-10
5.86754312100201e-10
5.7017682777278e-10
5.53908603025411e-10
5.37974316995581e-10
5.22394393186139e-10
5.07193649392572e-10
4.92391383308265e-10
4.78002536742741e-10
4.64037611166883e-10
4.50503188559094e-10
4.37402341875579e-10
4.24735080630399e-10
4.124987432154e-10
4.00688373382243e-10
3.89297142526537e-10
3.78316502334141e-10
3.67737688404817e-10
3.57549593108393e-10
3.47738358288482e-10
3.38290875204759e-10
3.29195610800034e-10
3.20440059495958e-10
3.12011243412162e-10
3.03896257294753e-10
2.96082387354635e-10
2.88557213785313e-10
2.81308766789705e-10
2.74325650477802e-10
2.6759691990708e-10
2.61111950102007e-10
2.54860115874131e-10
2.48830437349525e-10
2.4300534090275e-10
2.37368989817198e-10
2.31913465214364e-10
2.26631528813289e-10
2.21516845713528e-10
2.16563554717019e-10
2.11766289926332e-10
2.07120175109558e-10
2.02620854707496e-10
1.98264486086647e-10
1.94047807751516e-10
1.89965993774278e-10
1.85679543528327e-10
1.81502731482714e-10
1.77417317437858e-10
1.73426917597727e-10
1.69538746918588e-10
1.65760646755228e-10
1.62066377080476e-10
1.57844588832434e-10
1.53701538692201e-10
1.49660594274074e-10
1.45665101586171e-10
1.40742450697596e-10
1.35959950981809e-10
1.30490007502295e-10
1.24379075022213e-10
1.16778721071604e-10
1.07244476512915e-10
9.40198238962085e-11
)
;

boundaryField
{
    electrode
    {
        type            zeroGradient;
    }
    ground
    {
        type            zeroGradient;
    }
    otherfaces
    {
        type            empty;
    }
}


// ************************************************************************* //
