/*--------------------------------*- C++ -*----------------------------------*\
| =========                 |                                                 |
| \\      /  F ield         | foam-extend: Open Source CFD                    |
|  \\    /   O peration     | Version:     4.0                                |
|   \\  /    A nd           | Web:         http://www.foam-extend.org         |
|    \\/     M anipulation  |                                                 |
\*---------------------------------------------------------------------------*/
FoamFile
{
    version     2.0;
    format      ascii;
    class       volScalarField;
    location    "8e-07";
    object      Te;
}
// * * * * * * * * * * * * * * * * * * * * * * * * * * * * * * * * * * * * * //

dimensions      [0 0 0 1 0 0 0];

internalField   nonuniform List<scalar> 
300
(
25915.5088590077
25915.5831821281
25915.5756998385
25915.4871946154
25915.371157815
25915.2270399379
25915.0539758068
25914.8518774722
25914.6206510794
25914.3603014163
25914.0707209884
25913.7518252391
25913.4035408449
25913.0257799887
25912.6184514969
25912.1814621096
25911.7147149971
25911.2181100441
25910.6915441959
25910.1349116066
25909.5481038359
25908.931009867
25908.2835163357
25907.6055076502
25906.8968658928
25906.1574711189
25905.3872013287
25904.5859323294
25903.7535379907
25902.8898901955
25901.9948586027
25901.0683108811
25900.1101126285
25899.1201271235
25898.0982154897
25897.0442365808
25895.958046824
25894.8395002442
25893.6884484062
25892.5047402913
25891.2882222639
25890.0387380601
25888.7561286767
25887.4402323597
25886.0908845909
25884.7079180114
25883.2911624758
25881.8404449371
25880.3555895507
25878.8364176154
25877.2827475058
25875.6943948355
25874.0711722387
25872.4128894842
25870.7193533543
25868.9903675129
25867.2257325486
25865.4252424998
25863.5888241055
25861.7161618451
25859.8068536007
25857.8608401755
25855.878014887
25853.8581757505
25851.8011160414
25849.7066237256
25847.5744831242
25845.4044760511
25843.1963825941
25840.9499813936
25838.6650503756
25836.3413667534
25833.9787069868
25831.5768472101
25829.1355627214
25826.6546282085
25824.1338175154
25821.5729034613
25818.9716582008
25816.3298522614
25813.6472553207
25810.9236358134
25808.1587603824
25805.3523946212
25802.504302348
25799.6142455564
25796.6819845145
25793.7072776044
25790.6898806294
25787.6295471681
25784.5260284407
25781.3790720596
25778.1884228609
25774.953822072
25771.6750065549
25768.3517090749
25764.983657286
25761.5705733073
25758.1121734009
25754.6081667818
25751.0582552754
25747.4621327431
25743.819483273
25740.1299812798
25736.3932900156
25732.6090599179
25728.7769283904
25724.8965175086
25720.9674328816
25716.989262295
25712.9615732979
25708.8839119798
25704.7558006027
25700.5767350707
25696.346183252
25692.0635818262
25687.7283335866
25683.3398046278
25678.8973211208
25674.4001658785
25669.8475742863
25665.2387312044
25660.5727662612
25655.8487490558
25651.0656852739
25646.2225111982
25641.318087951
25636.3511965076
25631.3205313521
25626.2246936645
25621.0621853444
25615.8314011121
25610.5306207863
25605.1580021763
25599.7115715701
25594.189214623
25588.5886676317
25582.9075071099
25577.1431384839
25571.2927852945
25565.3534780065
25559.3220400959
25553.1950753138
25546.9689550541
25540.6398013521
25534.203473231
25527.655551704
25520.991319269
25514.2057467801
25507.2934752587
25500.248793749
25493.0656263311
25485.737511904
25478.257585631
25470.6185650682
25462.8127334181
25454.8319295612
25446.6675278399
25438.3104698309
25429.7512542427
25420.9798267132
25411.9857391447
25402.7583279077
25393.2867662827
25383.5596705123
25373.5623624248
25363.2829179682
25352.7316538594
25341.8873895463
25330.7357282534
25319.4711121287
25308.2765396291
25297.0257060179
25285.3816353517
25273.257080794
25260.8011444827
25247.2339758488
25231.6927442014
25213.7444700388
25192.2583414135
25166.6733075275
25136.6785883388
25102.0554504212
25064.4892090747
25028.3083200187
25001.6058752093
24997.5378595593
25038.0603509612
25158.3093984366
25412.4758934216
25893.3344464726
26741.8150051948
28184.9355789855
30662.7277428354
34888.5056024883
42242.4985059717
55669.3105332457
78563.5509372426
109609.458065197
151744.69924735
207078.989241175
272678.361138552
341902.046540551
408597.421470097
469231.496845547
522477.85865635
568407.163049087
607720.386246788
641421.592964603
670581.453494144
696000.829801931
718316.744602047
738094.628803236
755792.959848654
771791.905985206
786393.722959842
799822.183983355
812273.358823901
823909.057348245
834857.776309176
845235.307514291
855131.109582399
864619.065108292
873759.31659374
882601.142838847
891184.809840135
899542.771011705
907700.583477387
915678.021770807
923489.850613641
931146.382025485
938654.143447768
946016.200855412
953232.61830592
960300.752815378
967215.490260411
973969.587481645
980553.736131119
986957.007129317
993166.401095181
999170.293430296
1004949.82495004
1010485.095627
1015762.39777639
1020763.82203857
1025471.07776272
1029865.05626951
1033926.18581627
1037634.49995618
1040969.77235833
1043911.60473035
1046439.48344115
1048532.97907257
1050171.1558486
1051334.54890029
1051993.06401561
1052142.38675511
1051760.29165954
1050823.82732688
1049313.36312326
1047209.43222165
1044492.9431209
1041144.94255247
1037146.5374679
1032478.90371506
1027123.38553303
1021061.3407534
1014274.17722386
1006743.25019166
998453.499101992
989382.867708016
979509.422568984
968817.771364441
957286.640451542
944894.193245712
931617.163144411
917431.019993653
902309.727790194
886225.584657507
869148.893717439
851048.29074498
831889.064676274
811644.93000647
790273.333006327
767725.01928088
743958.315926989
718912.926618898
692519.914424565
664719.151740801
635428.782580999
604546.662378415
571969.242148386
537562.4266094
501153.723002569
462541.013487907
421460.557678501
377530.616269834
330250.083909005
278883.791236156
222432.498609332
)
;

boundaryField
{
    electrode
    {
        type            electronTemperature;
        seec            0.05;
        Tse             1000;
        Edepend         1;
        TFN             1000;
        field_emission  0;
        field_enhancement_factor 55;
        work_function   5;
        value           uniform 25915.5088590077;
    }
    ground
    {
        type            electronTemperature;
        seec            0.05;
        Tse             1000;
        Edepend         1;
        TFN             1000;
        field_emission  0;
        field_enhancement_factor 55;
        work_function   5;
        value           uniform 190563.127546784;
    }
    otherfaces
    {
        type            empty;
    }
}


// ************************************************************************* //
