/*--------------------------------*- C++ -*----------------------------------*\
| =========                 |                                                 |
| \\      /  F ield         | foam-extend: Open Source CFD                    |
|  \\    /   O peration     | Version:     4.0                                |
|   \\  /    A nd           | Web:         http://www.foam-extend.org         |
|    \\/     M anipulation  |                                                 |
\*---------------------------------------------------------------------------*/
FoamFile
{
    version     2.0;
    format      ascii;
    class       volScalarField;
    location    "8e-07";
    object      TeMean;
}
// * * * * * * * * * * * * * * * * * * * * * * * * * * * * * * * * * * * * * //

dimensions      [0 0 0 1 0 0 0];

internalField   nonuniform List<scalar> 
300
(
36067.4515448335
36068.1020653912
36068.0311376997
36067.3222716198
36066.413337878
36065.2496941529
36063.8474634461
36062.2196954721
36060.3697292555
36058.3024151063
36056.0222429337
36053.5335560335
36050.8405304449
36047.947074608
36044.8569476573
36041.573745683
36038.100893103
36034.4416799725
36030.5992580675
36026.5766392524
36022.3767174274
36018.002251454
36013.4558840613
36008.7401356967
36003.8574010787
35998.8100368017
35993.6003026637
35988.2303402104
35982.7022411273
35977.0179539383
35971.1792733565
35965.1880359477
35959.046100143
35952.7551890958
35946.3169349647
35939.7328463693
35933.0043720797
35926.1329713437
35919.1200438114
35911.966893212
35904.6747433097
35897.2448284091
35889.6783272675
35881.9763396883
35874.1399138404
35866.1700434509
35858.0676633594
35849.8336411871
35841.4687506509
35832.9736703959
35824.3489855088
35815.5953044364
35806.7133245604
35797.7036844343
35788.5670012231
35779.3039175466
35769.9149741777
35760.4006248517
35750.7613384001
35740.997546698
35731.1096309435
35721.0979931824
35710.962861513
35700.7043710539
35690.3228452782
35679.8186757658
35669.1921718956
35658.4435753826
35647.5730887941
35636.580912682
35625.4671786004
35614.2318771493
35602.8750639054
35591.3968276251
35579.7971171055
35568.075758913
35556.2326780693
35544.2679560075
35532.1815211905
35519.9731950336
35507.6429636417
35495.1908123785
35482.6165481854
35469.9198565033
35457.1003760216
35444.1578768297
35431.0922215881
35417.9031404618
35404.5902452182
35391.1531813149
35377.5914477474
35363.9044851636
35350.0920572382
35336.1537571841
35322.0890353662
35307.8974685737
35293.5785225851
35279.13163107
35264.5561466267
35249.8514045891
35235.0168367596
35220.0516024875
35204.9547902527
35189.7257153082
35174.3636013995
35158.8675641219
35143.2366268378
35127.4697747986
35111.5660398574
35095.5243750843
35079.3436753463
35063.0227529277
35046.5602834218
35029.9550364367
35013.2056213007
34996.3104534915
34979.2678243453
34962.0761053451
34944.7337433303
34927.2387605722
34909.5890108838
34891.78232571
34873.816357054
34855.6887526439
34837.3971963158
34818.9390678121
34800.3113657658
34781.5110469825
34762.5349794981
34743.3796115249
34724.0411017235
34704.5154849004
34684.7985958548
34664.8855999967
34644.7711995231
34624.4502548948
34603.9172620786
34583.1659713266
34562.1897685003
34540.9817563713
34519.534475818
34497.8397238268
34475.8885161162
34453.6710325254
34431.1768331401
34408.3949573842
34385.3136445923
34361.9202706376
34338.2006589163
34314.1392845209
34289.719952472
34264.9248390853
34239.7344734136
34214.1282127002
34188.0832265151
34161.5744957238
34134.5750457079
34107.0558723436
34078.9856598263
34050.3302184269
34021.0537572331
33991.1190624227
33960.4875869881
33929.124983901
33897.008753897
33864.1212147569
33830.4284016182
33795.8744046447
33760.3855307512
33723.8765906554
33686.2118294167
33647.1144643154
33606.1803952663
33562.9364097951
33516.8056846785
33466.911461928
33412.0730601703
33351.0808431599
33282.5610314793
33205.0937698214
33117.55110809
33019.2716312818
32910.7543776821
32794.2176485238
32674.5319626199
32560.4347997677
32465.9707532983
32413.1330130598
32435.0687067528
32581.9185882387
32931.5507216045
33606.771788338
34811.4352891466
36918.5472046936
40513.5657894321
46538.3989225568
56984.1879555914
74497.724025127
102161.014823132
142063.237644391
196444.061426924
264093.932335494
340942.30389403
419781.687777446
494041.054332566
559819.158960277
616068.54770911
663362.967251958
702956.193487372
736255.51773259
764454.35177282
788503.18903923
809164.573262472
827070.974322446
842726.00071223
856532.744008336
868812.409230594
879822.305945924
889769.431668179
898813.016960343
907079.609110113
914683.280101662
921719.661032272
928263.068928172
934374.383666618
940103.24694032
945490.090968885
950567.705349898
955362.479171425
959895.260691802
964182.228849709
968235.621537071
972064.323188657
975673.750881385
979066.589780519
982243.622188365
985203.527787281
987943.243680106
990458.138485251
992742.26665094
994788.411261624
996588.330868024
998133.179519716
999413.345364626
1000418.51214776
1001137.82681238
1001559.99140678
1001673.35103213
1001466.01159429
1000925.87838766
1000040.67540094
998798.090623072
997185.742985354
995191.261225544
992802.225235529
990006.504369215
986792.558161269
983147.37428191
979058.732725213
974514.436665773
969502.355137136
964010.330123645
958026.21159111
951537.723203614
944532.578208564
936998.30200019
928922.225218719
920291.425283048
911092.781128084
901312.455486817
890935.993084352
879948.702168409
868335.106056468
856078.579452354
843161.595227654
829565.445273903
815270.294807747
800254.923351487
784496.829058846
767971.8497712
750653.755566474
732514.338885661
713522.184082027
693641.356063006
672832.563730243
651052.364147707
628251.379366607
604374.911235417
579360.749569019
553135.343672741
525614.075584893
496698.230594511
466266.543235891
434172.169859931
400231.660032998
364207.410574891
325760.20189566
284445.921710045
239629.596481042
190426.484148805
)
;

boundaryField
{
    electrode
    {
        type            calculated;
        value           uniform 36067.4515448488;
    }
    ground
    {
        type            calculated;
        value           uniform 162668.797858845;
    }
    otherfaces
    {
        type            empty;
    }
}


// ************************************************************************* //
