/*--------------------------------*- C++ -*----------------------------------*\
| =========                 |                                                 |
| \\      /  F ield         | foam-extend: Open Source CFD                    |
|  \\    /   O peration     | Version:     4.0                                |
|   \\  /    A nd           | Web:         http://www.foam-extend.org         |
|    \\/     M anipulation  |                                                 |
\*---------------------------------------------------------------------------*/
FoamFile
{
    version     2.0;
    format      ascii;
    class       volScalarField;
    location    "3.3e-06";
    object      Ar;
}
// * * * * * * * * * * * * * * * * * * * * * * * * * * * * * * * * * * * * * //

dimensions      [0 0 0 1 0 0 0];

internalField   nonuniform List<scalar> 
300
(
3.21880358429649e+22
3.21880358061876e+22
3.21880358308393e+22
3.21880358434338e+22
3.21880358624399e+22
3.21880358888748e+22
3.21880359211926e+22
3.21880359597777e+22
3.21880360045944e+22
3.21880360555834e+22
3.21880361127302e+22
3.21880361760113e+22
3.21880362454036e+22
3.21880363208859e+22
3.21880364024366e+22
3.21880364900345e+22
3.21880365836612e+22
3.21880366832937e+22
3.21880367889086e+22
3.21880369004834e+22
3.21880370179957e+22
3.21880371414222e+22
3.21880372707396e+22
3.21880374059241e+22
3.21880375469678e+22
3.21880376938336e+22
3.21880378464983e+22
3.21880380049398e+22
3.21880381691245e+22
3.21880383390268e+22
3.21880385146401e+22
3.21880386959322e+22
3.21880388828641e+22
3.21880390754099e+22
3.21880392735436e+22
3.218803947724e+22
3.21880396864788e+22
3.21880399012332e+22
3.21880401214768e+22
3.21880403471867e+22
3.21880405783409e+22
3.2188040814916e+22
3.21880410568909e+22
3.21880413042451e+22
3.21880415569596e+22
3.21880418150162e+22
3.21880420784001e+22
3.21880423470973e+22
3.21880426211039e+22
3.21880429004111e+22
3.21880431850227e+22
3.21880434749187e+22
3.21880437700984e+22
3.218804407054e+22
3.21880443762327e+22
3.21880446871593e+22
3.21880450033176e+22
3.21880453247077e+22
3.21880456513321e+22
3.21880459831978e+22
3.21880463203098e+22
3.21880466626778e+22
3.21880470103194e+22
3.21880473632692e+22
3.21880477215424e+22
3.21880480851353e+22
3.21880484540704e+22
3.21880488283733e+22
3.21880492080724e+22
3.21880495931996e+22
3.21880499837919e+22
3.21880503798957e+22
3.21880507815547e+22
3.21880511888071e+22
3.21880516017151e+22
3.21880520203296e+22
3.21880524446996e+22
3.21880528748879e+22
3.21880533109367e+22
3.2188053752942e+22
3.21880542009382e+22
3.21880546549956e+22
3.21880551151934e+22
3.21880555816086e+22
3.21880560543391e+22
3.21880565334636e+22
3.21880570190604e+22
3.21880575112225e+22
3.21880580100589e+22
3.21880585156621e+22
3.21880590281417e+22
3.21880595476501e+22
3.21880600742421e+22
3.21880606080298e+22
3.21880611491297e+22
3.21880616976618e+22
3.2188062253749e+22
3.21880628175173e+22
3.21880633891062e+22
3.21880639686468e+22
3.21880645562666e+22
3.21880651521001e+22
3.21880657563177e+22
3.21880663690302e+22
3.21880669903894e+22
3.21880676205487e+22
3.21880682596386e+22
3.21880689078258e+22
3.2188069565248e+22
3.21880702320488e+22
3.218807090838e+22
3.21880715943941e+22
3.21880722902494e+22
3.21880729960985e+22
3.21880737120937e+22
3.21880744384023e+22
3.21880751751918e+22
3.21880759225849e+22
3.21880766807265e+22
3.21880774497687e+22
3.21880782298801e+22
3.21880790211869e+22
3.21880798238547e+22
3.21880806380063e+22
3.218808146376e+22
3.21880823012438e+22
3.21880831506069e+22
3.21880840119485e+22
3.21880848853908e+22
3.21880857710415e+22
3.21880866690159e+22
3.21880875794111e+22
3.21880885023183e+22
3.21880894378425e+22
3.21880903860911e+22
3.2188091347108e+22
3.21880923209428e+22
3.21880933076651e+22
3.21880943073281e+22
3.21880953199465e+22
3.21880963455489e+22
3.2188097384153e+22
3.21880984357792e+22
3.21880995004346e+22
3.21881005781049e+22
3.21881016687157e+22
3.21881027722115e+22
3.21881038885208e+22
3.21881050175671e+22
3.21881061592719e+22
3.21881073134728e+22
3.21881084800195e+22
3.21881096587721e+22
3.21881108494966e+22
3.21881120519452e+22
3.21881132658637e+22
3.21881144908969e+22
3.21881157267581e+22
3.21881169730811e+22
3.21881182281337e+22
3.21881194963439e+22
3.21881207640387e+22
3.2188122031894e+22
3.21881233139377e+22
3.21881246050248e+22
3.21881259009663e+22
3.21881271996221e+22
3.21881284980844e+22
3.21881297891718e+22
3.21881310839788e+22
3.21881323822302e+22
3.21881336848449e+22
3.21881349530837e+22
3.21881362083067e+22
3.21881374834339e+22
3.21881386963231e+22
3.2188139870884e+22
3.21881410604251e+22
3.21881421521937e+22
3.2188143196721e+22
3.2188144215294e+22
3.21881451352623e+22
3.2188145969277e+22
3.21881467821654e+22
3.21881474732148e+22
3.21881480798544e+22
3.2188148638676e+22
3.21881491330772e+22
3.21881495267106e+22
3.21881498644711e+22
3.21881501609498e+22
3.21881504302473e+22
3.21881506230298e+22
3.21881507879473e+22
3.21881508545251e+22
3.21881508795841e+22
3.21881508561686e+22
3.21881508362756e+22
3.21881508274796e+22
3.21881508256044e+22
3.21881508463432e+22
3.21881508838449e+22
3.21881509322973e+22
3.21881509980485e+22
3.21881510594071e+22
3.21881511167445e+22
3.21881511682363e+22
3.21881512152913e+22
3.21881512559137e+22
3.21881512928447e+22
3.2188151324367e+22
3.21881513637531e+22
3.21881514080236e+22
3.21881514499344e+22
3.2188151487246e+22
3.21881515229283e+22
3.21881515547378e+22
3.21881515854335e+22
3.21881516127124e+22
3.21881516391965e+22
3.21881516624537e+22
3.21881516851505e+22
3.2188151704791e+22
3.21881517242865e+22
3.218815174787e+22
3.21881517779107e+22
3.21881518051425e+22
3.21881518325796e+22
3.21881518573409e+22
3.21881518824991e+22
3.21881519050481e+22
3.21881519281396e+22
3.21881519486961e+22
3.21881519698608e+22
3.21881519885313e+22
3.21881520079517e+22
3.21881520247949e+22
3.21881520425875e+22
3.21881520577057e+22
3.21881520739341e+22
3.21881520874376e+22
3.21881521021684e+22
3.21881521172954e+22
3.21881521395866e+22
3.21881521591648e+22
3.21881521801528e+22
3.21881521984244e+22
3.21881522182226e+22
3.21881522352504e+22
3.21881522539487e+22
3.21881522698005e+22
3.2188152287441e+22
3.21881523021792e+22
3.21881523188308e+22
3.21881523325146e+22
3.21881523482233e+22
3.21881523609341e+22
3.21881523757675e+22
3.21881523875584e+22
3.21881524015679e+22
3.21881524124755e+22
3.21881524257124e+22
3.21881524357771e+22
3.21881524482842e+22
3.21881524575518e+22
3.21881524693537e+22
3.21881524778319e+22
3.21881524889579e+22
3.21881525019451e+22
3.21881525182082e+22
3.21881525310035e+22
3.2188152546585e+22
3.21881525586095e+22
3.21881525735697e+22
3.21881525848842e+22
3.21881525992954e+22
3.21881526099813e+22
3.21881526238906e+22
3.21881526339752e+22
3.21881526473908e+22
3.21881526568914e+22
3.21881526698582e+22
3.21881526788973e+22
3.21881526915125e+22
3.21881527000057e+22
3.21881527121546e+22
3.21881527200883e+22
3.21881527317658e+22
3.21881527391438e+22
3.21881527505611e+22
3.21881527576608e+22
3.21881527687371e+22
3.21881527753687e+22
3.21881527863617e+22
3.21881527929029e+22
3.21881528037627e+22
3.21881528103221e+22
3.21881528214434e+22
3.21881528283069e+22
3.21881528423898e+22
)
;

boundaryField
{
    electrode
    {
        type            zeroGradient;
    }
    ground
    {
        type            zeroGradient;
    }
    otherfaces
    {
        type            empty;
    }
}


// ************************************************************************* //
