/*--------------------------------*- C++ -*----------------------------------*\
| =========                 |                                                 |
| \\      /  F ield         | foam-extend: Open Source CFD                    |
|  \\    /   O peration     | Version:     4.0                                |
|   \\  /    A nd           | Web:         http://www.foam-extend.org         |
|    \\/     M anipulation  |                                                 |
\*---------------------------------------------------------------------------*/
FoamFile
{
    version     2.0;
    format      ascii;
    class       volScalarField;
    location    "3.3e-06";
    object      Arm;
}
// * * * * * * * * * * * * * * * * * * * * * * * * * * * * * * * * * * * * * //

dimensions      [0 0 0 1 0 0 0];

internalField   nonuniform List<scalar> 
300
(
3.57414773190605e+15
3.5760260050595e+15
3.57797520392518e+15
3.57928109369864e+15
3.58009728552035e+15
3.58047578238101e+15
3.58046079470389e+15
3.58008375597416e+15
3.57937032316691e+15
3.57834248236577e+15
3.57701600427133e+15
3.57540497528862e+15
3.57352144826542e+15
3.57137602562482e+15
3.56897816424004e+15
3.56633641129898e+15
3.56345558389364e+15
3.5603442720831e+15
3.55701081874009e+15
3.5534617020644e+15
3.54970312351936e+15
3.54574100480587e+15
3.5415810359507e+15
3.5372286774791e+15
3.532673217027e+15
3.52793242741378e+15
3.52301000176023e+15
3.51790794444029e+15
3.51263986499286e+15
3.50721065287971e+15
3.50160651274831e+15
3.49583883435024e+15
3.48992574065328e+15
3.48387260444944e+15
3.47768451199937e+15
3.47136626850206e+15
3.46491803868075e+15
3.4583463436209e+15
3.45165825578407e+15
3.44485730767148e+15
3.4379470014634e+15
3.43093261605533e+15
3.42381803135067e+15
3.41660693896285e+15
3.4093028391299e+15
3.40190899731917e+15
3.39442635581721e+15
3.38685637102504e+15
3.379191266447e+15
3.37142964675626e+15
3.3635588780878e+15
3.35559150192008e+15
3.34752209030361e+15
3.3393683899949e+15
3.3311385193472e+15
3.3228488673827e+15
3.31450272431759e+15
3.30610300630275e+15
3.29765228692909e+15
3.28915097903887e+15
3.28060340326485e+15
3.27201167350022e+15
3.26337245255594e+15
3.25466774608675e+15
3.2459015326683e+15
3.23709943697487e+15
3.22826353245221e+15
3.21939565884964e+15
3.21049740198576e+15
3.2015701231196e+15
3.19261298025753e+15
3.18361881179643e+15
3.17458607791994e+15
3.16552225072329e+15
3.15641375644581e+15
3.1472616620054e+15
3.13807232480954e+15
3.12884158425003e+15
3.11958948612125e+15
3.11028536759808e+15
3.10096390210199e+15
3.09162719174147e+15
3.0822721430365e+15
3.07290103644256e+15
3.06349901713678e+15
3.05407384354231e+15
3.04463723494769e+15
3.03518951242955e+15
3.02571873697942e+15
3.01623269272153e+15
3.00672538737414e+15
2.99715164137876e+15
2.98756686538492e+15
2.97797265126402e+15
2.96836902655227e+15
2.95875601758689e+15
2.94913340604314e+15
2.9395007685204e+15
2.92984714969056e+15
2.92017249256186e+15
2.91048307046374e+15
2.90078018843523e+15
2.89103199651568e+15
2.88126781146572e+15
2.87147837934463e+15
2.86165433290475e+15
2.85181074870771e+15
2.84192795504347e+15
2.83201640796725e+15
2.82208156129561e+15
2.81212153868236e+15
2.80213405818148e+15
2.79211136929498e+15
2.78205126477755e+15
2.77195153794346e+15
2.76179452370827e+15
2.75156129472757e+15
2.74127671218654e+15
2.73094163585124e+15
2.72054799446569e+15
2.7100693471831e+15
2.6995187300368e+15
2.68886708067616e+15
2.67812482812752e+15
2.6673034166965e+15
2.65640065673475e+15
2.64538837199718e+15
2.63428406445156e+15
2.62307687280644e+15
2.61176477626403e+15
2.60033210856805e+15
2.58877501140689e+15
2.57708850491216e+15
2.56524649233647e+15
2.55321245022212e+15
2.54100529731401e+15
2.52862896962473e+15
2.51605839219e+15
2.50327468697173e+15
2.49028702305796e+15
2.47707939142731e+15
2.46363515029723e+15
2.44992214044307e+15
2.43590825640755e+15
2.42156885197987e+15
2.4069237986768e+15
2.39195819921398e+15
2.37665570109902e+15
2.3609857707523e+15
2.3448994461406e+15
2.32840924573186e+15
2.31149042157617e+15
2.29408061686802e+15
2.27617871428712e+15
2.2577664703407e+15
2.23879412147826e+15
2.21921838444224e+15
2.19903876286961e+15
2.17823611766083e+15
2.15676545684031e+15
2.13459116396785e+15
2.11169818717197e+15
2.08804820713257e+15
2.0636538361359e+15
2.03850209393136e+15
2.01253830568223e+15
1.98578333915224e+15
1.95828179874252e+15
1.93006262645779e+15
1.90116777920924e+15
1.87166591477913e+15
1.84159027494105e+15
1.81103322446837e+15
1.78016632572465e+15
1.74918356831015e+15
1.71825476987833e+15
1.68755910763128e+15
1.65729556198017e+15
1.62770304469609e+15
1.59893704801999e+15
1.57115184676118e+15
1.54449452346521e+15
1.51904633746368e+15
1.49492217293924e+15
1.47212177779137e+15
1.45055455658439e+15
1.43026008446186e+15
1.41118668926464e+15
1.39324534974621e+15
1.37634674412591e+15
1.36036994309598e+15
1.34528315432922e+15
1.3313209421825e+15
1.32278439037533e+15
1.34386740784766e+15
1.39818758619849e+15
1.45587354530866e+15
1.48229058444778e+15
1.48065944674903e+15
1.46274861192936e+15
1.4371451586292e+15
1.411502922216e+15
1.38977729810849e+15
1.37285224332167e+15
1.3601463731988e+15
1.35068444890885e+15
1.34300237430831e+15
1.33693924224304e+15
1.33197893031015e+15
1.32781187354422e+15
1.32370044729889e+15
1.31946997099703e+15
1.31520107986925e+15
1.31092858927179e+15
1.30660665130861e+15
1.30216517818899e+15
1.297550397171e+15
1.29277599643574e+15
1.28781794828343e+15
1.28267445199643e+15
1.27736341908955e+15
1.27188029404633e+15
1.26623477466902e+15
1.26030559921137e+15
1.25414883195962e+15
1.24791951962022e+15
1.24165038242408e+15
1.23535120589908e+15
1.22904577247038e+15
1.22276248375584e+15
1.2165059860844e+15
1.21029583238106e+15
1.20415553312324e+15
1.1980909368306e+15
1.19211054782035e+15
1.18623876422081e+15
1.18046612980969e+15
1.17481703825353e+15
1.16928441345496e+15
1.16388198171409e+15
1.15861243564171e+15
1.15346942101631e+15
1.14846849673838e+15
1.14359561714338e+15
1.138856441965e+15
1.13426537132974e+15
1.12980694153892e+15
1.12548685481107e+15
1.12130535289573e+15
1.11725194824421e+15
1.11333120588131e+15
1.10953670308602e+15
1.10586340931199e+15
1.10231448147395e+15
1.09888140973052e+15
1.09556175654636e+15
1.09235423222667e+15
1.08924344308513e+15
1.08623848076157e+15
1.08333175439293e+15
1.08052945131849e+15
1.07781939678679e+15
1.07520497827436e+15
1.07267852307533e+15
1.07023842725477e+15
1.0678816283609e+15
1.06560133291138e+15
1.06339539983859e+15
1.06125418771225e+15
1.0591846712754e+15
1.0571801596078e+15
1.05524699214916e+15
1.05337291184589e+15
1.05156447319142e+15
1.04981027685809e+15
1.04810953134112e+15
1.04646109261337e+15
1.04486548509693e+15
1.04332514780717e+15
1.04183408205737e+15
1.04039148277862e+15
1.03897138352042e+15
1.03750263509472e+15
1.0360498841444e+15
1.03463949169675e+15
1.03326179093949e+15
1.0319239501565e+15
1.03062662448994e+15
1.02936051186831e+15
1.02794840941354e+15
1.02652494464876e+15
1.02514001796194e+15
1.0237941878735e+15
1.02222539897837e+15
1.02065569134378e+15
1.01901204682825e+15
1.01715443524271e+15
1.01508939843556e+15
1.01272464575945e+15
1.00986194071193e+15
)
;

boundaryField
{
    electrode
    {
        type            zeroGradient;
    }
    ground
    {
        type            zeroGradient;
    }
    otherfaces
    {
        type            empty;
    }
}


// ************************************************************************* //
