/*--------------------------------*- C++ -*----------------------------------*\
| =========                 |                                                 |
| \\      /  F ield         | foam-extend: Open Source CFD                    |
|  \\    /   O peration     | Version:     4.0                                |
|   \\  /    A nd           | Web:         http://www.foam-extend.org         |
|    \\/     M anipulation  |                                                 |
\*---------------------------------------------------------------------------*/
FoamFile
{
    version     2.0;
    format      ascii;
    class       volScalarField;
    location    "3.3e-06";
    object      Arp1;
}
// * * * * * * * * * * * * * * * * * * * * * * * * * * * * * * * * * * * * * //

dimensions      [0 0 0 1 0 0 0];

internalField   nonuniform List<scalar> 
300
(
5.87765591185177e+16
5.88132072238576e+16
5.87909818512684e+16
5.87844374060384e+16
5.8774900774309e+16
5.87613143788943e+16
5.87451824945575e+16
5.87260850087374e+16
5.87040292217167e+16
5.86790488434407e+16
5.86511384016895e+16
5.86203028936627e+16
5.85865480600632e+16
5.85498792391225e+16
5.85103024286776e+16
5.84678240587437e+16
5.84224509496118e+16
5.83741903192674e+16
5.83230497624279e+16
5.82690372314002e+16
5.82121610168171e+16
5.815242972764e+16
5.80898522693524e+16
5.8024437821465e+16
5.79561958139058e+16
5.78851359025698e+16
5.78112679433e+16
5.77346019654147e+16
5.76551481441584e+16
5.75729167717302e+16
5.74879182275848e+16
5.74001629482451e+16
5.73096613952733e+16
5.72164240228066e+16
5.71204612445662e+16
5.7021783398997e+16
5.69204007144194e+16
5.68163232732186e+16
5.67095609745953e+16
5.66001234973656e+16
5.6488020261614e+16
5.63732603895721e+16
5.62558526659208e+16
5.61358054978654e+16
5.60131268735713e+16
5.58878243213539e+16
5.57599048675854e+16
5.56293749940106e+16
5.54962405952658e+16
5.53605069359565e+16
5.5222178606661e+16
5.50812594807982e+16
5.49377526707702e+16
5.47916604838363e+16
5.4642984378303e+16
5.44917249198624e+16
5.4337881737334e+16
5.4181453479525e+16
5.40224377716303e+16
5.38608311723008e+16
5.36966291309651e+16
5.35298259461418e+16
5.33604147234386e+16
5.31883873351268e+16
5.30137343802978e+16
5.28364451451995e+16
5.26565075656252e+16
5.24739081898662e+16
5.22886321424143e+16
5.21006630897334e+16
5.19099832072302e+16
5.17165731472149e+16
5.15204120089466e+16
5.13214773109013e+16
5.11197449632783e+16
5.09151892445109e+16
5.0707782778523e+16
5.04974965143428e+16
5.02842997085737e+16
5.00681599100818e+16
4.98490429469878e+16
4.96269129166552e+16
4.94017321787844e+16
4.91734613507426e+16
4.89420593066047e+16
4.87074831794527e+16
4.84696883664687e+16
4.82286285380237e+16
4.79842556503739e+16
4.77365199616752e+16
4.74853700522858e+16
4.72307528489838e+16
4.69726136532281e+16
4.67108961734439e+16
4.64455425623285e+16
4.61764934579146e+16
4.59036880294501e+16
4.56270640287088e+16
4.53465578446101e+16
4.50621045642744e+16
4.47736380385144e+16
4.44810909521709e+16
4.41843948999591e+16
4.38834804680686e+16
4.35782773204203e+16
4.32687142907102e+16
4.29547194803393e+16
4.26362203617885e+16
4.23131438872481e+16
4.19854166039625e+16
4.16529647748164e+16
4.13157145046866e+16
4.09735918733858e+16
4.06265230742924e+16
4.02744345585826e+16
3.99172531867979e+16
3.95549063853533e+16
3.91873223099806e+16
3.88144300155751e+16
3.84361596319559e+16
3.80524425465841e+16
3.76632115939751e+16
3.72684012512491e+16
3.68679478414469e+16
3.64617897438312e+16
3.6049867611153e+16
3.56321245953759e+16
3.52085065818279e+16
3.47789624313722e+16
3.434344423288e+16
3.39019075661828e+16
3.34543117757815e+16
3.30006202580086e+16
3.25408007624701e+16
3.20748257095223e+16
3.16026725270603e+16
3.11243240088535e+16
3.06397686982413e+16
3.01490013021084e+16
2.96520231403332e+16
2.91488426370423e+16
2.86394758627609e+16
2.81239471376118e+16
2.76022897067167e+16
2.7074546504879e+16
2.65407710289231e+16
2.60010283399256e+16
2.54553962259774e+16
2.49039665592331e+16
2.43468468862467e+16
2.37841623556253e+16
2.32160578738186e+16
2.26427006489476e+16
2.20642852673302e+16
2.14810314770984e+16
2.08931914444774e+16
2.03011057207175e+16
1.97049979232826e+16
1.91051833387355e+16
1.85033838963313e+16
1.78951790251877e+16
1.72942897888999e+16
1.67003041715377e+16
1.60995487002986e+16
1.5497467073865e+16
1.48984654065545e+16
1.43047759810594e+16
1.37193590586183e+16
1.314944858442e+16
1.25838548601146e+16
1.20223380006043e+16
1.1462901152388e+16
1.09426081564887e+16
1.04378711238863e+16
9.91265319603351e+15
9.44499616214741e+15
9.0062062465462e+15
8.53733108285674e+15
8.14462013725027e+15
7.77085685793292e+15
7.38797392331389e+15
7.06205975797835e+15
6.77483815709473e+15
6.45699850520525e+15
6.2063428214142e+15
5.98445697352497e+15
5.75547927128855e+15
5.5384700147799e+15
5.37387553903312e+15
5.22203739193668e+15
5.07397528948185e+15
4.92142220800874e+15
4.81913079029757e+15
4.71944733848685e+15
4.67353141466938e+15
4.62591015173563e+15
4.61514616701714e+15
4.62545895701912e+15
4.64814384023218e+15
4.67645403794939e+15
4.68682335038835e+15
4.67827341890364e+15
4.65344670395354e+15
4.60569799936829e+15
4.55766344290489e+15
4.51015084318082e+15
4.46655882292837e+15
4.425699463676e+15
4.39011842064507e+15
4.35740367638893e+15
4.33002226594037e+15
4.29488352431584e+15
4.25489118749054e+15
4.21725801267979e+15
4.184271263228e+15
4.15303256682574e+15
4.12584031426868e+15
4.09992250381938e+15
4.07760643894507e+15
4.05627220455844e+15
4.03833433415073e+15
4.02113073252894e+15
4.00714782519427e+15
3.99359541887729e+15
3.97618436912408e+15
3.95239016231142e+15
3.93144625700009e+15
3.91032828610514e+15
3.89189345175137e+15
3.87304068764383e+15
3.85677102620222e+15
3.83991317272331e+15
3.82552102667975e+15
3.81044525892368e+15
3.79777982256128e+15
3.78425593635826e+15
3.7732101589609e+15
3.76109124806466e+15
3.75153025346439e+15
3.74072846849477e+15
3.73251845152918e+15
3.72295427478561e+15
3.71285132036728e+15
3.69545568833628e+15
3.68063886277333e+15
3.66426363355793e+15
3.65047149808582e+15
3.6350139592392e+15
3.62218759982082e+15
3.6075621162801e+15
3.59564984530959e+15
3.58182212426409e+15
3.57077490612629e+15
3.55768930799794e+15
3.54745504572551e+15
3.53508202437614e+15
3.52559419040896e+15
3.51388644918253e+15
3.50511481583485e+15
3.49402592314015e+15
3.48593397055297e+15
3.47542001852302e+15
3.46798218090434e+15
3.45801353517043e+15
3.45119766203587e+15
3.44176368603954e+15
3.43557650825064e+15
3.42666686834294e+15
3.4158309401309e+15
3.40164703172636e+15
3.39086560918658e+15
3.37722629866673e+15
3.36708460449962e+15
3.35394131663683e+15
3.34438917419916e+15
3.33168661109713e+15
3.32265676798221e+15
3.31035039730227e+15
3.30181327408101e+15
3.28989554780965e+15
3.28184415435277e+15
3.27030388230477e+15
3.26273970529469e+15
3.25158322389955e+15
3.24450623163553e+15
3.23374064988754e+15
3.22715015277e+15
3.21677527821737e+15
3.21066841870693e+15
3.20066805150034e+15
3.19499646592503e+15
3.18530958938018e+15
3.18002802296662e+15
3.17060783973904e+15
3.16564000964861e+15
3.15642723499075e+15
3.15172835209536e+15
3.14267422923445e+15
3.13817633746609e+15
3.12695488825893e+15
)
;

boundaryField
{
    electrode
    {
        type            driftDiffusionPositiveIonDensity;
        seec            0;
        fieldName       Arp1;
        value           uniform 5.86247582818075e+16;
    }
    ground
    {
        type            driftDiffusionPositiveIonDensity;
        seec            0;
        fieldName       Arp1;
        value           uniform 3.12695488825893e+15;
    }
    otherfaces
    {
        type            empty;
    }
}


// ************************************************************************* //
