/*--------------------------------*- C++ -*----------------------------------*\
| =========                 |                                                 |
| \\      /  F ield         | foam-extend: Open Source CFD                    |
|  \\    /   O peration     | Version:     4.0                                |
|   \\  /    A nd           | Web:         http://www.foam-extend.org         |
|    \\/     M anipulation  |                                                 |
\*---------------------------------------------------------------------------*/
FoamFile
{
    version     2.0;
    format      ascii;
    class       volScalarField;
    location    "3.3e-06";
    object      electron;
}
// * * * * * * * * * * * * * * * * * * * * * * * * * * * * * * * * * * * * * //

dimensions      [0 0 0 1 0 0 0];

internalField   nonuniform List<scalar> 
300
(
5.87856821118683e+16
5.87839330924356e+16
5.87795575566951e+16
5.8772201695585e+16
5.87619161278824e+16
5.87486892112506e+16
5.87325184956724e+16
5.87134080600641e+16
5.86913607509582e+16
5.86663801447675e+16
5.86384704028742e+16
5.860763611411e+16
5.85738823320584e+16
5.85372145594344e+16
5.84976387320203e+16
5.84551612057445e+16
5.84097887414821e+16
5.83615284887677e+16
5.83103879685132e+16
5.82563750546229e+16
5.81994979545298e+16
5.81397651886614e+16
5.80771855688435e+16
5.80117681756479e+16
5.79435223346808e+16
5.78724575918369e+16
5.7798583687523e+16
5.77219105298542e+16
5.7642448166844e+16
5.75602067575986e+16
5.74751965425325e+16
5.73874278126189e+16
5.72969108776923e+16
5.72036560338242e+16
5.71076735297905e+16
5.70089735326589e+16
5.69075660925153e+16
5.68034611063596e+16
5.66966682811982e+16
5.65871970963627e+16
5.64750567650897e+16
5.63602561953978e+16
5.62428039502926e+16
5.6122708207345e+16
5.59999767176852e+16
5.58746167644478e+16
5.57466351207253e+16
5.56160380070752e+16
5.54828310486241e+16
5.53470192318343e+16
5.52086068609818e+16
5.50675975144014e+16
5.49239940005747e+16
5.47777983141108e+16
5.46290115916891e+16
5.44776340680341e+16
5.43236650320009e+16
5.4167102782835e+16
5.40079445866878e+16
5.38461866334692e+16
5.36818239941151e+16
5.35148505783615e+16
5.33452590931059e+16
5.3173041001448e+16
5.29981864824999e+16
5.28206843920683e+16
5.26405222242929e+16
5.24576860743512e+16
5.22721606023265e+16
5.20839289983393e+16
5.18929729490594e+16
5.16992726056981e+16
5.15028065535862e+16
5.13035517834552e+16
5.11014836645368e+16
5.08965759195934e+16
5.0688800601989e+16
5.04781280749266e+16
5.02645269929691e+16
5.00479642859579e+16
4.98284051454536e+16
4.96058130138172e+16
4.93801495760537e+16
4.91513747545413e+16
4.89194467067617e+16
4.86843218261568e+16
4.84459547462295e+16
4.82042983480047e+16
4.79593037709743e+16
4.77109204276389e+16
4.74590960217594e+16
4.72037765704281e+16
4.69449064300781e+16
4.6682428326527e+16
4.64162833891591e+16
4.61464111893507e+16
4.58727497832248e+16
4.55952357588301e+16
4.5313804287827e+16
4.50283891817564e+16
4.47389229529625e+16
4.44453368802344e+16
4.41475610792226e+16
4.38455245776793e+16
4.35391553955549e+16
4.32283806299812e+16
4.29131265451602e+16
4.25933186671644e+16
4.2268881883634e+16
4.19397405483532e+16
4.16058185906765e+16
4.12670396297439e+16
4.09233270934201e+16
4.05746043418789e+16
4.02207947957224e+16
3.98618220685083e+16
3.94976101035482e+16
3.91280833148063e+16
3.87531667317048e+16
3.8372786147627e+16
3.79868682718754e+16
3.75953408848124e+16
3.71981329958973e+16
3.67951750042868e+16
3.63863988616433e+16
3.59717382367724e+16
3.55511286816665e+16
3.51245077985049e+16
3.46918154071288e+16
3.42529937124793e+16
3.38079874714507e+16
3.33567441585856e+16
3.28992141300071e+16
3.24353507849653e+16
3.19651107243492e+16
3.14884539055044e+16
3.10053437926986e+16
3.051574750257e+16
3.00196359439314e+16
2.95169839513344e+16
2.90077704118625e+16
2.849197838473e+16
2.7969595213398e+16
2.74406126301138e+16
2.69050268530498e+16
2.63628386765826e+16
2.58140535557245e+16
2.52586816863694e+16
2.46967380838709e+16
2.4128242663616e+16
2.35532203285461e+16
2.29717010708012e+16
2.23837200975894e+16
2.17893179836694e+16
2.1188540877285e+16
2.05814407712582e+16
1.996807550656e+16
1.93485088186645e+16
1.87228105736913e+16
1.80910349192166e+16
1.74532101015626e+16
1.68093041851045e+16
1.61590915949763e+16
1.55022051121854e+16
1.48383591014241e+16
1.41673911531672e+16
1.34891881027234e+16
1.28036528426291e+16
1.21107040495335e+16
1.14103948040538e+16
1.07031715133881e+16
9.99007893665083e+15
9.2726999621441e+15
8.55309084631502e+15
7.83417415477581e+15
7.11988044030515e+15
6.41481428806497e+15
5.72442027498327e+15
5.05496253308331e+15
4.41297047257626e+15
3.80507012765415e+15
3.23767609660796e+15
2.71633202941543e+15
2.24540653646852e+15
1.82781068602127e+15
1.46462010702259e+15
1.15506553439762e+15
896741036510455
685636832205663
516606415289210
384160305391170
282497016247929
205963097921819
149261370773741
107513091479504
75752387040923.1
52243601922738.9
35405162856896
23146243160553.2
14621050071668.7
9115580214555.38
5805520510148.89
3905227085336.79
2827554070407.97
2209281227587.77
1846382449659.76
1628638281562.8
1496111025878.23
1415067428867.31
1365792842372.78
1336393825731.37
1319503527997.04
1310169777069.69
1305099554244.03
1302186128726.97
1299980459700.27
1297500952392.87
1294084908609.01
1289297530339.54
1282868561302.61
1274636678149.76
1264501630305.15
1252450247300.2
1238552535005.14
1222916100343.46
1205676471097.36
1186985967538.07
1167005771443.16
1145900143946.46
1123832567497.5
1100962782731.04
1077444558168.03
1053424029670.74
1029038502141.71
1004415632018.56
979672936023.066
954917552016.541
930246219122.009
905745430847.082
881491724029.392
857552088289.062
833984465680.115
810838476870.449
788156449653.292
765973981668.163
744319900955.524
723216279277.349
702679308694.222
682715446585.448
663325243642.919
644511122614.93
626274623547.627
608614218215.399
591525702430.067
575002255104.01
559036770655.45
543618431912.136
528731048972.75
514361167644.844
500496814092.613
487123649573.331
474226572335.956
461790104005.531
449798618820.657
438236198750.196
427086429958.971
416326887110.895
405936334474.954
395900454855.305
386205954199.436
376840583182.789
367792619891.606
359050888299.714
350604767411.792
342444229914.192
334559879363.868
326942989433.249
319585544369.094
312480272361.995
305620667379.174
299000771155.291
292614513464.065
286449825248.551
280476514809.586
274676287478.17
269056433253.209
263627567369.716
258401225065.189
253388801482.925
248557788469.52
243886728347.876
239414761609.343
235177927369.977
231171753836.402
227443494636.706
224073042813.395
221195267675.81
219106589439.59
218246928334.595
219436157044.151
)
;

boundaryField
{
    electrode
    {
        type            driftDiffusionElectronDensity;
        seec            0.05;
        Edepend         1;
        field_emission  0;
        field_enhancement_factor 55;
        work_function   5;
        value           uniform 5.87856821118683e+16;
    }
    ground
    {
        type            driftDiffusionElectronDensity;
        seec            0.05;
        Edepend         1;
        field_emission  0;
        field_enhancement_factor 55;
        work_function   5;
        value           uniform 221635224419.293;
    }
    otherfaces
    {
        type            empty;
    }
}


// ************************************************************************* //
