/*--------------------------------*- C++ -*----------------------------------*\
| =========                 |                                                 |
| \\      /  F ield         | foam-extend: Open Source CFD                    |
|  \\    /   O peration     | Version:     4.0                                |
|   \\  /    A nd           | Web:         http://www.foam-extend.org         |
|    \\/     M anipulation  |                                                 |
\*---------------------------------------------------------------------------*/
FoamFile
{
    version     2.0;
    format      ascii;
    class       volVectorField;
    location    "3.3e-06";
    object      J_Arp1;
}
// * * * * * * * * * * * * * * * * * * * * * * * * * * * * * * * * * * * * * //

dimensions      [1 -1 -1 0 0 0 0];

internalField   nonuniform List<vector> 
300
(
(1.8407585573593e+16 -0 -0)
(6.41190225378123e+16 -0 -0)
(1.13542746838903e+17 -0 -0)
(1.58141160417159e+17 -0 -0)
(2.02985956878639e+17 -0 -0)
(2.48093185432387e+17 -0 -0)
(2.9303890665698e+17 -0 -0)
(3.37937463602954e+17 -0 -0)
(3.8277578236884e+17 -0 -0)
(4.27538525947108e+17 -0 -0)
(4.72221398783503e+17 -0 -0)
(5.16817227158399e+17 -0 -0)
(5.61319049329562e+17 -0 -0)
(6.05720333479834e+17 -0 -0)
(6.50014691313117e+17 -0 -0)
(6.94195964009061e+17 -0 -0)
(7.38258243489881e+17 -0 -0)
(7.82195882051625e+17 -0 -0)
(8.26003510274022e+17 -0 -0)
(8.69676053227599e+17 -0 -0)
(9.13208746616566e+17 -0 -0)
(9.56597152771257e+17 -0 -0)
(9.99837176455936e+17 -0 -0)
(1.04292508067384e+18 -0 -0)
(1.08585750254138e+18 -0 -0)
(1.12863146824182e+18 -0 -0)
(1.17124440873548e+18 -0 -0)
(1.21369417461077e+18 -0 -0)
(1.25597905107849e+18 -0 -0)
(1.29809777247314e+18 -0 -0)
(1.34004953660706e+18 -0 -0)
(1.38183401891605e+18 -0 -0)
(1.42345138617744e+18 -0 -0)
(1.46490231000451e+18 -0 -0)
(1.50618797990233e+18 -0 -0)
(1.54731011592305e+18 -0 -0)
(1.58827098101532e+18 -0 -0)
(1.62907339274208e+18 -0 -0)
(1.66972073475313e+18 -0 -0)
(1.71021696755592e+18 -0 -0)
(1.75056663881093e+18 -0 -0)
(1.79077489303671e+18 -0 -0)
(1.8308474808347e+18 -0 -0)
(1.87079076722374e+18 -0 -0)
(1.91061173944213e+18 -0 -0)
(1.95031801416294e+18 -0 -0)
(1.98991784352456e+18 -0 -0)
(2.02942012082292e+18 -0 -0)
(2.06883438518779e+18 -0 -0)
(2.10817082518626e+18 -0 -0)
(2.14744028198646e+18 -0 -0)
(2.18665425107315e+18 -0 -0)
(2.22582488305482e+18 -0 -0)
(2.26496498378358e+18 -0 -0)
(2.3040880129258e+18 -0 -0)
(2.3432080818468e+18 -0 -0)
(2.38233994962315e+18 -0 -0)
(2.42149901889823e+18 -0 -0)
(2.46070132928704e+18 -0 -0)
(2.4999635506257e+18 -0 -0)
(2.53930297375418e+18 -0 -0)
(2.57873750092221e+18 -0 -0)
(2.61828563389829e+18 -0 -0)
(2.65796646133133e+18 -0 -0)
(2.69779964405205e+18 -0 -0)
(2.73780539894359e+18 -0 -0)
(2.77800448154341e+18 -0 -0)
(2.81841816638293e+18 -0 -0)
(2.8590682262769e+18 -0 -0)
(2.89997690941521e+18 -0 -0)
(2.94116691473641e+18 -0 -0)
(2.98266136582593e+18 -0 -0)
(3.02448378263277e+18 -0 -0)
(3.06665805158453e+18 -0 -0)
(3.10920839337513e+18 -0 -0)
(3.15215932928212e+18 -0 -0)
(3.19553564533869e+18 -0 -0)
(3.23936235437314e+18 -0 -0)
(3.2836646561514e+18 -0 -0)
(3.32846789559673e+18 -0 -0)
(3.37379751867647e+18 -0 -0)
(3.41967902649392e+18 -0 -0)
(3.46613792706874e+18 -0 -0)
(3.51319968508865e+18 -0 -0)
(3.56088966968969e+18 -0 -0)
(3.60923309980072e+18 -0 -0)
(3.65825498789277e+18 -0 -0)
(3.70798008104095e+18 -0 -0)
(3.75843280037103e+18 -0 -0)
(3.80963717809571e+18 -0 -0)
(3.86161679276834e+18 -0 -0)
(3.91439470235361e+18 -0 -0)
(3.9679933751793e+18 -0 -0)
(4.02243461929262e+18 -0 -0)
(4.07773950951897e+18 -0 -0)
(4.13392831288076e+18 -0 -0)
(4.19102041214515e+18 -0 -0)
(4.2490342275707e+18 -0 -0)
(4.30798713706742e+18 -0 -0)
(4.36789539465675e+18 -0 -0)
(4.4287740475594e+18 -0 -0)
(4.49063685179263e+18 -0 -0)
(4.55349618633401e+18 -0 -0)
(4.61736296627747e+18 -0 -0)
(4.68224655491987e+18 -0 -0)
(4.74815467472063e+18 -0 -0)
(4.81509331754065e+18 -0 -0)
(4.88306665425673e+18 -0 -0)
(4.95207694395025e+18 -0 -0)
(5.02212444256534e+18 -0 -0)
(5.09320731154297e+18 -0 -0)
(5.1653215265295e+18 -0 -0)
(5.23846078625923e+18 -0 -0)
(5.31261642182955e+18 -0 -0)
(5.38777730667068e+18 -0 -0)
(5.46392976764655e+18 -0 -0)
(5.54105749677624e+18 -0 -0)
(5.61914146477075e+18 -0 -0)
(5.69815983599103e+18 -0 -0)
(5.77808788520322e+18 -0 -0)
(5.85889791651091e+18 -0 -0)
(5.94055918484353e+18 -0 -0)
(6.02303781959918e+18 -0 -0)
(6.10629675172901e+18 -0 -0)
(6.19029564374645e+18 -0 -0)
(6.2749908228855e+18 -0 -0)
(6.36033521829949e+18 -0 -0)
(6.44627830188107e+18 -0 -0)
(6.53276603323372e+18 -0 -0)
(6.61974080868389e+18 -0 -0)
(6.70714141509547e+18 -0 -0)
(6.7949029877553e+18 -0 -0)
(6.88295697326137e+18 -0 -0)
(6.97123109671182e+18 -0 -0)
(7.05964933387203e+18 -0 -0)
(7.14813188764563e+18 -0 -0)
(7.23659516913462e+18 -0 -0)
(7.32495178307445e+18 -0 -0)
(7.41311051697518e+18 -0 -0)
(7.50097633450354e+18 -0 -0)
(7.5884503719377e+18 -0 -0)
(7.67542993774169e+18 -0 -0)
(7.76180851522364e+18 -0 -0)
(7.84747576744237e+18 -0 -0)
(7.93231754474407e+18 -0 -0)
(8.01621589494174e+18 -0 -0)
(8.09904907698899e+18 -0 -0)
(8.18069157910601e+18 -0 -0)
(8.26101414379046e+18 -0 -0)
(8.3398837994999e+18 -0 -0)
(8.41716393469563e+18 -0 -0)
(8.49271432868882e+18 -0 -0)
(8.56639114854332e+18 -0 -0)
(8.63804830823356e+18 -0 -0)
(8.70753449152899e+18 -0 -0)
(8.77469340096773e+18 -0 -0)
(8.83940284181916e+18 -0 -0)
(8.90143957105203e+18 -0 -0)
(8.96056086211545e+18 -0 -0)
(9.01760220358396e+18 -0 -0)
(9.06945031233228e+18 -0 -0)
(9.12035218075275e+18 -0 -0)
(9.16499401600261e+18 -0 -0)
(9.20738198250641e+18 -0 -0)
(9.24653362958513e+18 -0 -0)
(9.28313822036519e+18 -0 -0)
(9.31553201176034e+18 -0 -0)
(9.3427878542224e+18 -0 -0)
(9.37121517531345e+18 -0 -0)
(9.38845484518051e+18 -0 -0)
(9.40888875968197e+18 -0 -0)
(9.42495613023657e+18 -0 -0)
(9.4399118308819e+18 -0 -0)
(9.44565867614035e+18 -0 -0)
(9.45493572909622e+18 -0 -0)
(9.46362046654176e+18 -0 -0)
(9.46168684841466e+18 -0 -0)
(9.45811417757984e+18 -0 -0)
(9.46683800731254e+18 -0 -0)
(9.45436928777877e+18 -0 -0)
(9.4560938228251e+18 -0 -0)
(9.45189343731434e+18 -0 -0)
(9.44877628897013e+18 -0 -0)
(9.43428118437149e+18 -0 -0)
(9.44251942438931e+18 -0 -0)
(9.42552947619852e+18 -0 -0)
(9.43233983574554e+18 -0 -0)
(9.41506269373137e+18 -0 -0)
(9.42910399157907e+18 -0 -0)
(9.41373805599612e+18 -0 -0)
(9.43782558641416e+18 -0 -0)
(9.42873917390841e+18 -0 -0)
(9.47651480946032e+18 -0 -0)
(9.49519110980659e+18 -0 -0)
(9.59303590853031e+18 -0 -0)
(9.7050900439686e+18 -0 -0)
(9.9122957870456e+18 -0 -0)
(1.01517484180028e+19 -0 -0)
(1.04069355488488e+19 -0 -0)
(1.06636706548331e+19 -0 -0)
(1.08671086706102e+19 -0 -0)
(1.1011539362699e+19 -0 -0)
(1.11510296714065e+19 -0 -0)
(1.12429704122232e+19 -0 -0)
(1.13177812807628e+19 -0 -0)
(1.13783391100169e+19 -0 -0)
(1.14341571199995e+19 -0 -0)
(1.14833063227418e+19 -0 -0)
(1.15334387532984e+19 -0 -0)
(1.15792470658269e+19 -0 -0)
(1.16282460855863e+19 -0 -0)
(1.16730595525495e+19 -0 -0)
(1.17221040928604e+19 -0 -0)
(1.17680028042551e+19 -0 -0)
(1.18180019835744e+19 -0 -0)
(1.18646750269865e+19 -0 -0)
(1.19151682821496e+19 -0 -0)
(1.19620671193937e+19 -0 -0)
(1.20126063153068e+19 -0 -0)
(1.20595356491168e+19 -0 -0)
(1.21103884230782e+19 -0 -0)
(1.21575625033041e+19 -0 -0)
(1.22088561998682e+19 -0 -0)
(1.22561327099559e+19 -0 -0)
(1.23071166445319e+19 -0 -0)
(1.23537367258297e+19 -0 -0)
(1.24043114871417e+19 -0 -0)
(1.24496617231291e+19 -0 -0)
(1.24990839391413e+19 -0 -0)
(1.25428774602357e+19 -0 -0)
(1.25909205504838e+19 -0 -0)
(1.26330836234061e+19 -0 -0)
(1.26795412396105e+19 -0 -0)
(1.27200485815665e+19 -0 -0)
(1.27650416587132e+19 -0 -0)
(1.2803699289092e+19 -0 -0)
(1.28474007790381e+19 -0 -0)
(1.288420178171e+19 -0 -0)
(1.29266127828159e+19 -0 -0)
(1.29616780926602e+19 -0 -0)
(1.3002733301955e+19 -0 -0)
(1.30361758910268e+19 -0 -0)
(1.30756071731385e+19 -0 -0)
(1.31073806378462e+19 -0 -0)
(1.31454582329616e+19 -0 -0)
(1.31752546512708e+19 -0 -0)
(1.32117044524989e+19 -0 -0)
(1.32395664990328e+19 -0 -0)
(1.32745255947656e+19 -0 -0)
(1.33004707523021e+19 -0 -0)
(1.33340661614369e+19 -0 -0)
(1.33582659225561e+19 -0 -0)
(1.33906046663763e+19 -0 -0)
(1.34131232290287e+19 -0 -0)
(1.34442715971451e+19 -0 -0)
(1.34652447134108e+19 -0 -0)
(1.34951878390992e+19 -0 -0)
(1.35146597438127e+19 -0 -0)
(1.35434962867976e+19 -0 -0)
(1.35614926348397e+19 -0 -0)
(1.35892768310969e+19 -0 -0)
(1.36058123052505e+19 -0 -0)
(1.3632622284706e+19 -0 -0)
(1.36477495995686e+19 -0 -0)
(1.36736213052303e+19 -0 -0)
(1.3687452866527e+19 -0 -0)
(1.37125626302976e+19 -0 -0)
(1.37252356892423e+19 -0 -0)
(1.37496443607151e+19 -0 -0)
(1.37614590686239e+19 -0 -0)
(1.37854409683045e+19 -0 -0)
(1.37962471752485e+19 -0 -0)
(1.38198241695579e+19 -0 -0)
(1.38295973397835e+19 -0 -0)
(1.38527305161864e+19 -0 -0)
(1.3861396660708e+19 -0 -0)
(1.38839579691002e+19 -0 -0)
(1.38914702764692e+19 -0 -0)
(1.39134722483044e+19 -0 -0)
(1.39199271134995e+19 -0 -0)
(1.39414679745372e+19 -0 -0)
(1.39469391819302e+19 -0 -0)
(1.39681460930621e+19 -0 -0)
(1.39727759292985e+19 -0 -0)
(1.39937642606415e+19 -0 -0)
(1.39976937649303e+19 -0 -0)
(1.40185707077912e+19 -0 -0)
(1.40219046350228e+19 -0 -0)
(1.40427624124532e+19 -0 -0)
(1.40455301835877e+19 -0 -0)
(1.40662544888089e+19 -0 -0)
(1.40682788629393e+19 -0 -0)
(1.40887568178383e+19 -0 -0)
(1.40899117217152e+19 -0 -0)
(1.41098817186866e+19 -0 -0)
(1.41099740936728e+19 -0 -0)
(1.412930266949e+19 -0 -0)
(1.41281768942213e+19 -0 -0)
(1.41466309149522e+19 -0 -0)
(1.41337902292501e+19 -0 -0)
)
;

boundaryField
{
    electrode
    {
        type            calculated;
        value           uniform (210381955199 -0 -0);
    }
    ground
    {
        type            calculated;
        value           uniform (1.41523308302124e+19 -0 -0);
    }
    otherfaces
    {
        type            empty;
    }
}


// ************************************************************************* //
