/*--------------------------------*- C++ -*----------------------------------*\
| =========                 |                                                 |
| \\      /  F ield         | foam-extend: Open Source CFD                    |
|  \\    /   O peration     | Version:     4.0                                |
|   \\  /    A nd           | Web:         http://www.foam-extend.org         |
|    \\/     M anipulation  |                                                 |
\*---------------------------------------------------------------------------*/
FoamFile
{
    version     2.0;
    format      ascii;
    class       volVectorField;
    location    "3.3e-06";
    object      J_electron;
}
// * * * * * * * * * * * * * * * * * * * * * * * * * * * * * * * * * * * * * //

dimensions      [1 -1 -1 0 0 0 0];

internalField   nonuniform List<vector> 
300
(
(-1.24133248567798e+19 0 0)
(-1.26374015023718e+19 0 0)
(-1.48490439416673e+19 0 0)
(-1.4497782690515e+19 0 0)
(-1.4457522553721e+19 0 0)
(-1.4451124355193e+19 0 0)
(-1.43981207964662e+19 0 0)
(-1.43543783688738e+19 0 0)
(-1.43109689627478e+19 0 0)
(-1.42666680260563e+19 0 0)
(-1.42226532525672e+19 0 0)
(-1.4178701456002e+19 0 0)
(-1.41347943695316e+19 0 0)
(-1.40909616144052e+19 0 0)
(-1.4047201831722e+19 0 0)
(-1.40035180281054e+19 0 0)
(-1.39599140886603e+19 0 0)
(-1.39163929286119e+19 0 0)
(-1.38729573365255e+19 0 0)
(-1.38296097816899e+19 0 0)
(-1.37863524296998e+19 0 0)
(-1.37431871378458e+19 0 0)
(-1.37001153999861e+19 0 0)
(-1.3657138313608e+19 0 0)
(-1.36142567351275e+19 0 0)
(-1.3571470986625e+19 0 0)
(-1.35287810917484e+19 0 0)
(-1.34861866101167e+19 0 0)
(-1.34436867303315e+19 0 0)
(-1.34012801829924e+19 0 0)
(-1.33589652370201e+19 0 0)
(-1.3316739732187e+19 0 0)
(-1.32746010145195e+19 0 0)
(-1.32325459705015e+19 0 0)
(-1.31905709967163e+19 0 0)
(-1.31486719758109e+19 0 0)
(-1.31068443203144e+19 0 0)
(-1.30650828894854e+19 0 0)
(-1.30233820513156e+19 0 0)
(-1.29817356277286e+19 0 0)
(-1.29401369217192e+19 0 0)
(-1.28985786663186e+19 0 0)
(-1.28570530973254e+19 0 0)
(-1.281555187357e+19 0 0)
(-1.2774066075878e+19 0 0)
(-1.27325863014037e+19 0 0)
(-1.26911025243344e+19 0 0)
(-1.2649604187148e+19 0 0)
(-1.26080801954794e+19 0 0)
(-1.25665188344079e+19 0 0)
(-1.25249079066603e+19 0 0)
(-1.24832346432107e+19 0 0)
(-1.24414856774203e+19 0 0)
(-1.23996471622367e+19 0 0)
(-1.23577046495454e+19 0 0)
(-1.23156432597712e+19 0 0)
(-1.2273447425684e+19 0 0)
(-1.22311012554829e+19 0 0)
(-1.21885881688512e+19 0 0)
(-1.21458912529356e+19 0 0)
(-1.21029929627877e+19 0 0)
(-1.2059875425722e+19 0 0)
(-1.20165201826834e+19 0 0)
(-1.19729084329762e+19 0 0)
(-1.19290209207764e+19 0 0)
(-1.18848379242839e+19 0 0)
(-1.18403394530443e+19 0 0)
(-1.1795505038818e+19 0 0)
(-1.17503139448627e+19 0 0)
(-1.17047451147753e+19 0 0)
(-1.16587771329435e+19 0 0)
(-1.16123883725581e+19 0 0)
(-1.15655569297331e+19 0 0)
(-1.15182607278319e+19 0 0)
(-1.1470477453314e+19 0 0)
(-1.14221846582099e+19 0 0)
(-1.13733597906563e+19 0 0)
(-1.13239802012285e+19 0 0)
(-1.12740231542599e+19 0 0)
(-1.12234659412115e+19 0 0)
(-1.11722858372286e+19 0 0)
(-1.11204601997469e+19 0 0)
(-1.10679664609699e+19 0 0)
(-1.10147821742213e+19 0 0)
(-1.09608851200003e+19 0 0)
(-1.09062532033817e+19 0 0)
(-1.08508646876877e+19 0 0)
(-1.07946980567616e+19 0 0)
(-1.07377321871171e+19 0 0)
(-1.06799463070087e+19 0 0)
(-1.06213200930307e+19 0 0)
(-1.05618337200687e+19 0 0)
(-1.05014678188715e+19 0 0)
(-1.04402036450473e+19 0 0)
(-1.03780230165582e+19 0 0)
(-1.0314908409154e+19 0 0)
(-1.02508430105279e+19 0 0)
(-1.01858106897166e+19 0 0)
(-1.01197961280262e+19 0 0)
(-1.00527847906618e+19 0 0)
(-9.98476297565268e+18 0 0)
(-9.91571787880805e+18 0 0)
(-9.84563757365749e+18 0 0)
(-9.77451105086446e+18 0 0)
(-9.70232827941801e+18 0 0)
(-9.62908018564137e+18 0 0)
(-9.55475867086409e+18 0 0)
(-9.47935659069224e+18 0 0)
(-9.40286783240955e+18 0 0)
(-9.32528724191583e+18 0 0)
(-9.24661061429336e+18 0 0)
(-9.16683468733311e+18 0 0)
(-9.08595711857761e+18 0 0)
(-9.00397640225758e+18 0 0)
(-8.92089180083244e+18 0 0)
(-8.83670336343795e+18 0 0)
(-8.75141170935261e+18 0 0)
(-8.6650180144338e+18 0 0)
(-8.57752385472587e+18 0 0)
(-8.48893106027653e+18 0 0)
(-8.39924150733688e+18 0 0)
(-8.30845701916197e+18 0 0)
(-8.21657900795612e+18 0 0)
(-8.12360830593427e+18 0 0)
(-8.02954486874741e+18 0 0)
(-7.93438736933192e+18 0 0)
(-7.8381329052981e+18 0 0)
(-7.74077647077455e+18 0 0)
(-7.64231057063333e+18 0 0)
(-7.54272457162647e+18 0 0)
(-7.44200416834145e+18 0 0)
(-7.34013059442567e+18 0 0)
(-7.23707995459053e+18 0 0)
(-7.13282219611678e+18 0 0)
(-7.02732025197285e+18 0 0)
(-6.92052883918973e+18 0 0)
(-6.8123931993068e+18 0 0)
(-6.70284777834886e+18 0 0)
(-6.59181450286649e+18 0 0)
(-6.47920110091737e+18 0 0)
(-6.36489906302589e+18 0 0)
(-6.24878136524485e+18 0 0)
(-6.13069995405161e+18 0 0)
(-6.01048289786305e+18 0 0)
(-5.88793123842084e+18 0 0)
(-5.76281532749264e+18 0 0)
(-5.63487102810456e+18 0 0)
(-5.5037951793116e+18 0 0)
(-5.36924096552554e+18 0 0)
(-5.23081148936487e+18 0 0)
(-5.08805632529269e+18 0 0)
(-4.94046479824349e+18 0 0)
(-4.78740727031189e+18 0 0)
(-4.62827363496152e+18 0 0)
(-4.46222784775009e+18 0 0)
(-4.28676067949124e+18 0 0)
(-4.10205026527792e+18 0 0)
(-3.90600000336403e+18 0 0)
(-3.59176383326847e+18 0 0)
(-3.31437191181369e+18 0 0)
(-2.79411485916948e+18 0 0)
(-1.81289283535189e+18 0 0)
(-1.42411305759067e+18 0 0)
(-1.41447464671615e+18 0 0)
(-1.15267171950946e+18 0 0)
(-6.87445459632914e+17 0 0)
(-1.26272847301575e+17 0 0)
(5.18764374548021e+17 0 0)
(7.41308698649952e+17 0 0)
(3.76762418156536e+17 0 0)
(-1.95975084316295e+17 0 0)
(-1.1883460399045e+17 0 0)
(-1.32611007753224e+17 0 0)
(-1.65191323075845e+18 0 0)
(-2.34762333585513e+18 0 0)
(-2.26697981859358e+18 0 0)
(-3.66564464123812e+18 0 0)
(-3.87716103100747e+18 0 0)
(-3.069308915005e+18 0 0)
(-2.89091926527207e+18 0 0)
(-1.50752122857796e+18 0 0)
(8.87265947736343e+17 0 0)
(2.90672934768293e+18 0 0)
(5.55106437228816e+18 0 0)
(8.43692715093315e+18 0 0)
(1.05211879082332e+19 0 0)
(1.18746230527351e+19 0 0)
(1.33872295024866e+19 0 0)
(1.30276557650429e+19 0 0)
(1.11177620178254e+19 0 0)
(1.04073061870273e+19 0 0)
(7.57411873261158e+18 0 0)
(6.11608359498265e+18 0 0)
(4.20709714375161e+18 0 0)
(5.50599063997553e+18 0 0)
(-5.27113660270897e+18 0 0)
(1.04093333535857e+18 0 0)
(-2.25974636393127e+18 0 0)
(-2.86675778328355e+18 0 0)
(-2.71582680762264e+18 0 0)
(-2.66187182210909e+18 0 0)
(-2.75908238728371e+18 0 0)
(-2.95782339612443e+18 0 0)
(-3.12973629211092e+18 0 0)
(-3.22671620928607e+18 0 0)
(-3.26796245355738e+18 0 0)
(-3.26664425316337e+18 0 0)
(-3.24424408262132e+18 0 0)
(-3.20835228594271e+18 0 0)
(-3.16741596738687e+18 0 0)
(-3.12084278996439e+18 0 0)
(-3.07046831495131e+18 0 0)
(-3.02118015189209e+18 0 0)
(-2.96891985004209e+18 0 0)
(-2.9161256579573e+18 0 0)
(-2.86259706701598e+18 0 0)
(-2.80863839391047e+18 0 0)
(-2.75437054025502e+18 0 0)
(-2.69994959698053e+18 0 0)
(-2.64538114178352e+18 0 0)
(-2.59085641338248e+18 0 0)
(-2.53704028944861e+18 0 0)
(-2.48317348362267e+18 0 0)
(-2.42979876538864e+18 0 0)
(-2.37695581531355e+18 0 0)
(-2.32474284328642e+18 0 0)
(-2.27323408297604e+18 0 0)
(-2.22250494506818e+18 0 0)
(-2.17261425796697e+18 0 0)
(-2.1236131214387e+18 0 0)
(-2.07554465889944e+18 0 0)
(-2.02844451508034e+18 0 0)
(-1.98234140172462e+18 0 0)
(-1.93725746080131e+18 0 0)
(-1.8932089320854e+18 0 0)
(-1.85020610892608e+18 0 0)
(-1.80825466756734e+18 0 0)
(-1.76735511046873e+18 0 0)
(-1.72750428395412e+18 0 0)
(-1.68869500306865e+18 0 0)
(-1.65091710204821e+18 0 0)
(-1.61415905880057e+18 0 0)
(-1.57840661598033e+18 0 0)
(-1.54363548276104e+18 0 0)
(-1.50982564088726e+18 0 0)
(-1.47695680337832e+18 0 0)
(-1.44501555403689e+18 0 0)
(-1.41391697287067e+18 0 0)
(-1.38378253610969e+18 0 0)
(-1.35449404821847e+18 0 0)
(-1.3260028711836e+18 0 0)
(-1.29831442758511e+18 0 0)
(-1.27140460956282e+18 0 0)
(-1.24524579171774e+18 0 0)
(-1.21984387207083e+18 0 0)
(-1.19508120336317e+18 0 0)
(-1.17104512286673e+18 0 0)
(-1.14771740834085e+18 0 0)
(-1.12496682099891e+18 0 0)
(-1.10284811575921e+18 0 0)
(-1.08132764630794e+18 0 0)
(-1.06038398539942e+18 0 0)
(-1.03999686980464e+18 0 0)
(-1.02014366348476e+18 0 0)
(-1.00080885498716e+18 0 0)
(-9.81911796485237e+17 0 0)
(-9.63639654656386e+17 0 0)
(-9.45761790847129e+17 0 0)
(-9.28343246292787e+17 0 0)
(-9.11356591814482e+17 0 0)
(-8.94794369509151e+17 0 0)
(-8.78642462001354e+17 0 0)
(-8.62888252108177e+17 0 0)
(-8.47519005025727e+17 0 0)
(-8.32522647466149e+17 0 0)
(-8.1788733140433e+17 0 0)
(-8.03601762014963e+17 0 0)
(-7.89654746569721e+17 0 0)
(-7.76035621420022e+17 0 0)
(-7.62731548705698e+17 0 0)
(-7.49730526921598e+17 0 0)
(-7.36974497992715e+17 0 0)
(-7.24463490619903e+17 0 0)
(-7.12598704570752e+17 0 0)
(-7.00807406776824e+17 0 0)
(-6.89310268772453e+17 0 0)
(-6.78061924047805e+17 0 0)
(-6.67104704445371e+17 0 0)
(-6.56037321552032e+17 0 0)
(-6.46052489161244e+17 0 0)
(-6.35952415816291e+17 0 0)
(-6.26031373103505e+17 0 0)
(-6.16234299854703e+17 0 0)
(-6.07489247650594e+17 0 0)
(-5.98206604238147e+17 0 0)
(-5.90185085933222e+17 0 0)
(-5.8211997792258e+17 0 0)
(-5.75563203668393e+17 0 0)
(-5.69473979521932e+17 0 0)
(-5.59639287463784e+17 0 0)
)
;

boundaryField
{
    electrode
    {
        type            calculated;
        value           uniform (-1.46879283018129e+19 0 0);
    }
    ground
    {
        type            calculated;
        value           uniform (-5.57083874067549e+17 0 0);
    }
    otherfaces
    {
        type            empty;
    }
}


// ************************************************************************* //
