/*--------------------------------*- C++ -*----------------------------------*\
| =========                 |                                                 |
| \\      /  F ield         | foam-extend: Open Source CFD                    |
|  \\    /   O peration     | Version:     4.0                                |
|   \\  /    A nd           | Web:         http://www.foam-extend.org         |
|    \\/     M anipulation  |                                                 |
\*---------------------------------------------------------------------------*/
FoamFile
{
    version     2.0;
    format      ascii;
    class       volScalarField;
    location    "3.3e-06";
    object      N_electronMean;
}
// * * * * * * * * * * * * * * * * * * * * * * * * * * * * * * * * * * * * * //

dimensions      [0 0 0 1 0 0 0];

internalField   nonuniform List<scalar> 
300
(
6.01888704642155e+16
6.01874525664041e+16
6.01833582734952e+16
6.01760293687353e+16
6.01654843183213e+16
6.01516733717408e+16
6.01345618451603e+16
6.01141275062553e+16
6.00903511021257e+16
6.00632180819151e+16
6.00327179534687e+16
5.99988439161863e+16
5.99615925636217e+16
5.99209636010888e+16
5.98769596470293e+16
5.98295860356654e+16
5.97788506514539e+16
5.97247637881284e+16
5.96673380123302e+16
5.96065880354801e+16
5.95425306019182e+16
5.94751843839366e+16
5.94045698812289e+16
5.93307093180981e+16
5.92536265715646e+16
5.91733471176593e+16
5.90898979242589e+16
5.90033073449016e+16
5.89136050346522e+16
5.88208218328341e+16
5.87249896917669e+16
5.8626141667081e+16
5.85243118129595e+16
5.84195350058674e+16
5.83118468219722e+16
5.82012834421075e+16
5.80878815587969e+16
5.7971678292621e+16
5.78527110997576e+16
5.77310176780855e+16
5.76066358929149e+16
5.74796037003661e+16
5.73499590525971e+16
5.72177398116266e+16
5.70829836763874e+16
5.69457281118597e+16
5.68060102837813e+16
5.66638670019527e+16
5.651933467969e+16
5.63724493091192e+16
5.62232464739306e+16
5.60717613634154e+16
5.59180287261742e+16
5.57620827729748e+16
5.56039570321642e+16
5.54436842001334e+16
5.52812960139483e+16
5.51168231526978e+16
5.49502951632313e+16
5.47817403880286e+16
5.46111859011317e+16
5.44386574490453e+16
5.42641793841573e+16
5.40877746546262e+16
5.39094648621073e+16
5.37292701959536e+16
5.35472092516524e+16
5.33632989223813e+16
5.31775543461188e+16
5.29899888505227e+16
5.28006138961708e+16
5.26094390491376e+16
5.2416472010079e+16
5.2221718581304e+16
5.20251825622997e+16
5.18268657473012e+16
5.16267679603249e+16
5.14248869974384e+16
5.12212184813418e+16
5.10157557670585e+16
5.08084899202058e+16
5.05994095638327e+16
5.03885007295306e+16
5.01757467974201e+16
4.99611284606457e+16
4.97446237321128e+16
4.9526207865181e+16
4.9305853203295e+16
4.90835291015939e+16
4.88592019010632e+16
4.86328348550793e+16
4.84043881364902e+16
4.81738188662979e+16
4.79410809262641e+16
4.770612478032e+16
4.74688974096488e+16
4.72293422454132e+16
4.69873991019176e+16
4.67430041095874e+16
4.64960896702031e+16
4.62465844096028e+16
4.59944130854648e+16
4.57394965615223e+16
4.54817518234597e+16
4.52210918710206e+16
4.49574256370844e+16
4.46906579536362e+16
4.44206894915892e+16
4.41474167366773e+16
4.38707319099209e+16
4.35905228683967e+16
4.33066730560315e+16
4.30190614787648e+16
4.27275627169964e+16
4.24320469039092e+16
4.21323797052015e+16
4.18284224011594e+16
4.15200319095856e+16
4.1207060678984e+16
4.08893566029684e+16
4.05667630566624e+16
4.02391189751709e+16
3.99062589175361e+16
3.9568013154782e+16
3.92242076369488e+16
3.88746638765661e+16
3.85191989700231e+16
3.81576256786573e+16
3.77897524373776e+16
3.74153833900931e+16
3.70343184881876e+16
3.66463535933321e+16
3.62512805656632e+16
3.58488873546821e+16
3.54389582291341e+16
3.5021274059403e+16
3.45956123907883e+16
3.4161747481285e+16
3.37194505351013e+16
3.32684899511082e+16
3.28086314393442e+16
3.2339638160427e+16
3.18612709613174e+16
3.13732886635788e+16
3.08754484569287e+16
3.03675062600998e+16
2.98492169179833e+16
2.932033438299e+16
2.87806119104733e+16
2.82298024171982e+16
2.76676590014656e+16
2.70939352789211e+16
2.65083857775056e+16
2.59107664695536e+16
2.53008351734551e+16
2.46783520990122e+16
2.40430806264477e+16
2.33947881642598e+16
2.27332469223164e+16
2.20582346653917e+16
2.13695353536387e+16
2.06669359663252e+16
1.99502143649651e+16
1.92191241834468e+16
1.84733895584849e+16
1.77127074424923e+16
1.69367485406597e+16
1.61451592741598e+16
1.53375756465016e+16
1.45136619337013e+16
1.3673183648207e+16
1.28161505627012e+16
1.19430431876228e+16
1.10550722131432e+16
1.01544964914179e+16
9.24496060704657e+15
8.33176897950405e+15
7.42216164842064e+15
6.52540383577843e+15
5.65254807479136e+15
4.81597855142535e+15
4.0286587605675e+15
3.30303503943979e+15
2.64985093238612e+15
2.0770280391699e+15
1.58872217150543e+15
1.18488594846226e+15
861404204121932
610715125369954
422858378255308
286718030069686
191219864685112
126235432089470
83236801254989.3
54755405500120.7
35798640458643.1
23302778316136.8
15152253459300.5
10005167447594.7
6878329489288.64
5050593213917.6
4009491096208.8
3410055127281.66
3049365768795.14
2819530749199.49
2664149772514.01
2552989849147.34
2469048558698.34
2402264178723.34
2346418376985.65
2297588942234.31
2253173746506.89
2211420055011.43
2171149020059.05
2131567736680.42
2092137091377.24
2052503701748.08
2012447948429.74
1971847156788.17
1930651118493.06
1888862911289.36
1846498845584.45
1803607316255.28
1760282944336.61
1716638892726.89
1672798969490.69
1628890952666.86
1585040655181.07
1541369558183.23
1497992354840.43
1455015350284.36
1412536837129.57
1370645054324.6
1329418640307.83
1288927163543.62
1249230529492.2
1210379130682.8
1172415426784.74
1135372982333.67
1099277693957.01
1064148991129.28
1029999393676.82
996836542131.178
964663066227.956
933476984713.03
903272181174.819
874036998028.029
845756246279.221
818411972774.158
791983933299.909
766452152583.521
741796456671.093
717995398814.976
695026202315.45
672865562488.059
651490362695.977
630877696880.334
611002347111.734
591838082630.918
573361852372.301
555551693996.712
538384317336.285
521836871679.789
505886524871.023
490510993437.694
475688972327.597
461398503090.094
447617772315.551
434326107103.262
421503543382.963
409130681578.494
397190120304.786
385666302436.235
374545269917.75
363813877195.421
353459811316.578
343471428855.353
333837546352.822
324547886777.629
315593098581.584
306964484882.325
298652850799.691
290648337101.241
282929268712.064
275472031840.071
268271446539.337
261332428134.339
254660992935.045
248263249278.977
242121879584.498
236216176486.027
230561788387.651
225191453396.229
220101796159.857
215320117484.898
210916419919.11
207000339926.868
203799791161.206
201678844328.817
201297523621.136
)
;

boundaryField
{
    electrode
    {
        type            calculated;
        value           uniform 6.01888704645732e+16;
    }
    ground
    {
        type            calculated;
        value           uniform 202451667170.707;
    }
    otherfaces
    {
        type            empty;
    }
}


// ************************************************************************* //
