/*--------------------------------*- C++ -*----------------------------------*\
| =========                 |                                                 |
| \\      /  F ield         | foam-extend: Open Source CFD                    |
|  \\    /   O peration     | Version:     4.0                                |
|   \\  /    A nd           | Web:         http://www.foam-extend.org         |
|    \\/     M anipulation  |                                                 |
\*---------------------------------------------------------------------------*/
FoamFile
{
    version     2.0;
    format      ascii;
    class       volScalarField;
    location    "3.3e-06";
    object      Phi;
}
// * * * * * * * * * * * * * * * * * * * * * * * * * * * * * * * * * * * * * //

dimensions      [0 0 0 1 0 0 0];

internalField   nonuniform List<scalar> 
300
(
699.999933059194
699.999710375793
699.999203837437
699.998435655528
699.99741637763
699.996141648172
699.994612113082
699.992827931017
699.990789014587
699.988495394726
699.985947090276
699.983144117451
699.980086496459
699.976774247594
699.97320739049
699.969385943186
699.965309920873
699.96097933461
699.956394189947
699.951554485448
699.946460211111
699.941111346693
699.935507859931
699.929649704653
699.923536818794
699.917169122287
699.910546514862
699.903668873714
699.896536051068
699.88914787162
699.881504129862
699.873604587278
699.865448969424
699.857036962873
699.848368212035
699.839442315843
699.830258824305
699.820817234914
699.811116988932
699.801157467513
699.790937987701
699.780457798265
699.769716075395
699.758711918242
699.747444344307
699.735912284668
699.724114579054
699.712049970757
699.699717101372
699.687114505389
699.674240604594
699.661093702316
699.647671977497
699.633973478578
699.619996117217
699.605737661824
699.591195730906
699.576367786232
699.561251125808
699.54584287666
699.530139987417
699.514139220705
699.497837145332
699.481230128269
699.464314326427
699.447085678213
699.429539894873
699.411672451613
699.393478578493
699.37495325108
699.356091180879
699.336886805497
699.317334278573
699.297427459433
699.27715990249
699.256524846347
699.235515202633
699.214123544521
699.192342094943
699.170162714476
699.147576888895
699.124575716358
699.101149894228
699.077289705498
699.052985004802
699.028225203993
699.002999257256
698.977295645736
698.951102361646
698.924406891826
698.897196200715
698.869456712698
698.84117429379
698.812334232603
698.782921220556
698.752919331264
698.72231199905
698.691081996521
698.659211411123
698.626681620617
698.593473267372
698.559566231399
698.52493960201
698.489571648013
698.453439786299
698.416520548704
698.378789547008
698.340221435893
698.300789873707
698.260467480839
698.21922579549
698.177035226624
698.13386500384
698.089683123896
698.044456293571
697.998149868541
697.950727787897
697.902152503885
697.852384906432
697.801384241946
697.749108025836
697.695511948132
697.640549771524
697.584173221042
697.526331864531
697.466972982956
697.406041429477
697.343479476076
697.2792266464
697.213219533296
697.145391599322
697.075672958298
697.003990135709
696.930265805475
696.854418500257
696.776362292088
696.696006439655
696.613254998022
696.528006385996
696.440152905578
696.349580207118
696.256166692825
696.159782850065
696.060290504551
695.957541981866
695.851379163838
695.741632423979
695.628119423423
695.510643745508
695.388993343206
695.262938768739
695.132231148811
694.996599863084
694.855749871886
694.709358622842
694.55707251024
694.39850267617
694.233219802772
694.060750019161
693.880565747884
693.69206987203
693.494609455453
693.287325018253
693.069142767559
692.838918573004
692.595389962537
692.337097612053
692.062331968955
691.769067153172
691.454879339389
691.117075021342
690.752733817826
690.358681583403
689.931046958822
689.465617473611
688.958336199367
688.404339741059
687.798413762208
687.135918087304
686.411413481717
685.619552924983
684.755722032404
683.815093493515
682.793022233012
681.686324791809
680.491674846697
679.206229956847
677.828357461035
676.357193241899
674.791776925496
673.13179992427
671.377543372526
669.530012425483
667.589712094163
665.557606529574
663.433399637824
661.217749712619
658.91048871484
656.510814104877
654.018141001243
651.431743185843
648.751301322005
645.976916713791
643.10904619459
640.148627007308
637.096613681125
633.953955573002
630.721525777197
627.4001436853
623.990523331345
620.493321610641
616.909088629747
613.238530489137
609.482451057597
605.641606927522
601.716661247439
597.70824204188
593.616895978225
589.443144073208
585.187434913046
580.850197309328
576.431791745538
571.932563907371
567.352794705801
562.692756341379
557.952798567084
553.133399432725
548.234979660053
543.257963436701
538.202720988848
533.069630918551
527.859019884954
522.571226351583
517.206539206246
511.765261066263
506.247646090001
500.65396568702
494.984441449081
489.239316538887
483.418782701667
477.523056626035
471.552302906588
465.506713362197
459.386490662375
453.191984098265
446.92349113152
440.581340557879
434.165809259162
427.677207602991
421.115793073751
414.48185933462
407.775645516965
400.997429266141
394.147432344148
387.225917497787
380.23309017092
373.169198794088
366.0344338376
358.829030380647
351.553164500338
344.207058862792
336.790875898013
329.304826731745
321.749060661309
314.123777866088
306.429115157627
298.665261982219
290.832342525535
282.930535711259
274.96005920575
266.921197988079
258.814168643183
250.639245213121
242.396631432906
234.0865913831
225.709316956478
217.265063382602
208.754012063603
200.176410273591
191.532429518972
182.8223092698
174.046211276335
165.204367432366
156.296929700614
147.324122264704
138.28608730505
129.183041152365
120.01511620886
110.782520963704
101.485378105399
92.1238885941137
82.6981663774945
73.2084061227779
63.6547139393532
54.0372791435967
44.3562015552119
34.6116663339712
24.8037679509148
14.932688409076
4.99851789733573
)
;

boundaryField
{
    electrode
    {
        type            fixedValue;
        value           uniform 700;
    }
    ground
    {
        type            fixedValue;
        value           uniform 0;
    }
    otherfaces
    {
        type            empty;
    }
}


// ************************************************************************* //
