/*--------------------------------*- C++ -*----------------------------------*\
| =========                 |                                                 |
| \\      /  F ield         | foam-extend: Open Source CFD                    |
|  \\    /   O peration     | Version:     4.0                                |
|   \\  /    A nd           | Web:         http://www.foam-extend.org         |
|    \\/     M anipulation  |                                                 |
\*---------------------------------------------------------------------------*/
FoamFile
{
    version     2.0;
    format      ascii;
    class       volScalarField;
    location    "3.3e-06";
    object      PhiMean;
}
// * * * * * * * * * * * * * * * * * * * * * * * * * * * * * * * * * * * * * //

dimensions      [0 0 0 1 0 0 0];

internalField   nonuniform List<scalar> 
300
(
699.977740753937
699.975671398651
699.973353931226
699.970803456781
699.968029585797
699.965024415094
699.961786118418
699.958312859536
699.954602931694
699.950655049554
699.946468171236
699.942041519151
699.937374524577
699.9324668132
699.927318186895
699.921928605881
699.916298174597
699.910427132419
699.904315841827
699.897964777325
699.891374518068
699.884545739984
699.877479208741
699.870175772498
699.86263635386
699.85486196081
699.846853668931
699.838612615323
699.830139997881
699.821437062214
699.812505092486
699.803345432791
699.793959475017
699.784348634125
699.774514343913
699.764458051386
699.754181210213
699.74368527849
699.732971712119
699.722041956913
699.710897445978
699.699539597398
699.68796980407
699.67618942923
699.664199801986
699.652002212779
699.639597908941
699.626988092098
699.614173915387
699.601156486761
699.587936870177
699.574516104613
699.560895189821
699.54707509001
699.533056707146
699.51884087122
699.504428322075
699.489819702661
699.475015553486
699.460016305358
699.44482227453
699.429433656971
699.413850521212
699.398072800902
699.382100323943
699.365932804303
699.349569800683
699.333010711294
699.316254768274
699.299301030573
699.282148376693
699.26479549534
699.247240898627
699.229482921398
699.211519688398
699.193349121721
699.174968956221
699.156376719798
699.137569721351
699.11854500811
699.09929940856
699.079829471617
699.060131451144
699.040201300298
699.020034652559
698.999626837901
698.978972860804
698.958067364804
698.936904616651
698.91547850704
698.893782526708
698.87180974695
698.849552866476
698.827004126372
698.804155285311
698.780997603754
698.757521820097
698.733718132298
698.709576168538
698.685084970784
698.66023297333
698.635007967361
698.609397064777
698.583386716844
698.556962641109
698.53010979297
698.502812346534
698.47505363415
698.446816137594
698.418081427386
698.388830108054
698.35904177655
698.328694968242
698.297767120174
698.266234518825
698.234072223611
698.201254043154
698.167752482327
698.13353863508
698.09858209764
698.062850885908
698.026311387212
697.988928241864
697.95066429325
697.911480451423
697.87133553948
697.830186163506
697.787986607291
697.744688647263
697.700241395716
697.654591125871
697.607681087361
697.559451290791
697.509838266835
697.458774826266
697.406189859059
697.352007980204
697.296149160444
697.238528379482
697.179055250381
697.117633520426
697.054160551246
696.988526756486
696.920614969598
696.850299764101
696.777446700152
696.701911359763
696.623538317867
696.54215993455
696.457595006328
696.369647348721
696.278103991984
696.182733139635
696.083281943182
695.979473686984
695.871004669025
695.757540540624
695.6387120051
695.514109684934
695.383277884415
695.245707503032
695.100827105728
694.947987196105
694.786437631956
694.615307578262
694.43358590505
694.240091709431
694.033435934371
693.811969846008
693.573732213336
693.316382229435
693.037141566087
692.732779159872
692.399517757022
692.032981464085
691.628267888805
691.179843109633
690.681572565213
690.126992995721
689.509192679689
688.821043073691
688.055546179211
687.205927597592
686.265729346321
685.229518678409
684.092595544113
682.851178672359
681.502784259878
680.045990968302
678.480137964486
676.805348014937
675.022448598126
673.132838191666
671.138261275239
669.040163806922
666.839776515621
664.538073892973
662.135642831527
659.633113859217
657.031079398963
654.330206501165
651.531234110842
648.634984684111
645.642535397183
642.55512171503
639.373890126533
636.099908204635
632.73414701155
629.277506863182
625.730800091252
622.094781626226
618.370129198967
614.557606490972
610.658085181823
606.672387394602
602.60126577227
598.445435319177
594.205550613889
589.882238654195
585.476073290324
580.987609354763
576.417354707577
571.76580571327
567.033418000489
562.220644117628
557.328000219101
552.356096203505
547.305500394799
542.176775640082
536.97044577565
531.687033297975
526.327023494746
520.890905695873
515.379137930409
509.792186305239
504.130484129375
498.394475091193
492.584570429032
486.701194461978
480.744739593148
474.715614273965
468.614196476663
462.440887638979
456.196128648933
449.880433470886
443.494269987756
437.038130779052
430.51246164529
423.917735485616
417.254377449523
410.522842311797
403.72353574638
396.856895817016
389.923309688833
382.923199963634
375.856936182824
368.724926529807
361.527523770374
354.265122523325
346.938059652344
339.546716906552
332.091416039644
324.572526675934
316.990355903941
309.345261940731
301.637544050305
293.867566529132
286.035633949731
278.142152455053
270.187478336218
262.172045651331
254.096196808443
245.960355429662
237.764849124533
229.51009176095
221.196396552466
212.824168248912
204.393706120888
195.905406375851
187.359554802425
178.756539608385
170.096633451773
161.380217112441
152.607550455777
143.779007525321
134.894835786067
125.955403123445
116.960944876567
107.911823296664
98.8082618574199
89.650617625293
80.4391026955091
71.1740696584319
61.8557195154865
52.4844007712749
43.0603039254351
33.5837742586413
24.0549921920712
14.4743009136113
4.84187156637462
)
;

boundaryField
{
    electrode
    {
        type            calculated;
        value           uniform 700.000000000573;
    }
    ground
    {
        type            calculated;
        value           uniform 0;
    }
    otherfaces
    {
        type            empty;
    }
}


// ************************************************************************* //
