/*--------------------------------*- C++ -*----------------------------------*\
| =========                 |                                                 |
| \\      /  F ield         | foam-extend: Open Source CFD                    |
|  \\    /   O peration     | Version:     4.0                                |
|   \\  /    A nd           | Web:         http://www.foam-extend.org         |
|    \\/     M anipulation  |                                                 |
\*---------------------------------------------------------------------------*/
FoamFile
{
    version     2.0;
    format      ascii;
    class       volScalarField;
    location    "3.3e-06";
    object      Sy_electron;
}
// * * * * * * * * * * * * * * * * * * * * * * * * * * * * * * * * * * * * * //

dimensions      [1 -3 -1 0 0 0 0];

internalField   nonuniform List<scalar> 
300
(
4.12954078389772e-10
4.1301815330345e-10
4.13040386276759e-10
4.13026748089519e-10
4.13010808764684e-10
4.12987379359861e-10
4.12956611059778e-10
4.12919063520021e-10
4.12874593550669e-10
4.12823211829246e-10
4.12764932711573e-10
4.12699758316535e-10
4.12627696465848e-10
4.12548756846455e-10
4.12462950653261e-10
4.12370290899667e-10
4.12270792235137e-10
4.12164470852433e-10
4.12051344382079e-10
4.11931431775872e-10
4.11804753188683e-10
4.11671329851016e-10
4.11531183935303e-10
4.11384338413944e-10
4.11230816881292e-10
4.11070643477966e-10
4.10903842650228e-10
4.10730439000747e-10
4.10550457133152e-10
4.10363921429936e-10
4.10170855839752e-10
4.09971283753916e-10
4.09765227764095e-10
4.0955270940951e-10
4.09333748974156e-10
4.09108365253458e-10
4.08876575305738e-10
4.08638394222433e-10
4.08393834861781e-10
4.08142907575926e-10
4.07885619945037e-10
4.07621976500893e-10
4.07351978432154e-10
4.07075623291471e-10
4.06792904691719e-10
4.0650381199439e-10
4.0620832998742e-10
4.05906438565149e-10
4.05598112376684e-10
4.05283320512501e-10
4.04962026127662e-10
4.04634186147363e-10
4.04299750833032e-10
4.03958663484277e-10
4.03610860007738e-10
4.03256268566903e-10
4.02894809159209e-10
4.02526393245395e-10
4.02150923351497e-10
4.01768292662458e-10
4.0137838462331e-10
4.00981072517191e-10
4.00576219042713e-10
4.00163675876812e-10
3.99743283311684e-10
3.99314869825292e-10
3.98878251575755e-10
3.98433232007501e-10
3.97979601415458e-10
3.9751713650852e-10
3.97045599968651e-10
3.96564740006371e-10
3.96074289941965e-10
3.95573967772151e-10
3.95063475685951e-10
3.94542499686854e-10
3.9401070914477e-10
3.93467756341225e-10
3.92913276098154e-10
3.92346885235675e-10
3.91768182340104e-10
3.91176747195812e-10
3.90572140422296e-10
3.89953903092408e-10
3.89321556305359e-10
3.88674600865385e-10
3.88012516878156e-10
3.87334763362205e-10
3.86640777893185e-10
3.85929976310981e-10
3.85201752336523e-10
3.84455477214469e-10
3.83690499622182e-10
3.82906145142048e-10
3.82101716065168e-10
3.81276491133382e-10
3.80429725294349e-10
3.79560649473128e-10
3.78668470346386e-10
3.77752370182565e-10
3.76811506659926e-10
3.75845012694584e-10
3.74851996263139e-10
3.738315404249e-10
3.72782703078693e-10
3.71704516942546e-10
3.70595989532911e-10
3.69456103042092e-10
3.68283814415266e-10
3.67078055301677e-10
3.65837732073896e-10
3.64561725877451e-10
3.63248892679888e-10
3.61898063361928e-10
3.6050804379764e-10
3.59077614934752e-10
3.57605532929641e-10
3.56090529333719e-10
3.54531311128282e-10
3.52926560881473e-10
3.51274936870923e-10
3.49575073295553e-10
3.47825580289763e-10
3.46025044148904e-10
3.44172027371153e-10
3.42265068711694e-10
3.40302683209158e-10
3.38283362286561e-10
3.36205573609995e-10
3.34067761042711e-10
3.31868344453419e-10
3.29605719510127e-10
3.2727825733501e-10
3.2488430404655e-10
3.22422180223915e-10
3.19890180307362e-10
3.17286571668883e-10
3.14609593583784e-10
3.11857456072693e-10
3.09028338508302e-10
3.06120387883392e-10
3.03131716910906e-10
3.00060401776347e-10
2.96904479598936e-10
2.9366194552222e-10
2.90330749446082e-10
2.86908792186018e-10
2.83393921304456e-10
2.79783926381754e-10
2.76076533784095e-10
2.72269400929763e-10
2.68360109699968e-10
2.64346160679767e-10
2.60224964461556e-10
2.55993834350433e-10
2.51650022556699e-10
2.47190674508049e-10
2.42612816953913e-10
2.37916000994757e-10
2.33199029356018e-10
2.28527859611198e-10
2.23752548116186e-10
2.18861039683243e-10
2.1381039951108e-10
2.08583620985318e-10
2.03183899906775e-10
1.97609544768022e-10
1.91854155621911e-10
1.85891966019836e-10
1.79671311381494e-10
1.73149045292329e-10
1.66334596245158e-10
1.59251716815036e-10
1.51843113618862e-10
1.44093579391843e-10
1.3610712903036e-10
1.27905007690195e-10
1.19536202962971e-10
1.11203671416647e-10
1.03050197623943e-10
9.52483710948374e-11
8.81166130556149e-11
8.19851592978533e-11
7.89027540299522e-11
7.81239594958965e-11
8.09003077871568e-11
9.39909902831951e-11
1.2655242591705e-10
1.95537464811905e-10
3.09358600531691e-10
4.76521716770612e-10
7.24254368811276e-10
1.12552616640025e-09
1.81344324502124e-09
3.04746558692116e-09
4.56737362908809e-09
5.90369149151072e-09
7.10344236606739e-09
7.18289779750841e-09
6.38871896401174e-09
5.22897630276387e-09
4.08430752719657e-09
3.20586771067128e-09
2.5742060737536e-09
2.16281949068808e-09
1.89528319649857e-09
1.72672973884547e-09
1.62597331981383e-09
1.56294697768892e-09
1.52579445516188e-09
1.50791198275832e-09
1.50195457054761e-09
1.49841142564696e-09
1.49819655123685e-09
1.49984050576019e-09
1.50179027209013e-09
1.50299649135449e-09
1.50275391600755e-09
1.50060474170633e-09
1.49627081830496e-09
1.48959210773383e-09
1.4804711324204e-09
1.46861591815278e-09
1.45345189452194e-09
1.43616882797387e-09
1.41693023725338e-09
1.39591866419161e-09
1.37332655613135e-09
1.34934960439067e-09
1.32418232142996e-09
1.29801463081006e-09
1.27102930067355e-09
1.24340003073313e-09
1.21529007233349e-09
1.1868512864419e-09
1.15822358003858e-09
1.12953463227399e-09
1.1008998758982e-09
1.07242267838878e-09
1.04419468139269e-09
1.0162962796682e-09
9.88797203792074e-10
9.61757370607672e-10
9.35228106253212e-10
9.092528083203e-10
8.83866880731648e-10
8.59097725275752e-10
8.3496585670149e-10
8.11480109161874e-10
7.88642224930196e-10
7.66456363222703e-10
7.44925629584177e-10
7.24049422416928e-10
7.03823943083201e-10
6.84242219492464e-10
6.65297001016313e-10
6.46975962000268e-10
6.29261932402845e-10
6.12139549313811e-10
5.95595506044232e-10
5.79613674859402e-10
5.64176997326206e-10
5.49267925000003e-10
5.34868695267743e-10
5.20961153761025e-10
5.07526595723555e-10
4.94538967002004e-10
4.8197361247175e-10
4.69814230031517e-10
4.58045589443963e-10
4.46653666717804e-10
4.35625011221366e-10
4.24946775181953e-10
4.14606722641828e-10
4.0459327330036e-10
3.94895544018177e-10
3.85503391273014e-10
3.76407454720556e-10
3.67599190433586e-10
3.59070892619772e-10
3.50815430910674e-10
3.42572896121268e-10
3.3426780159188e-10
3.26170404116628e-10
3.18258889545848e-10
3.10541368526724e-10
3.0302879242353e-10
2.95732605293047e-10
2.88591291817904e-10
2.80574982254731e-10
2.72712662542316e-10
2.65043847071373e-10
2.57600890080599e-10
2.48421753993404e-10
2.39488578986172e-10
2.29570965731445e-10
2.18306322581217e-10
2.04630408054254e-10
1.87599563469371e-10
1.63887249316448e-10
)
;

boundaryField
{
    electrode
    {
        type            zeroGradient;
    }
    ground
    {
        type            zeroGradient;
    }
    otherfaces
    {
        type            empty;
    }
}


// ************************************************************************* //
