/*--------------------------------*- C++ -*----------------------------------*\
| =========                 |                                                 |
| \\      /  F ield         | foam-extend: Open Source CFD                    |
|  \\    /   O peration     | Version:     4.0                                |
|   \\  /    A nd           | Web:         http://www.foam-extend.org         |
|    \\/     M anipulation  |                                                 |
\*---------------------------------------------------------------------------*/
FoamFile
{
    version     2.0;
    format      ascii;
    class       volScalarField;
    location    "3.3e-06";
    object      Te;
}
// * * * * * * * * * * * * * * * * * * * * * * * * * * * * * * * * * * * * * //

dimensions      [0 0 0 1 0 0 0];

internalField   nonuniform List<scalar> 
300
(
37512.1441578431
37512.417903962
37512.6077910854
37512.7441841402
37512.9461663519
37513.1954654209
37513.4927308652
37513.8399217447
37514.2365183995
37514.6825443333
37515.1780313524
37515.7229664229
37516.3173550381
37516.9612078174
37517.6545396013
37518.3973708596
37519.1897274096
37520.0316404186
37520.9231464608
37521.8642875424
37522.8551111364
37523.895670219
37524.9860233108
37526.1262345239
37527.3163736068
37528.5565159968
37529.8467428781
37531.1871412394
37532.5778039368
37534.0188297619
37535.5103235153
37537.0523960829
37538.6451645179
37540.2887521277
37541.983288564
37543.7289099223
37545.5257588423
37547.3739846175
37549.2737433109
37551.2251978745
37553.2285182764
37555.2838816374
37557.3914723714
37559.5514823328
37561.7641109769
37564.0295655227
37566.3480611258
37568.7198210635
37571.1450769238
37573.6240688084
37576.157045546
37578.7442649097
37581.3859938548
37584.0825087625
37586.8340956964
37589.6410506709
37592.5036799351
37595.4223002698
37598.3972392977
37601.4288358095
37604.5174401044
37607.6634143511
37610.8671329608
37614.1289829825
37617.4493645135
37620.8286911358
37624.2673903668
37627.7659041334
37631.3246892727
37634.9442180503
37638.624978709
37642.3674760446
37646.1722320038
37650.0397863152
37653.97069715
37657.9655418165
37662.024917486
37666.1494419533
37670.3397544399
37674.5965164306
37678.9204125568
37683.312151519
37687.7724670594
37692.3021189824
37696.9018942249
37701.5726079854
37706.3151049067
37711.1302603224
37716.0189815661
37720.9822093532
37726.020919233
37731.1361231169
37736.3288708926
37741.6002521254
37746.9513978504
37752.3834824676
37757.8977257407
37763.4953949104
37769.1778069281
37774.9463308198
37780.8023901894
37786.747465868
37792.7830987246
37798.9108926485
37805.132517714
37811.4497135414
37817.864292874
37824.3781453854
37830.9932417316
37837.7116378706
37844.535479675
37851.4670078565
37858.5085632284
37865.6625923417
37872.9316535228
37880.3184233432
37887.8257035687
37895.456428631
37903.2136736617
37911.100663153
37919.1207803008
37927.2775770889
37935.5747852043
37944.0163278572
37952.6063325929
37961.3491452156
37970.2493449312
37979.3117608462
37988.54148997
37997.9439168929
38007.5247353326
38017.2899717679
38027.2460114061
38037.3996267773
38047.7580092768
38058.3288040285
38069.1201485101
38080.1407154271
38091.399760423
38102.907175293
38114.6735474679
38126.7102266986
38139.0293999897
38151.6441760405
38164.5686806593
38177.8181648995
38191.4091279739
38205.3594573942
38219.6885892539
38234.417692289
38249.5698796512
38265.1704533529
38281.2471951976
38297.8306918641
38314.9547283401
38332.6570089347
38350.9795414563
38369.9692063128
38389.69633126
38410.2318648256
38431.6760005812
38454.2373353407
38477.9932802535
38502.8547449194
38528.8992443147
38556.3505751599
38585.4342414389
38616.3863946974
38649.3527073801
38684.3149363357
38721.3039516786
38760.7418298832
38803.2014645944
38848.5934134072
38897.0926922366
38949.9357221943
39007.6305340618
39070.9045095366
39142.2790089412
39224.0074472421
39319.1707418064
39433.7347261248
39574.7475169949
39751.6964740865
39979.5777025409
40277.9622573335
40672.6137168685
41203.5827977439
41925.4224569566
42902.6200849204
44244.2668486407
46109.5739059336
48719.4553507389
52444.1316082068
57853.2290225365
64795.7350094434
73815.306260972
87728.0555013901
106148.97111093
130939.269417016
164008.541148287
206328.108211656
257026.512625629
313147.043566939
370846.321777449
426706.117500086
478483.756844105
525145.089970289
566485.848666236
602788.227141548
634587.69646177
662530.062438225
687156.484489481
708960.627202042
728416.716614516
745905.605309065
761746.564116094
776203.123284498
789493.643933189
801800.267284632
813273.655198713
824030.213784639
834171.548064112
843789.773012631
852957.042486394
861733.587017704
870169.112998661
878304.495732054
886173.062745093
893801.755805021
901212.00188887
908420.437188597
915439.506533987
922277.964834137
928941.298781151
935432.090360842
941750.325719898
947893.664975387
953857.679447908
959636.057710729
965220.792788244
970602.319472545
975769.640943902
980710.61496219
985412.148319645
989860.200549244
994039.715139875
997935.956438966
1001531.67994789
1004807.85604748
1007747.88366919
1010334.79077263
1012550.50815679
1014376.68089601
1015793.99912936
1016784.44594076
1017317.94444583
1017394.05484016
1016985.93108407
1016072.60359465
1014633.53312465
1012648.37965302
1010096.63617937
1006957.68596603
1003210.67106027
998836.461191204
993811.652773637
988112.594695998
981719.410589494
974609.163203224
966758.496334478
958143.068916693
948737.686003546
938516.161828756
927451.200841232
915514.244029293
902675.297744957
888902.739650158
874163.094446425
858420.870643566
841638.340453352
823777.280869547
804800.819856053
784657.381064524
763293.714726068
740657.697002742
716680.757478051
691286.158262701
664405.401121861
635946.402400683
605796.463797596
573840.21649029
539932.455330831
503887.018803622
465484.291812095
424440.524675188
380358.237970515
332692.535460584
280641.47522927
223156.418400308
)
;

boundaryField
{
    electrode
    {
        type            electronTemperature;
        seec            0.05;
        Tse             1000;
        Edepend         1;
        TFN             1000;
        field_emission  0;
        field_enhancement_factor 55;
        work_function   5;
        value           uniform 37512.1441578431;
    }
    ground
    {
        type            electronTemperature;
        seec            0.05;
        Tse             1000;
        Edepend         1;
        TFN             1000;
        field_emission  0;
        field_enhancement_factor 55;
        work_function   5;
        value           uniform 190513.980965074;
    }
    otherfaces
    {
        type            empty;
    }
}


// ************************************************************************* //
