/*--------------------------------*- C++ -*----------------------------------*\
| =========                 |                                                 |
| \\      /  F ield         | foam-extend: Open Source CFD                    |
|  \\    /   O peration     | Version:     4.0                                |
|   \\  /    A nd           | Web:         http://www.foam-extend.org         |
|    \\/     M anipulation  |                                                 |
\*---------------------------------------------------------------------------*/
FoamFile
{
    version     2.0;
    format      ascii;
    class       volScalarField;
    location    "3.3e-06";
    object      TeMean;
}
// * * * * * * * * * * * * * * * * * * * * * * * * * * * * * * * * * * * * * //

dimensions      [0 0 0 1 0 0 0];

internalField   nonuniform List<scalar> 
300
(
30719.8264619563
30720.1118117704
30720.1830594041
30720.0647729455
30719.9207882094
30719.7348870113
30719.5097323925
30719.2490075606
30718.9534728678
30718.6242690131
30718.2624785709
30717.869143229
30717.4452662933
30716.9917880823
30716.5096145581
30715.9996141148
30715.4626154358
30714.899416571
30714.3107840242
30713.6974523701
30713.0601296054
30712.3994930285
30711.7161938467
30711.0108557133
30710.2840739058
30709.5364365947
30708.7685106398
30707.9808364062
30707.1739443706
30706.3483325241
30705.5044638019
30704.6428135524
30703.763864713
30702.8680697209
30701.9558612855
30701.0276445135
30700.0838123738
30699.1247627747
30698.150881602
30697.1625339374
30696.1600679573
30695.1438369097
30694.114183122
30693.0714323636
30692.0159005109
30690.9478929089
30689.8677033369
30688.7756120382
30687.6718793093
30686.5567452673
30685.4304302788
30684.2931633789
30683.1451982357
30681.9867773994
30680.8181414653
30679.6395405178
30678.4512033533
30677.253341172
30676.0461724387
30674.8299103818
30673.6047597895
30672.3709344596
30671.1286101095
30669.877944136
30668.6191439743
30667.3524381142
30666.0780397968
30664.7961507239
30663.5069681565
30662.210694088
30660.9075192211
30659.5976057282
30658.281137383
30656.9583121016
30655.6293001961
30654.2942489302
30652.9533362908
30651.6067853089
30650.2547893682
30648.8975236159
30647.5352111949
30646.1680834619
30644.7963372551
30643.4201490923
30642.039693669
30640.6551874633
30639.2668797576
30637.8749985348
30636.479754353
30635.0813777362
30633.6800760382
30632.2760553204
30630.8696134422
30629.4610210148
30628.0505287356
30626.6384333853
30625.225020956
30623.8105865578
30622.395423367
30620.9798389193
30619.5641836065
30618.1487622026
30616.7338837079
30615.3199346313
30613.9073029485
30612.496375267
30611.0875420131
30609.6812118958
30608.2778339304
30606.8778686172
30605.481794578
30604.0901044732
30602.7032937906
30601.3219188255
30599.9465372856
30598.577702496
30597.2159828902
30595.862014301
30594.5165017936
30593.1801017091
30591.8534872301
30590.5373876447
30589.2325543922
30587.9398079956
30586.6600527978
30585.3941998357
30584.1431539854
30582.9079026834
30581.6895115906
30580.4890520246
30579.3076411449
30578.1464915204
30577.0069030771
30575.8901608934
30574.7975979922
30573.7307603103
30572.6912959436
30571.6808805571
30570.7013298415
30569.7546417699
30568.8429543987
30567.9685304471
30567.1337807832
30566.3412883195
30565.5939026078
30564.8948123007
30564.2475331063
30563.6559563341
30563.1242560946
30562.6570248737
30562.2595379704
30561.9376383794
30561.6978697054
30561.5477528736
30561.49573277
30561.5514068653
30561.7258525986
30562.0320029496
30562.4850842917
30563.1031986081
30563.9110224242
30564.9457160766
30566.2539121686
30567.8812721241
30569.8748010491
30572.2946141807
30575.2197457037
30578.7432223253
30582.962884086
30587.9734718991
30593.8265540757
30600.5402580455
30608.1599599205
30616.6568516784
30625.938874327
30636.02812702
30646.8986685693
30658.6169492376
30671.8054001092
30687.5794979486
30707.9455911933
30736.8291916022
30780.5221182301
30848.7692686763
30957.1662079882
31129.1011767253
31399.2487112387
31820.3161417986
32472.440560048
33478.5281780474
35031.1261909387
37444.322482634
41234.5856336998
47427.5656966761
57000.2270274106
70560.073744358
90566.8466503737
117818.692761374
154238.875395296
199925.450227276
253674.07145286
312550.726017396
373055.028574142
431590.403427073
485515.967816894
533514.64977784
575402.570541231
611636.369111938
642968.641877708
670194.868218736
694008.791217017
714982.710272494
733602.330236349
750278.951413432
765349.285294462
779086.425145491
791713.08074501
803411.516066872
814331.124352311
824592.423394162
834295.776783929
843521.685212031
852336.733365088
860800.498283466
868960.393767262
876854.679021665
884514.233836525
891963.613423544
899221.963703382
906303.784587171
913219.544172311
919976.197171952
926577.614744648
933024.802591745
939316.294163516
945448.538258126
951416.018149157
957211.487270247
962826.146960026
968249.826685099
973471.120685285
978477.502757492
983255.507025346
987790.928782925
992068.933165984
996074.21698709
999790.504149472
1003201.10932937
1006289.37066755
1009037.73911234
1011429.14229343
1013446.85802316
1015073.51000593
1016291.62929864
1017083.52311002
1017431.41463335
1017315.8393266
1016716.68139789
1015627.68099049
1014023.9703966
1011887.94410252
1009201.15081718
1005945.48043038
1002102.63015085
997654.133257869
992581.753909625
986866.426466657
980488.476591568
973428.748896446
965667.250097061
957183.033069071
947954.774788011
937960.597431577
927177.311787409
915580.42927841
903144.154283443
889841.273028806
875642.950822282
860518.597353446
844435.571885456
827359.081429664
809251.926679383
790078.570470422
769794.920166538
748349.394512016
725691.279343255
701759.621562524
676482.757479218
649789.674374012
621595.434888539
591795.363393281
560272.858020202
526893.339393587
491480.046561812
453819.237328926
413639.37090523
370556.306328188
324047.681554757
273351.204711758
217453.2192482
)
;

boundaryField
{
    electrode
    {
        type            calculated;
        value           uniform 30719.8264619599;
    }
    ground
    {
        type            calculated;
        value           uniform 185772.498628111;
    }
    otherfaces
    {
        type            empty;
    }
}


// ************************************************************************* //
