/*--------------------------------*- C++ -*----------------------------------*\
| =========                 |                                                 |
| \\      /  F ield         | foam-extend: Open Source CFD                    |
|  \\    /   O peration     | Version:     4.0                                |
|   \\  /    A nd           | Web:         http://www.foam-extend.org         |
|    \\/     M anipulation  |                                                 |
\*---------------------------------------------------------------------------*/
FoamFile
{
    version     2.0;
    format      ascii;
    class       volScalarField;
    location    "3.2e-06";
    object      Ar;
}
// * * * * * * * * * * * * * * * * * * * * * * * * * * * * * * * * * * * * * //

dimensions      [0 0 0 1 0 0 0];

internalField   nonuniform List<scalar> 
300
(
3.21880356835771e+22
3.21880356476946e+22
3.21880356719173e+22
3.21880356848572e+22
3.21880357040496e+22
3.21880357306861e+22
3.21880357632765e+22
3.21880358021592e+22
3.21880358473094e+22
3.21880358986675e+22
3.21880359562169e+22
3.21880360199335e+22
3.21880360897937e+22
3.2188036165775e+22
3.21880362478548e+22
3.21880363360108e+22
3.21880364302233e+22
3.21880365304681e+22
3.21880366367204e+22
3.21880367489563e+22
3.21880368671517e+22
3.2188036991282e+22
3.2188037121322e+22
3.21880372572462e+22
3.21880373990449e+22
3.2188037546679e+22
3.21880377001234e+22
3.2188037859354e+22
3.2188038024335e+22
3.21880381950387e+22
3.21880383714561e+22
3.21880385535527e+22
3.21880387412873e+22
3.21880389346312e+22
3.21880391335562e+22
3.21880393380343e+22
3.21880395480426e+22
3.21880397635517e+22
3.21880399845322e+22
3.21880402109587e+22
3.21880404428061e+22
3.21880406800481e+22
3.21880409226607e+22
3.21880411706206e+22
3.21880414239053e+22
3.21880416824939e+22
3.21880419463684e+22
3.21880422155115e+22
3.21880424899164e+22
3.2188042769571e+22
3.21880430544758e+22
3.21880433446077e+22
3.21880436399629e+22
3.21880439405162e+22
3.21880442462536e+22
3.21880445571547e+22
3.21880448732143e+22
3.21880451944291e+22
3.21880455207987e+22
3.21880458523267e+22
3.21880461890153e+22
3.2188046530871e+22
3.21880468779086e+22
3.21880472301596e+22
3.21880475876365e+22
3.21880479503329e+22
3.21880483182684e+22
3.2188048691466e+22
3.21880490699519e+22
3.21880494537555e+22
3.21880498429114e+22
3.21880502374638e+22
3.21880506374547e+22
3.21880510429202e+22
3.21880514539208e+22
3.2188051870506e+22
3.21880522927232e+22
3.21880527206342e+22
3.218805315428e+22
3.21880535937559e+22
3.21880540390956e+22
3.21880544903692e+22
3.21880549476555e+22
3.21880554110318e+22
3.21880558805962e+22
3.21880563564281e+22
3.21880568386066e+22
3.21880573272259e+22
3.21880578223963e+22
3.21880583242122e+22
3.21880588327854e+22
3.21880593482703e+22
3.21880598707247e+22
3.21880604002636e+22
3.21880609370072e+22
3.21880614810788e+22
3.21880620326058e+22
3.21880625917186e+22
3.21880631585617e+22
3.21880637332713e+22
3.21880643159807e+22
3.21880649068306e+22
3.21880655059978e+22
3.21880661136003e+22
3.21880667297969e+22
3.21880673547491e+22
3.21880679885956e+22
3.21880686315117e+22
3.21880692836444e+22
3.21880699451468e+22
3.21880706161808e+22
3.21880712969093e+22
3.21880719875015e+22
3.21880726881215e+22
3.21880733989334e+22
3.21880741201168e+22
3.21880748518517e+22
3.21880755942741e+22
3.21880763475424e+22
3.21880771118228e+22
3.21880778872979e+22
3.2188078674109e+22
3.21880794724366e+22
3.21880802824191e+22
3.21880811041906e+22
3.21880819378951e+22
3.21880827836985e+22
3.21880836417166e+22
3.21880845120886e+22
3.21880853949396e+22
3.21880862904022e+22
3.21880871985913e+22
3.21880881196159e+22
3.21880890535989e+22
3.2188090000666e+22
3.2188090960879e+22
3.21880919343059e+22
3.21880929210346e+22
3.21880939211364e+22
3.21880949346443e+22
3.21880959616052e+22
3.21880970020547e+22
3.21880980560314e+22
3.21880991235603e+22
3.21881002046447e+22
3.2188101299228e+22
3.21881024072721e+22
3.21881035287228e+22
3.21881046635207e+22
3.21881058116045e+22
3.21881069728285e+22
3.2188108147059e+22
3.21881093341722e+22
3.21881105339514e+22
3.21881117461645e+22
3.21881129705586e+22
3.21881142068463e+22
3.21881154546997e+22
3.21881167134014e+22
3.21881179829908e+22
3.21881192640933e+22
3.21881205492933e+22
3.21881218358227e+22
3.21881231311319e+22
3.21881244370932e+22
3.21881257501244e+22
3.218812706812e+22
3.21881283813566e+22
3.21881296945113e+22
3.21881310062487e+22
3.21881323141854e+22
3.21881336411979e+22
3.21881349272577e+22
3.21881361930599e+22
3.21881374904664e+22
3.21881387223978e+22
3.21881399071301e+22
3.21881411078666e+22
3.21881422110582e+22
3.21881432648217e+22
3.21881442892576e+22
3.21881452142679e+22
3.21881460508573e+22
3.21881468632137e+22
3.21881475494572e+22
3.21881481510265e+22
3.21881487095528e+22
3.21881491950893e+22
3.21881495819563e+22
3.21881499112089e+22
3.21881502083007e+22
3.21881504688016e+22
3.21881506587099e+22
3.21881508186862e+22
3.21881508798827e+22
3.21881509089948e+22
3.21881508764784e+22
3.21881508568212e+22
3.21881508488304e+22
3.21881508468991e+22
3.21881508758968e+22
3.21881509141199e+22
3.21881509659397e+22
3.21881510312829e+22
3.21881510917282e+22
3.2188151147284e+22
3.21881511973151e+22
3.21881512428087e+22
3.21881512822334e+22
3.21881513180438e+22
3.21881513487745e+22
3.21881513881797e+22
3.21881514318159e+22
3.21881514731366e+22
3.21881515098876e+22
3.21881515448595e+22
3.21881515757434e+22
3.21881516054706e+22
3.21881516314995e+22
3.21881516569829e+22
3.21881516790522e+22
3.21881517009404e+22
3.21881517196864e+22
3.21881517385476e+22
3.2188151761395e+22
3.21881517908094e+22
3.21881518173911e+22
3.2188151844173e+22
3.2188151868251e+22
3.21881518926792e+22
3.21881519144677e+22
3.21881519368026e+22
3.21881519565137e+22
3.21881519769274e+22
3.21881519947703e+22
3.21881520134832e+22
3.21881520296309e+22
3.21881520468007e+22
3.2188152061442e+22
3.2188152077144e+22
3.21881520903724e+22
3.21881521047179e+22
3.21881521194785e+22
3.21881521415427e+22
3.2188152160904e+22
3.21881521817375e+22
3.21881521997523e+22
3.21881522194198e+22
3.21881522362412e+22
3.21881522547893e+22
3.21881522705044e+22
3.21881522880149e+22
3.21881523027011e+22
3.21881523192388e+22
3.21881523329343e+22
3.21881523485859e+22
3.21881523613165e+22
3.21881523761145e+22
3.21881523879079e+22
3.21881524018686e+22
3.21881524127095e+22
3.21881524258438e+22
3.21881524357887e+22
3.21881524481365e+22
3.21881524572576e+22
3.21881524688869e+22
3.21881524772617e+22
3.21881524882429e+22
3.21881525012319e+22
3.21881525174561e+22
3.21881525303446e+22
3.21881525459235e+22
3.2188152558088e+22
3.21881525730263e+22
3.21881525844771e+22
3.21881525988018e+22
3.2188152609531e+22
3.21881526232547e+22
3.21881526332781e+22
3.21881526464365e+22
3.21881526557943e+22
3.21881526684636e+22
3.21881526773387e+22
3.21881526897015e+22
3.21881526980784e+22
3.2188152710066e+22
3.21881527179663e+22
3.21881527295821e+22
3.21881527370101e+22
3.21881527484389e+22
3.21881527556249e+22
3.21881527667512e+22
3.21881527734749e+22
3.21881527844962e+22
3.21881527910829e+22
3.21881528019255e+22
3.21881528084575e+22
3.21881528195041e+22
3.21881528262707e+22
3.21881528402035e+22
)
;

boundaryField
{
    electrode
    {
        type            zeroGradient;
    }
    ground
    {
        type            zeroGradient;
    }
    otherfaces
    {
        type            empty;
    }
}


// ************************************************************************* //
