/*--------------------------------*- C++ -*----------------------------------*\
| =========                 |                                                 |
| \\      /  F ield         | foam-extend: Open Source CFD                    |
|  \\    /   O peration     | Version:     4.0                                |
|   \\  /    A nd           | Web:         http://www.foam-extend.org         |
|    \\/     M anipulation  |                                                 |
\*---------------------------------------------------------------------------*/
FoamFile
{
    version     2.0;
    format      ascii;
    class       volScalarField;
    location    "3.2e-06";
    object      Arm;
}
// * * * * * * * * * * * * * * * * * * * * * * * * * * * * * * * * * * * * * //

dimensions      [0 0 0 1 0 0 0];

internalField   nonuniform List<scalar> 
300
(
3.57414845491918e+15
3.57602681755595e+15
3.57797605203508e+15
3.5792819344878e+15
3.58009812386427e+15
3.58047661854141e+15
3.58046162919973e+15
3.58008458898668e+15
3.57937115477837e+15
3.57834331279012e+15
3.57701683350315e+15
3.57540580334155e+15
3.57352227512874e+15
3.5713768512753e+15
3.56897898864368e+15
3.56633723456445e+15
3.56345640576087e+15
3.56034509249129e+15
3.55701163771113e+15
3.55346251954386e+15
3.54970393945318e+15
3.54574181914106e+15
3.54158184863413e+15
3.5372294892449e+15
3.53267402640733e+15
3.52793323504233e+15
3.52301080766018e+15
3.51790874798161e+15
3.51264066655026e+15
3.50721145331939e+15
3.50160731077317e+15
3.4958396295738e+15
3.48992653365448e+15
3.48387339519452e+15
3.47768530045502e+15
3.47136705485199e+15
3.46491882256624e+15
3.45834712497144e+15
3.45165903473302e+15
3.44485808417943e+15
3.43794777540344e+15
3.43093338745867e+15
3.42381880018923e+15
3.41660770521053e+15
3.40930360276333e+15
3.40190975841902e+15
3.39442711432509e+15
3.38685712736283e+15
3.3791920202661e+15
3.37143039857587e+15
3.36355962663043e+15
3.35559224803683e+15
3.34752283281803e+15
3.33936912935052e+15
3.33113925510745e+15
3.32284960016855e+15
3.31450345412285e+15
3.30610373312146e+15
3.29765301084524e+15
3.28915169983734e+15
3.28060412103342e+15
3.272012388487e+15
3.26337316546196e+15
3.25466845580437e+15
3.24590223810687e+15
3.2371001392767e+15
3.22826423161133e+15
3.21939635486109e+15
3.21049809484377e+15
3.20157081291658e+15
3.19261366728871e+15
3.18361949576623e+15
3.17458675836618e+15
3.16552292866651e+15
3.15641443114509e+15
3.14726233318041e+15
3.13807299296141e+15
3.12884224816647e+15
3.11959014828732e+15
3.11028602477273e+15
3.10096455587701e+15
3.0916278423598e+15
3.08227279021928e+15
3.07290168102059e+15
3.06349965797928e+15
3.05407448043895e+15
3.04463786844777e+15
3.03519014312445e+15
3.02571936388199e+15
3.01623331649685e+15
3.00672600993855e+15
2.99715225775026e+15
2.98756747820311e+15
2.97797326059291e+15
2.96836963237908e+15
2.95875661991024e+15
2.94913400485992e+15
2.93950136433606e+15
2.92984774195232e+15
2.92017308094162e+15
2.91048365519158e+15
2.90078077112988e+15
2.89103257414157e+15
2.88126838590842e+15
2.87147895059194e+15
2.86165489973242e+15
2.85181131281164e+15
2.84192851491833e+15
2.832016963841e+15
2.82208211351166e+15
2.81212208724226e+15
2.8021346033361e+15
2.79211191075091e+15
2.78205180251396e+15
2.77195207270079e+15
2.76179505552388e+15
2.7515618214148e+15
2.74127723490525e+15
2.73094215501762e+15
2.72054851096028e+15
2.71006985903037e+15
2.69951923928431e+15
2.68886758534526e+15
2.67812532813723e+15
2.66730391269113e+15
2.65640114996635e+15
2.64538886018145e+15
2.63428454895636e+15
2.623077353165e+15
2.61176525311689e+15
2.6003325812996e+15
2.58877548003812e+15
2.57708897044887e+15
2.56524695525418e+15
2.55321290774381e+15
2.54100575013784e+15
2.52862941914093e+15
2.51605883805062e+15
2.50327512774961e+15
2.4902874599514e+15
2.47707982442314e+15
2.46363558011405e+15
2.44992256702792e+15
2.43590867933839e+15
2.42156926900572e+15
2.40692421145904e+15
2.39195860777104e+15
2.37665610607513e+15
2.36098617299871e+15
2.3448998425636e+15
2.32840963810891e+15
2.31149081169951e+15
2.29408100165048e+15
2.27617909450677e+15
2.25776684748362e+15
2.23879449515384e+15
2.21921875246624e+15
2.1990391260884e+15
2.17823647727673e+15
2.15676581231554e+15
2.13459151421203e+15
2.11169853325596e+15
2.08804854646766e+15
2.06365416990885e+15
2.03850242412299e+15
2.01253862849206e+15
1.98578365333934e+15
1.95828210501765e+15
1.93006292412695e+15
1.90116806691345e+15
1.8716661942363e+15
1.84159054322139e+15
1.81103347767511e+15
1.78016656279076e+15
1.74918379050164e+15
1.71825497684496e+15
1.68755929854471e+15
1.65729573506034e+15
1.62770320428686e+15
1.59893719444748e+15
1.57115198067738e+15
1.54449464843951e+15
1.51904645218026e+15
1.49492228342875e+15
1.47212188885983e+15
1.450554662153e+15
1.4302601893547e+15
1.41118679561583e+15
1.39324545712102e+15
1.37634681983062e+15
1.36036927837563e+15
1.34527489032019e+15
1.33126458546415e+15
1.32250390672029e+15
1.34277455874252e+15
1.39543190201817e+15
1.4508051448307e+15
1.47433922379531e+15
1.4709343144597e+15
1.45258693137916e+15
1.42757082485471e+15
1.4029057485491e+15
1.3822058363583e+15
1.36610736513233e+15
1.35397160622994e+15
1.34487609263686e+15
1.33743675294035e+15
1.33146178538634e+15
1.32655014728423e+15
1.32237607624374e+15
1.31821066108088e+15
1.3138990667984e+15
1.30957715887139e+15
1.30524746782482e+15
1.30086789958368e+15
1.29637300662674e+15
1.29171211771393e+15
1.28690097322655e+15
1.28191681186951e+15
1.27675852906553e+15
1.27144435431208e+15
1.26596990442732e+15
1.26034680535913e+15
1.25446154851636e+15
1.24835835947103e+15
1.24219155957764e+15
1.23599306554951e+15
1.22977183338949e+15
1.22355081358938e+15
1.21735758777452e+15
1.21119600224773e+15
1.2050848448063e+15
1.19904690061345e+15
1.1930873349716e+15
1.18721401674224e+15
1.18145076101091e+15
1.17578757280752e+15
1.17024836354841e+15
1.16482561814516e+15
1.15953267561808e+15
1.15437188521876e+15
1.14933659116287e+15
1.14444209468516e+15
1.13967412208985e+15
1.13503813984205e+15
1.13054838861201e+15
1.12618927344259e+15
1.12196639656773e+15
1.11787994498113e+15
1.11391941046759e+15
1.11008932967553e+15
1.10638324850268e+15
1.10279612204575e+15
1.09933110717178e+15
1.09597970608322e+15
1.09273949448991e+15
1.0896092276755e+15
1.08657354882718e+15
1.08364160640935e+15
1.08080584996095e+15
1.07807252058727e+15
1.07542949854541e+15
1.0728802316446e+15
1.07041710663427e+15
1.06803858225061e+15
1.06574166030491e+15
1.06351964465334e+15
1.06137048610912e+15
1.05928459616239e+15
1.05726900277099e+15
1.05531706065738e+15
1.05343515597086e+15
1.05161107290643e+15
1.04985140880887e+15
1.04814480177496e+15
1.04649049734277e+15
1.04488738544154e+15
1.04333602197726e+15
1.0418388753552e+15
1.04038997243603e+15
1.03898853426923e+15
1.03761110803e+15
1.03618713387621e+15
1.03477835989298e+15
1.03341122240812e+15
1.03207600785302e+15
1.0307798401859e+15
1.02952333177418e+15
1.02829774700128e+15
1.02693415609344e+15
1.02555830280032e+15
1.02421993320426e+15
1.02291951019562e+15
1.02140765675877e+15
1.01989301479796e+15
1.01830957479403e+15
1.01651864029002e+15
1.0145301626574e+15
1.01225308768972e+15
1.00949625064695e+15
)
;

boundaryField
{
    electrode
    {
        type            zeroGradient;
    }
    ground
    {
        type            zeroGradient;
    }
    otherfaces
    {
        type            empty;
    }
}


// ************************************************************************* //
