/*--------------------------------*- C++ -*----------------------------------*\
| =========                 |                                                 |
| \\      /  F ield         | foam-extend: Open Source CFD                    |
|  \\    /   O peration     | Version:     4.0                                |
|   \\  /    A nd           | Web:         http://www.foam-extend.org         |
|    \\/     M anipulation  |                                                 |
\*---------------------------------------------------------------------------*/
FoamFile
{
    version     2.0;
    format      ascii;
    class       volVectorField;
    location    "3.2e-06";
    object      E;
}
// * * * * * * * * * * * * * * * * * * * * * * * * * * * * * * * * * * * * * //

dimensions      [0 0 0 1 0 0 0];

internalField   nonuniform List<vector> 
300
(
(5.24377159194512 -0 -0)
(10.7782228517261 -0 -0)
(18.8132438419531 -0 -0)
(26.3918085802176 -0 -0)
(33.8716146006106 -0 -0)
(41.4036109896991 -0 -0)
(48.9246172241669 -0 -0)
(56.4436228672737 -0 -0)
(63.9627235926595 -0 -0)
(71.4803284188055 -0 -0)
(78.9964996833466 -0 -0)
(86.5111351514022 -0 -0)
(94.0240801591839 -0 -0)
(101.535244836912 -0 -0)
(109.044565664574 -0 -0)
(116.552010247241 -0 -0)
(124.057582681633 -0 -0)
(131.561325375508 -0 -0)
(139.063321862033 -0 -0)
(146.563699622568 -0 -0)
(154.062633034304 -0 -0)
(161.560346301216 -0 -0)
(169.057116497503 -0 -0)
(176.553276635962 -0 -0)
(184.049218940332 -0 -0)
(191.545398017797 -0 -0)
(199.042334193824 -0 -0)
(206.540616959352 -0 -0)
(214.040908380615 -0 -0)
(221.543946737903 -0 -0)
(229.050550085176 -0 -0)
(236.561620026118 -0 -0)
(244.078145444939 -0 -0)
(251.6012064441 -0 -0)
(259.131978246011 -0 -0)
(266.671735231511 -0 -0)
(274.221855098316 -0 -0)
(281.783822945967 -0 -0)
(289.359235639027 -0 -0)
(296.949806148668 -0 -0)
(304.557367916619 -0 -0)
(312.183879405713 -0 -0)
(319.831428716197 -0 -0)
(327.502238195379 -0 -0)
(335.198669200486 -0 -0)
(342.923226952266 -0 -0)
(350.678565390268 -0 -0)
(358.467492177252 -0 -0)
(366.292973760822 -0 -0)
(374.158140495276 -0 -0)
(382.06629186664 -0 -0)
(390.020901774905 -0 -0)
(398.02562390576 -0 -0)
(406.084297209549 -0 -0)
(414.200951391648 -0 -0)
(422.379812575675 -0 -0)
(430.625308969798 -0 -0)
(438.942076631854 -0 -0)
(447.334965448987 -0 -0)
(455.809044970545 -0 -0)
(464.369610585259 -0 -0)
(473.022189617549 -0 -0)
(481.772547626711 -0 -0)
(490.626694825461 -0 -0)
(499.590892542766 -0 -0)
(508.671659868503 -0 -0)
(517.875780442549 -0 -0)
(527.210309371367 -0 -0)
(536.682580293318 -0 -0)
(546.30021263385 -0 -0)
(556.071119050984 -0 -0)
(566.003513062581 -0 -0)
(576.105916917702 -0 -0)
(586.38716971248 -0 -0)
(596.856435737597 -0 -0)
(607.523213132289 -0 -0)
(618.39734282881 -0 -0)
(629.489017919874 -0 -0)
(640.808793261956 -0 -0)
(652.367595668645 -0 -0)
(664.176734352446 -0 -0)
(676.247912014052 -0 -0)
(688.593236393284 -0 -0)
(701.225232471804 -0 -0)
(714.156855194451 -0 -0)
(727.401503018549 -0 -0)
(740.973032169272 -0 -0)
(754.885771771314 -0 -0)
(769.154539821526 -0 -0)
(783.794660225233 -0 -0)
(798.821980942191 -0 -0)
(814.252893210752 -0 -0)
(830.104352164765 -0 -0)
(846.393898892932 -0 -0)
(863.139683980437 -0 -0)
(880.360492701379 -0 -0)
(898.075772186412 -0 -0)
(916.305660426753 -0 -0)
(935.071017636826 -0 -0)
(954.393459895545 -0 -0)
(974.295395453158 -0 -0)
(994.800063883304 -0 -0)
(1015.93157835071 -0 -0)
(1037.71497125656 -0 -0)
(1060.17624370718 -0 -0)
(1083.34241898527 -0 -0)
(1107.24160047712 -0 -0)
(1131.90303457644 -0 -0)
(1157.35717891458 -0 -0)
(1183.63577645806 -0 -0)
(1210.77193614855 -0 -0)
(1238.80022063775 -0 -0)
(1267.75674182651 -0 -0)
(1297.67926505277 -0 -0)
(1328.6073228301 -0 -0)
(1360.58233909776 -0 -0)
(1393.64776500798 -0 -0)
(1427.84922769492 -0 -0)
(1463.23469325636 -0 -0)
(1499.85464546491 -0 -0)
(1537.76228222369 -0 -0)
(1577.01373144743 -0 -0)
(1617.66828881844 -0 -0)
(1659.78867992264 -0 -0)
(1703.44134958027 -0 -0)
(1748.69678163261 -0 -0)
(1795.62985302432 -0 -0)
(1844.32022638201 -0 -0)
(1894.85278581944 -0 -0)
(1947.31812168274 -0 -0)
(2001.8130705564 -0 -0)
(2058.44131784833 -0 -0)
(2117.3140714206 -0 -0)
(2178.55081603253 -0 -0)
(2242.28015989783 -0 -0)
(2308.64078653737 -0 -0)
(2377.78252710299 -0 -0)
(2449.86757105852 -0 -0)
(2525.07183604894 -0 -0)
(2603.58652145551 -0 -0)
(2685.61987411287 -0 -0)
(2771.39920037586 -0 -0)
(2861.1731642336 -0 -0)
(2955.21441908869 -0 -0)
(3053.82262926508 -0 -0)
(3157.32794857129 -0 -0)
(3266.09503577996 -0 -0)
(3380.52770306772 -0 -0)
(3501.0743123697 -0 -0)
(3628.23405859503 -0 -0)
(3762.56430559593 -0 -0)
(3904.68917432275 -0 -0)
(4055.30965798855 -0 -0)
(4215.21546365615 -0 -0)
(4385.29893610261 -0 -0)
(4566.5728773366 -0 -0)
(4760.18782463629 -0 -0)
(4967.45408100533 -0 -0)
(5189.90781405351 -0 -0)
(5429.26425415095 -0 -0)
(5687.47890639261 -0 -0)
(5968.11058825785 -0 -0)
(6276.76897528637 -0 -0)
(6618.64520005161 -0 -0)
(6997.56703948861 -0 -0)
(7417.87807214185 -0 -0)
(7885.7175092676 -0 -0)
(8410.09155970563 -0 -0)
(9001.47826673145 -0 -0)
(9670.103971419 -0 -0)
(10425.9202161874 -0 -0)
(11275.1158764662 -0 -0)
(12230.7022473611 -0 -0)
(13310.8560965961 -0 -0)
(14517.6455533857 -0 -0)
(15858.9455850824 -0 -0)
(17354.1885091059 -0 -0)
(19001.4508502914 -0 -0)
(20802.8343268957 -0 -0)
(22768.0378649694 -0 -0)
(24884.670421621 -0 -0)
(27143.9797065459 -0 -0)
(29545.2993544382 -0 -0)
(32063.656911222 -0 -0)
(34679.4204045863 -0 -0)
(37386.8285327022 -0 -0)
(40158.0324930493 -0 -0)
(42962.972310983 -0 -0)
(45792.3524611182 -0 -0)
(48638.6169275559 -0 -0)
(51480.4362229493 -0 -0)
(54298.0535295246 -0 -0)
(57090.190812348 -0 -0)
(59858.3064697593 -0 -0)
(62615.0860377591 -0 -0)
(65362.8624296092 -0 -0)
(68104.6297494019 -0 -0)
(70863.0198125423 -0 -0)
(73640.6183798565 -0 -0)
(76437.2854670305 -0 -0)
(79246.2910171762 -0 -0)
(82054.6586922322 -0 -0)
(84852.335849508 -0 -0)
(87627.3452385875 -0 -0)
(90373.7834474914 -0 -0)
(93092.1063760546 -0 -0)
(95783.8417773896 -0 -0)
(98450.9753332529 -0 -0)
(101095.884849461 -0 -0)
(103720.907567373 -0 -0)
(106328.41438989 -0 -0)
(108917.348964537 -0 -0)
(111483.857531553 -0 -0)
(114027.360541434 -0 -0)
(116549.948687136 -0 -0)
(119053.585934581 -0 -0)
(121540.126459994 -0 -0)
(124011.248379674 -0 -0)
(126468.514974741 -0 -0)
(128913.312706266 -0 -0)
(131346.937570329 -0 -0)
(133770.571598316 -0 -0)
(136185.312198895 -0 -0)
(138592.198436906 -0 -0)
(140990.140482598 -0 -0)
(143376.042499274 -0 -0)
(145748.808809471 -0 -0)
(148109.251331796 -0 -0)
(150458.133359356 -0 -0)
(152796.157479481 -0 -0)
(155123.997242078 -0 -0)
(157442.260021343 -0 -0)
(159751.53567272 -0 -0)
(162052.358376952 -0 -0)
(164345.242253141 -0 -0)
(166630.641215823 -0 -0)
(168909.003149313 -0 -0)
(171180.725817341 -0 -0)
(173446.190802197 -0 -0)
(175705.766188408 -0 -0)
(177959.79874798 -0 -0)
(180208.619385421 -0 -0)
(182451.685163487 -0 -0)
(184686.58706135 -0 -0)
(186911.859054854 -0 -0)
(189127.787718612 -0 -0)
(191334.694921565 -0 -0)
(193532.851168888 -0 -0)
(195722.533459283 -0 -0)
(197903.999573868 -0 -0)
(200077.505095076 -0 -0)
(202243.285477997 -0 -0)
(204401.577072464 -0 -0)
(206552.599858065 -0 -0)
(208696.580789606 -0 -0)
(210833.718761366 -0 -0)
(212964.237253271 -0 -0)
(215088.331296221 -0 -0)
(217206.223245329 -0 -0)
(219318.104608227 -0 -0)
(221424.202107783 -0 -0)
(223524.706281156 -0 -0)
(225619.831306812 -0 -0)
(227709.759562911 -0 -0)
(229794.687466186 -0 -0)
(231874.781109552 -0 -0)
(233950.21792117 -0 -0)
(236021.148295796 -0 -0)
(238086.139199492 -0 -0)
(240143.568719875 -0 -0)
(242193.42633543 -0 -0)
(244235.865946851 -0 -0)
(246271.066938745 -0 -0)
(248299.185271601 -0 -0)
(250320.400401426 -0 -0)
(252334.865275383 -0 -0)
(254342.765942909 -0 -0)
(256344.252294669 -0 -0)
(258339.504955825 -0 -0)
(260328.663192644 -0 -0)
(262311.898591564 -0 -0)
(264289.336792054 -0 -0)
(266261.12993811 -0 -0)
(268227.379747219 -0 -0)
(270188.219030636 -0 -0)
(272143.738580347 -0 -0)
(274094.060564048 -0 -0)
(276039.273057866 -0 -0)
(277979.496926906 -0 -0)
(279914.820716069 -0 -0)
(281845.362458781 -0 -0)
(283771.205488751 -0 -0)
(285692.46626276 -0 -0)
(287609.228452694 -0 -0)
(289521.597577388 -0 -0)
(291429.648676711 -0 -0)
(293333.480453472 -0 -0)
(295233.152658906 -0 -0)
(297128.744087728 -0 -0)
(299019.613570837 -0 -0)
)
;

boundaryField
{
    electrode
    {
        type            calculated;
        value           uniform (3.87552649726786 -0 -0);
    }
    ground
    {
        type            calculated;
        value           uniform (299963.362392278 -0 -0);
    }
    otherfaces
    {
        type            empty;
    }
}


// ************************************************************************* //
