/*--------------------------------*- C++ -*----------------------------------*\
| =========                 |                                                 |
| \\      /  F ield         | foam-extend: Open Source CFD                    |
|  \\    /   O peration     | Version:     4.0                                |
|   \\  /    A nd           | Web:         http://www.foam-extend.org         |
|    \\/     M anipulation  |                                                 |
\*---------------------------------------------------------------------------*/
FoamFile
{
    version     2.0;
    format      ascii;
    class       volScalarField;
    location    "3.2e-06";
    object      electron;
}
// * * * * * * * * * * * * * * * * * * * * * * * * * * * * * * * * * * * * * //

dimensions      [0 0 0 1 0 0 0];

internalField   nonuniform List<scalar> 
300
(
5.88652399734682e+16
5.88634548411054e+16
5.88590229812163e+16
5.88515925469852e+16
5.88412122824203e+16
5.88278724282895e+16
5.88115707130402e+16
5.87923113861376e+16
5.87700976419285e+16
5.87449333773156e+16
5.8716823121225e+16
5.868577187412e+16
5.86517851390655e+16
5.86148689084021e+16
5.85750296473186e+16
5.85322742805944e+16
5.8486610177307e+16
5.84380451343715e+16
5.83865873590807e+16
5.83322454505433e+16
5.82750283800269e+16
5.82149454702072e+16
5.81520063733305e+16
5.80862210482928e+16
5.80175997366256e+16
5.79461529374e+16
5.78718913810674e+16
5.77948260022257e+16
5.77149679113314e+16
5.7632328365362e+16
5.75469187374419e+16
5.74587504854466e+16
5.73678351195994e+16
5.72741841690777e+16
5.71778091476428e+16
5.70787215183253e+16
5.69769326571724e+16
5.68724538160984e+16
5.67652960848583e+16
5.66554703521587e+16
5.65429872659591e+16
5.64278571929895e+16
5.63100901775058e+16
5.61896958993332e+16
5.60666836312418e+16
5.59410621956798e+16
5.58128399209213e+16
5.56820245966751e+16
5.55486234291964e+16
5.54126429959597e+16
5.52740891999463e+16
5.51329672236039e+16
5.49892814825381e+16
5.48430355789953e+16
5.46942322552076e+16
5.45428733466644e+16
5.43889597353817e+16
5.42324913032522e+16
5.40734668855327e+16
5.39118842245654e+16
5.37477399238132e+16
5.35810294022847e+16
5.34117468494497e+16
5.32398851807192e+16
5.30654359935941e+16
5.28883895245813e+16
5.27087346069652e+16
5.25264586295398e+16
5.23415474964068e+16
5.21539855879457e+16
5.19637557230605e+16
5.17708391228166e+16
5.15752153755786e+16
5.13768624037626e+16
5.11757564323211e+16
5.09718719590831e+16
5.07651817270682e+16
5.05556566988904e+16
5.03432660333835e+16
5.01279770645666e+16
4.99097552830802e+16
4.96885643202242e+16
4.9464365934716e+16
4.92371200023e+16
4.90067845083431e+16
4.87733155435465e+16
4.85366673028944e+16
4.82967920879699e+16
4.80536403127735e+16
4.780716051317e+16
4.75572993600812e+16
4.73040016765587e+16
4.70472104588644e+16
4.67868669016599e+16
4.65229104274303e+16
4.62552787202685e+16
4.59839077641178e+16
4.5708731885585e+16
4.54296838014249e+16
4.51466946707887e+16
4.48596941523327e+16
4.45686104662683e+16
4.42733704614305e+16
4.39738996874391e+16
4.36701224720065e+16
4.33619620034415e+16
4.30493404184001e+16
4.2732178894908e+16
4.24103977506659e+16
4.20839165466534e+16
4.17526541960153e+16
4.14165290782023e+16
4.10754591583301e+16
4.07293621117006e+16
4.03781554534e+16
4.00217566728745e+16
3.966008337337e+16
3.92930534160882e+16
3.89205850688826e+16
3.85425971593117e+16
3.8159009231818e+16
3.77697417087755e+16
3.73747160551283e+16
3.69738549462881e+16
3.65670824389369e+16
3.6154324144347e+16
3.57355074037807e+16
3.53105614654839e+16
3.48794176627601e+16
3.44420095925623e+16
3.39982732939834e+16
3.35481474259854e+16
3.30915734436595e+16
3.26284957722591e+16
3.21588619782023e+16
3.16826229361917e+16
3.11997329915622e+16
3.07101501169413e+16
3.02138360622736e+16
2.97107564972522e+16
2.92008811452278e+16
2.86841839077007e+16
2.81606429785801e+16
2.76302409475462e+16
2.70929648920623e+16
2.65488064579057e+16
2.59977619285483e+16
2.543983228437e+16
2.48750232536097e+16
2.43033453582059e+16
2.37248139593997e+16
2.31394493105961e+16
2.25472766269566e+16
2.19483261859484e+16
2.1342633489784e+16
2.07302394556175e+16
2.01111906973994e+16
1.94855401683552e+16
1.8853346030938e+16
1.82146701571723e+16
1.75695769625331e+16
1.69180748316092e+16
1.62600013619782e+16
1.55950321233335e+16
1.49228443575863e+16
1.42432267246059e+16
1.35560668462753e+16
1.28612811311511e+16
1.21588018509708e+16
1.14487138874281e+16
1.07314427596858e+16
1.00080208979315e+16
9.28013715691712e+15
8.54996722263144e+15
7.82057204263881e+15
7.09613783063374e+15
6.38155334279305e+15
5.68251699781513e+15
5.00556475361997e+15
4.35751961663705e+15
3.74515850717162e+15
3.17497200059106e+15
2.65259497189596e+15
2.18239951254411e+15
1.76717550480164e+15
1.40776396652216e+15
1.10309537375469e+15
850395977664996
645446546253960
482746519061148
356283890997084
260080871719066
188355142995737
135712193915128
97121824791181.8
68047397567969.6
46714014192591
31381487276805.8
20291273367947.5
12736603691676.5
7967758900212.33
5150262034986.72
3544078995612.69
2631560294277.38
2104556164791.11
1792924021000.99
1604712065334.41
1489804912531.36
1419536341161.88
1376918563323.52
1351677025783.61
1337287479128
1329347981062.8
1324933517433.18
1322158833828.4
1319726252629.47
1316759088726.65
1312670131701.76
1307080360203.95
1299761150247.13
1290586853506.38
1279482083246.43
1266449538871.58
1251574254458.69
1234975722419.42
1216799058440.85
1197204027017.56
1176357464756.33
1154427755777.1
1131581214445.96
1107979322607.42
1083776680426.43
1059119497109.78
1034144527863.96
1008978380071.31
983737124112.426
958526149463.896
933440220727.789
908563699870.748
883970888877.74
859726482234.213
835886108218.47
812497070240.546
789599407425.207
767226498418.847
745405021465.622
724155053084.233
703490766099.804
683418088649.304
663935500805.636
645042242163.761
626738384352.946
609020966869.318
591884550508.292
575321200374.307
559322658760.733
543877377152.865
528968588072.553
514581717033.298
500704019683.727
487320727122.557
474416197910.166
461974489008.039
449979548291.326
438415092771.284
427264256215.379
416504383115.68
406114174710.766
396079117140.109
386385761519.434
377021726924.21
367975187133.886
359234883407.441
350790129559.807
342630846705.495
334747597409.297
327131621238.713
319774873639.507
312670058665.088
305810650938.374
299190680878.862
292804070281.986
286638805954.334
280664673130.303
274863301347.872
269242003001.459
263811426067.54
258583153537.457
253568632348.19
248735458833.604
244062182458.789
239587898932.612
235348807933.695
231340437822.554
227609972411.552
224237487777.487
221358033158.888
219268122868.062
218407976668.888
219598393206.065
)
;

boundaryField
{
    electrode
    {
        type            driftDiffusionElectronDensity;
        seec            0.05;
        Edepend         1;
        field_emission  0;
        field_enhancement_factor 55;
        work_function   5;
        value           uniform 5.88652399734682e+16;
    }
    ground
    {
        type            driftDiffusionElectronDensity;
        seec            0.05;
        Edepend         1;
        field_emission  0;
        field_enhancement_factor 55;
        work_function   5;
        value           uniform 221799398706.032;
    }
    otherfaces
    {
        type            empty;
    }
}


// ************************************************************************* //
