/*--------------------------------*- C++ -*----------------------------------*\
| =========                 |                                                 |
| \\      /  F ield         | foam-extend: Open Source CFD                    |
|  \\    /   O peration     | Version:     4.0                                |
|   \\  /    A nd           | Web:         http://www.foam-extend.org         |
|    \\/     M anipulation  |                                                 |
\*---------------------------------------------------------------------------*/
FoamFile
{
    version     2.0;
    format      ascii;
    class       volVectorField;
    location    "3.2e-06";
    object      J_electron;
}
// * * * * * * * * * * * * * * * * * * * * * * * * * * * * * * * * * * * * * //

dimensions      [1 -1 -1 0 0 0 0];

internalField   nonuniform List<vector> 
300
(
(-1.24209838821022e+19 0 0)
(-1.26252373779082e+19 0 0)
(-1.4821241550696e+19 0 0)
(-1.44923670124512e+19 0 0)
(-1.44456208995383e+19 0 0)
(-1.44392063831503e+19 0 0)
(-1.43878503347029e+19 0 0)
(-1.43445370691141e+19 0 0)
(-1.43018995111556e+19 0 0)
(-1.42583898174072e+19 0 0)
(-1.42151313908033e+19 0 0)
(-1.41719519735511e+19 0 0)
(-1.41288218829236e+19 0 0)
(-1.40857701337742e+19 0 0)
(-1.40427972864895e+19 0 0)
(-1.39999064549703e+19 0 0)
(-1.39571019599654e+19 0 0)
(-1.39143872093774e+19 0 0)
(-1.3871765455003e+19 0 0)
(-1.38292395552231e+19 0 0)
(-1.37868121234482e+19 0 0)
(-1.37444854040394e+19 0 0)
(-1.37022613349138e+19 0 0)
(-1.36601413636705e+19 0 0)
(-1.36181267297866e+19 0 0)
(-1.35762182032821e+19 0 0)
(-1.35344161071805e+19 0 0)
(-1.34927204571972e+19 0 0)
(-1.34511307091534e+19 0 0)
(-1.34096460127089e+19 0 0)
(-1.33682649413139e+19 0 0)
(-1.33269857158406e+19 0 0)
(-1.32858059632602e+19 0 0)
(-1.32447229364791e+19 0 0)
(-1.32037333360668e+19 0 0)
(-1.31628333231163e+19 0 0)
(-1.31220186774576e+19 0 0)
(-1.30812844790185e+19 0 0)
(-1.30406253677385e+19 0 0)
(-1.30000354888183e+19 0 0)
(-1.29595083488765e+19 0 0)
(-1.29190369150924e+19 0 0)
(-1.28786136622912e+19 0 0)
(-1.28382304371906e+19 0 0)
(-1.27978785073912e+19 0 0)
(-1.2757548636923e+19 0 0)
(-1.27172309545625e+19 0 0)
(-1.2676915017823e+19 0 0)
(-1.26365898327167e+19 0 0)
(-1.25962438099167e+19 0 0)
(-1.25558647875051e+19 0 0)
(-1.25154400204465e+19 0 0)
(-1.2474956164009e+19 0 0)
(-1.24343993757629e+19 0 0)
(-1.23937551481813e+19 0 0)
(-1.23530084825516e+19 0 0)
(-1.23121438410175e+19 0 0)
(-1.2271145001533e+19 0 0)
(-1.22299954142844e+19 0 0)
(-1.21886778016308e+19 0 0)
(-1.21471745133838e+19 0 0)
(-1.21054673039055e+19 0 0)
(-1.20635374332341e+19 0 0)
(-1.2021365749902e+19 0 0)
(-1.19789325864872e+19 0 0)
(-1.19362178246671e+19 0 0)
(-1.18932009352107e+19 0 0)
(-1.18498609872269e+19 0 0)
(-1.18061766440675e+19 0 0)
(-1.17621261989996e+19 0 0)
(-1.17176876188081e+19 0 0)
(-1.16728385271054e+19 0 0)
(-1.16275562564705e+19 0 0)
(-1.15818178928158e+19 0 0)
(-1.15356002651207e+19 0 0)
(-1.14888800213244e+19 0 0)
(-1.14416335549495e+19 0 0)
(-1.13938372280504e+19 0 0)
(-1.13454671499889e+19 0 0)
(-1.12964995100697e+19 0 0)
(-1.12469103346028e+19 0 0)
(-1.11966756907138e+19 0 0)
(-1.11457716362265e+19 0 0)
(-1.10941743991911e+19 0 0)
(-1.1041860209561e+19 0 0)
(-1.0988805508423e+19 0 0)
(-1.09349868887626e+19 0 0)
(-1.08803812427458e+19 0 0)
(-1.08249656962193e+19 0 0)
(-1.076871767677e+19 0 0)
(-1.07116150645703e+19 0 0)
(-1.0653636080604e+19 0 0)
(-1.05947593784353e+19 0 0)
(-1.05349641600363e+19 0 0)
(-1.04742302065392e+19 0 0)
(-1.04125377812617e+19 0 0)
(-1.03498678990484e+19 0 0)
(-1.02862021306776e+19 0 0)
(-1.02215228399645e+19 0 0)
(-1.01558131011916e+19 0 0)
(-1.00890567838537e+19 0 0)
(-1.00212385849881e+19 0 0)
(-9.95234407433372e+18 0 0)
(-9.88235963120904e+18 0 0)
(-9.81127260206059e+18 0 0)
(-9.73907126701995e+18 0 0)
(-9.66574478998949e+18 0 0)
(-9.59128331227392e+18 0 0)
(-9.51567793587749e+18 0 0)
(-9.43892066885173e+18 0 0)
(-9.36100447615713e+18 0 0)
(-9.28192323141606e+18 0 0)
(-9.20167167952106e+18 0 0)
(-9.1202453774066e+18 0 0)
(-9.03764063520188e+18 0 0)
(-8.95385451900803e+18 0 0)
(-8.86888461699855e+18 0 0)
(-8.78272902815495e+18 0 0)
(-8.69538626810361e+18 0 0)
(-8.60685495765408e+18 0 0)
(-8.51713382498802e+18 0 0)
(-8.42622135964533e+18 0 0)
(-8.33411560736031e+18 0 0)
(-8.24081392810013e+18 0 0)
(-8.14631265828235e+18 0 0)
(-8.05060669218226e+18 0 0)
(-7.95368908340173e+18 0 0)
(-7.85555062847963e+18 0 0)
(-7.75617924094702e+18 0 0)
(-7.65555935773196e+18 0 0)
(-7.55367125311921e+18 0 0)
(-7.45049023480752e+18 0 0)
(-7.34598572597209e+18 0 0)
(-7.2401202683288e+18 0 0)
(-7.13284834045356e+18 0 0)
(-7.02411508725894e+18 0 0)
(-6.91385480790671e+18 0 0)
(-6.80198929404291e+18 0 0)
(-6.68842590355744e+18 0 0)
(-6.57305552856128e+18 0 0)
(-6.45575003017839e+18 0 0)
(-6.33635965049399e+18 0 0)
(-6.21470983467722e+18 0 0)
(-6.09059789842625e+18 0 0)
(-5.96378905310921e+18 0 0)
(-5.83401220175561e+18 0 0)
(-5.70095510350725e+18 0 0)
(-5.56425918440958e+18 0 0)
(-5.4235137418933e+18 0 0)
(-5.27824981517035e+18 0 0)
(-5.12793498790396e+18 0 0)
(-4.97195955358532e+18 0 0)
(-4.80963892083268e+18 0 0)
(-4.64025114435702e+18 0 0)
(-4.46263902778111e+18 0 0)
(-4.27600261241687e+18 0 0)
(-4.08004928026758e+18 0 0)
(-3.86321462313511e+18 0 0)
(-3.6306511025752e+18 0 0)
(-3.37375302390383e+18 0 0)
(-2.81797680787305e+18 0 0)
(-1.93842246423203e+18 0 0)
(-1.31629032021583e+18 0 0)
(-1.11615262582741e+18 0 0)
(-9.30232772199449e+17 0 0)
(-5.65006842514637e+17 0 0)
(9.77493714502943e+16 0 0)
(7.21613673311764e+17 0 0)
(9.59626104097735e+17 0 0)
(9.11695069044539e+17 0 0)
(1.04793141710684e+17 0 0)
(-3.15711387294761e+16 0 0)
(2.12866124387189e+17 0 0)
(-1.51273812513627e+18 0 0)
(-2.4481537254228e+18 0 0)
(-2.17668455316534e+18 0 0)
(-3.52130866204272e+18 0 0)
(-3.78792406561168e+18 0 0)
(-2.97547371891393e+18 0 0)
(-2.14011713686077e+18 0 0)
(-9.33385396072481e+17 0 0)
(1.5586558261676e+18 0 0)
(3.8061113132324e+18 0 0)
(6.674433688653e+18 0 0)
(9.7183367541183e+18 0 0)
(1.17866192699256e+19 0 0)
(1.32447917430439e+19 0 0)
(1.37678665792246e+19 0 0)
(1.43485016962352e+19 0 0)
(1.22125195471102e+19 0 0)
(1.02929672013358e+19 0 0)
(8.01428304718922e+18 0 0)
(5.95882000813248e+18 0 0)
(4.73618968457373e+18 0 0)
(3.61568254770587e+18 0 0)
(-4.08357518450968e+18 0 0)
(5.34671571395936e+17 0 0)
(-2.77761283528013e+18 0 0)
(-2.85836181945311e+18 0 0)
(-2.73720015738247e+18 0 0)
(-2.70897096956089e+18 0 0)
(-2.85735099640038e+18 0 0)
(-3.05333504330994e+18 0 0)
(-3.20680227609325e+18 0 0)
(-3.28108725933527e+18 0 0)
(-3.30760627627427e+18 0 0)
(-3.29872623366346e+18 0 0)
(-3.26855787930965e+18 0 0)
(-3.23128217208862e+18 0 0)
(-3.18698216276305e+18 0 0)
(-3.13869226118456e+18 0 0)
(-3.08727707836102e+18 0 0)
(-3.03650081499795e+18 0 0)
(-2.98314305391044e+18 0 0)
(-2.92929415784099e+18 0 0)
(-2.87478790621105e+18 0 0)
(-2.81990476545941e+18 0 0)
(-2.76476768802992e+18 0 0)
(-2.70951990501615e+18 0 0)
(-2.65422174936815e+18 0 0)
(-2.5988991711735e+18 0 0)
(-2.54444714638064e+18 0 0)
(-2.48994377646405e+18 0 0)
(-2.4359836283731e+18 0 0)
(-2.38259617607914e+18 0 0)
(-2.32988179703755e+18 0 0)
(-2.27791235530993e+18 0 0)
(-2.22676183060573e+18 0 0)
(-2.17648699246678e+18 0 0)
(-2.12713692203646e+18 0 0)
(-2.07875265986042e+18 0 0)
(-2.03136758123595e+18 0 0)
(-1.98500838693609e+18 0 0)
(-1.93969500239596e+18 0 0)
(-1.89544159952146e+18 0 0)
(-1.85225650683645e+18 0 0)
(-1.81014333117208e+18 0 0)
(-1.76910089083225e+18 0 0)
(-1.72912404996639e+18 0 0)
(-1.69020416136975e+18 0 0)
(-1.6523293831161e+18 0 0)
(-1.61548664547779e+18 0 0)
(-1.57966068277003e+18 0 0)
(-1.54482580101783e+18 0 0)
(-1.51096059671078e+18 0 0)
(-1.47804497012815e+18 0 0)
(-1.44606044900387e+18 0 0)
(-1.41494435240581e+18 0 0)
(-1.38474408434711e+18 0 0)
(-1.35544975622346e+18 0 0)
(-1.32693372441186e+18 0 0)
(-1.29922683788115e+18 0 0)
(-1.27229964202633e+18 0 0)
(-1.24612619788456e+18 0 0)
(-1.22070901108491e+18 0 0)
(-1.19594014710981e+18 0 0)
(-1.17188874176113e+18 0 0)
(-1.14854869966291e+18 0 0)
(-1.12579462170465e+18 0 0)
(-1.10366512526731e+18 0 0)
(-1.08213689833462e+18 0 0)
(-1.06118535213719e+18 0 0)
(-1.04079059888429e+18 0 0)
(-1.0209301353738e+18 0 0)
(-1.0015862283316e+18 0 0)
(-9.82685463620069e+17 0 0)
(-9.64403792176855e+17 0 0)
(-9.46518693069582e+17 0 0)
(-9.29092548525982e+17 0 0)
(-9.12098338185475e+17 0 0)
(-8.95528433979524e+17 0 0)
(-8.79368766665789e+17 0 0)
(-8.63606687817072e+17 0 0)
(-8.48229499600399e+17 0 0)
(-8.33225111999886e+17 0 0)
(-8.18581700598028e+17 0 0)
(-8.0428798714686e+17 0 0)
(-7.90332792574998e+17 0 0)
(-7.76705469955142e+17 0 0)
(-7.63393219863837e+17 0 0)
(-7.50383949566566e+17 0 0)
(-7.37620343495477e+17 0 0)
(-7.25099693125718e+17 0 0)
(-7.13227666905014e+17 0 0)
(-7.01428282430572e+17 0 0)
(-6.89923212585548e+17 0 0)
(-6.78666999866788e+17 0 0)
(-6.67701958034001e+17 0 0)
(-6.56627304782893e+17 0 0)
(-6.46633578339154e+17 0 0)
(-6.36526952752606e+17 0 0)
(-6.26599246832861e+17 0 0)
(-6.16793270559925e+17 0 0)
(-6.08042633110708e+17 0 0)
(-5.98753443627828e+17 0 0)
(-5.90725073404533e+17 0 0)
(-5.82653329176064e+17 0 0)
(-5.76092673746308e+17 0 0)
(-5.69998816470325e+17 0 0)
(-5.60155284985214e+17 0 0)
)
;

boundaryField
{
    electrode
    {
        type            calculated;
        value           uniform (-1.46724816146713e+19 0 0);
    }
    ground
    {
        type            calculated;
        value           uniform (-5.57598305769767e+17 0 0);
    }
    otherfaces
    {
        type            empty;
    }
}


// ************************************************************************* //
