/*--------------------------------*- C++ -*----------------------------------*\
| =========                 |                                                 |
| \\      /  F ield         | foam-extend: Open Source CFD                    |
|  \\    /   O peration     | Version:     4.0                                |
|   \\  /    A nd           | Web:         http://www.foam-extend.org         |
|    \\/     M anipulation  |                                                 |
\*---------------------------------------------------------------------------*/
FoamFile
{
    version     2.0;
    format      ascii;
    class       volScalarField;
    location    "3.2e-06";
    object      N_electronMean;
}
// * * * * * * * * * * * * * * * * * * * * * * * * * * * * * * * * * * * * * //

dimensions      [0 0 0 1 0 0 0];

internalField   nonuniform List<scalar> 
300
(
6.02315118212029e+16
6.02301048327403e+16
6.022602020304e+16
6.0218693296642e+16
6.02081416042209e+16
6.0194314154985e+16
6.01771752550771e+16
6.01567018472819e+16
6.01328739826835e+16
6.01056765389684e+16
6.00750985603339e+16
6.00411328838448e+16
6.00037758316685e+16
5.99630269203088e+16
5.99188886562732e+16
5.9871366332969e+16
5.98204678604609e+16
5.97662036206182e+16
5.97085863270307e+16
5.96476308934518e+16
5.95833543190561e+16
5.95157755808359e+16
5.9444915530589e+16
5.93707967896261e+16
5.92934436753792e+16
5.92128821467944e+16
5.91291396946305e+16
5.90422452328031e+16
5.89522290124937e+16
5.88591225021292e+16
5.87629583148317e+16
5.8663770199402e+16
5.8561592933288e+16
5.84564621418403e+16
5.83484141729612e+16
5.82374860001896e+16
5.81237151279364e+16
5.80071395063828e+16
5.78877974373028e+16
5.77657274784299e+16
5.76409683680857e+16
5.75135589474104e+16
5.73835380638938e+16
5.72509444837933e+16
5.71158168182142e+16
5.69781934513552e+16
5.68381124745191e+16
5.66956116290051e+16
5.65507282656668e+16
5.64034993208159e+16
5.62539613307734e+16
5.6102150447745e+16
5.59481023934938e+16
5.57918523605777e+16
5.56334348646604e+16
5.54728835917207e+16
5.53102312681207e+16
5.5145509560284e+16
5.4978748999517e+16
5.48099789090235e+16
5.46392273392201e+16
5.44665210081624e+16
5.42918852342374e+16
5.41153439270746e+16
5.39369196483862e+16
5.37566335453997e+16
5.35745051648806e+16
5.33905523425278e+16
5.32047911496216e+16
5.30172358373368e+16
5.28278987793205e+16
5.26367904444819e+16
5.24439194280041e+16
5.22492924183561e+16
5.20529140904632e+16
5.18547871040582e+16
5.16549121405948e+16
5.14532878444423e+16
5.12499106735727e+16
5.1044774802886e+16
5.08378721023016e+16
5.06291919792306e+16
5.04187212253664e+16
5.02064439550412e+16
4.99923415687602e+16
4.97763927602042e+16
4.95585734343925e+16
4.93388565524659e+16
4.91172120505782e+16
4.88936068128698e+16
4.86680045952189e+16
4.84403660319349e+16
4.82106486645986e+16
4.79788067479467e+16
4.77447910647068e+16
4.75085488575193e+16
4.72700237582988e+16
4.70291557178977e+16
4.67858809354392e+16
4.65401318104562e+16
4.62918368922703e+16
4.60409207828928e+16
4.57873041082861e+16
4.55309035324499e+16
4.52716316436954e+16
4.50093968685762e+16
4.47441034340132e+16
4.44756513023021e+16
4.42039361431556e+16
4.39288492484279e+16
4.36502774263703e+16
4.33681029473161e+16
4.3082203514343e+16
4.27924522722281e+16
4.24987177810653e+16
4.2200863991188e+16
4.18987503234886e+16
4.15922316886065e+16
4.12811583721884e+16
4.09653759419088e+16
4.06447252801748e+16
4.03190426601107e+16
3.99881598064704e+16
3.96519039813002e+16
3.93100979447336e+16
3.89625598295439e+16
3.86091031578528e+16
3.82495369193825e+16
3.78836655749573e+16
3.75112890876424e+16
3.71322030189128e+16
3.67461986293266e+16
3.63530629641647e+16
3.59525789419499e+16
3.5544525586391e+16
3.51286783126086e+16
3.47048089978576e+16
3.42726860158214e+16
3.38320744729631e+16
3.33827364605047e+16
3.29244311705933e+16
3.24569150363692e+16
3.19799419716952e+16
3.14932636653365e+16
3.09966299840476e+16
3.04897893422678e+16
2.99724889032874e+16
2.94444747644102e+16
2.89054921568197e+16
2.83552858136913e+16
2.77936005049618e+16
2.72201813817418e+16
2.66347743811295e+16
2.60371267715725e+16
2.54269875617155e+16
2.48041080558906e+16
2.41682426523309e+16
2.35191497078686e+16
2.28565923525557e+16
2.21803394441564e+16
2.14901661731019e+16
2.07858528646889e+16
2.00671766989443e+16
1.93338945894519e+16
1.85857314510807e+16
1.78223804639245e+16
1.70435054818498e+16
1.62487446086374e+16
1.54377247898517e+16
1.46100976345338e+16
1.37656076069224e+16
1.29042323884672e+16
1.20264165562236e+16
1.11333426827202e+16
1.02272471235364e+16
9.31176207602481e+15
8.39220975911431e+15
7.47588274820614e+15
6.5721364233656e+15
5.69216085900426e+15
4.84851671462998e+15
4.0543692645742e+15
3.32237876637068e+15
2.66348796097764e+15
2.08577700340911e+15
1.59350172993856e+15
1.18664202056554e+15
861035239833826
609010692674416
420464769680422
284114514551470
188722739431648
124023203479294
81388565552112.4
53271725386051.7
34672509782938.9
22486180842795.2
14583215716674.4
9639921152245.08
6666446595794.01
4941953446211.66
3963890662028.49
3400390085364.24
3059451233411.17
2840285463990.34
2690565990793.98
2582264023383.95
2499559504318.25
2433048925378.84
2376891789624
2327389029092.82
2282073862675.76
2239284803224.5
2197903248977.68
2157173779028.85
2116583318100.04
2075796447678.81
2034606198614.89
1992898767581.39
1950630166107.54
1907808048531.37
1864451978162.89
1820612026260.5
1776383348472.09
1731879095667.09
1687222559613.59
1642540634646.34
1597957939498.47
1553594553461.98
1509563600303.19
1465969687695.58
1422909361371.37
1380469049757.6
1338725566631.94
1297746681783.04
1257590523311.21
1218305738287.17
1179933121558.94
1142504617573.9
1106044575882.61
1070570975966.11
1036094954583.26
1002622876629.17
970156166955.794
938691704375.833
908222313762.324
878735314314.744
850214567712.187
822641364892.915
795994844191.565
770254381325.122
745399146658.647
721407093393.852
698254883685.106
675918715083.146
654374988547.239
633600431573.971
613569553012.126
594255740217.718
575635607851.985
557686961870.484
540386264470.14
523710441658.24
507636442669.97
492141790773.86
477205035972.02
462804237968.621
448917565545.844
435524150451.173
422603822764.648
410136961695.35
398105990099.825
386495215262.38
375290575817.467
364478829472.941
354047572642.684
343985071128.293
334280042795.445
324922116973.582
315901853433.939
307210469903.463
298838674036.657
290776675441.718
283003065560.879
275494065040.565
268244104114.955
261257919694.247
254541355130.849
248100352933.969
241918069188.759
235973819753.417
230282518895.372
224876799517.176
219753320264.63
214938758702.461
210502805914.321
206554307334.991
203319033415.809
201158679972.869
200728262292.893
)
;

boundaryField
{
    electrode
    {
        type            calculated;
        value           uniform 6.02315118215716e+16;
    }
    ground
    {
        type            calculated;
        value           uniform 201849722589.68;
    }
    otherfaces
    {
        type            empty;
    }
}


// ************************************************************************* //
