/*--------------------------------*- C++ -*----------------------------------*\
| =========                 |                                                 |
| \\      /  F ield         | foam-extend: Open Source CFD                    |
|  \\    /   O peration     | Version:     4.0                                |
|   \\  /    A nd           | Web:         http://www.foam-extend.org         |
|    \\/     M anipulation  |                                                 |
\*---------------------------------------------------------------------------*/
FoamFile
{
    version     2.0;
    format      ascii;
    class       volScalarField;
    location    "3.2e-06";
    object      Phi;
}
// * * * * * * * * * * * * * * * * * * * * * * * * * * * * * * * * * * * * * //

dimensions      [0 0 0 1 0 0 0];

internalField   nonuniform List<scalar> 
300
(
699.999935407892
699.999715007335
699.999216859702
699.99846079108
699.997457405796
699.99620268344
699.994697165063
699.992941042291
699.990934256872
699.988676860718
699.986168901644
699.983410427406
699.980401492634
699.977142155396
699.973632476312
699.969872517685
699.965862342295
699.961602012173
699.95709158727
699.952331124049
699.947320673962
699.942060281846
699.936549984208
699.930789807413
699.924779765766
699.918519859484
699.912010072565
699.905250370537
699.898240698101
699.890980976645
699.883471101652
699.875710939973
699.867700326984
699.85943906361
699.850926913221
699.842163598394
699.833148797538
699.823882141387
699.814363209342
699.804591525678
699.794566555599
699.78428770115
699.773754296972
699.762965605902
699.751920814425
699.740619027955
699.729059265962
699.71724045693
699.70516143315
699.692820925345
699.680217557117
699.667349839221
699.654216163666
699.640814797627
699.627143877185
699.613201400868
699.598985223013
699.584493046937
699.569722417904
699.554670715907
699.539335148239
699.523712741868
699.507800335598
699.491594572026
699.475091889277
699.458288512523
699.441180445285
699.423763460494
699.406033091327
699.387984621808
699.369613077151
699.350913213871
699.331879509614
699.312506152743
699.292787031633
699.272715723694
699.252285484091
699.231489234172
699.210319549564
699.188768647954
699.166828376519
699.144490198997
699.121745182385
699.098583983237
699.074996833553
699.050973526224
699.026503400019
699.00157532408
698.976177681901
698.950298354758
698.923924704552
698.897043556029
698.869641178338
698.841703265885
698.813214918412
698.784160620286
698.754524218898
698.72428890214
698.69343717487
698.661950834298
698.62981094421
698.596997807934
698.563490939951
698.529269036045
698.494309941868
698.458590619797
698.422087113935
698.384774513099
698.34662691163
698.307617367838
698.267717859866
698.226899238761
698.18513117849
698.14238212264
698.098619227487
698.053808301117
698.007913738214
697.960898450117
697.912723789701
697.863349470567
697.812733480003
697.760831985085
697.70759923124
697.652987432497
697.596946652578
697.539424675859
697.480366867136
697.41971601899
697.357412185377
697.293392499936
697.227590977265
697.159938295232
697.090361556075
697.018784023804
696.945124835006
696.869298679811
696.791215449237
696.71077984467
696.6278909445
696.542441722267
696.454318509737
696.363400397326
696.269558563045
696.17265551971
696.072544268439
695.969067344426
695.862055738535
695.751327675374
695.636687224997
695.517922721216
695.394804954424
695.267085100843
695.134492342802
694.996731123644
694.853477978558
694.704377861237
694.549039786736
694.387032006261
694.217876181335
694.041038151991
693.855925231059
693.661872891565
693.458051191841
693.243421626545
693.016808178505
692.776917157246
692.522282973696
692.251202656628
691.961610203049
691.651104105513
691.316936604954
690.956042757767
690.56526221319
690.140662607943
689.67787180675
689.17281957105
688.620608767744
688.015873670443
687.353845377725
686.62901804865
685.835976186727
684.970040020542
684.026377539624
683.000353396913
681.88880041221
680.688392036607
679.396345176696
678.011189870403
676.532147022631
674.958366372995
673.289572560793
671.526337291465
669.669702325492
667.720324570642
665.679148560841
663.545985501458
661.321624398868
659.005676851498
656.597423078032
654.096302292841
651.501604046896
648.813216225029
646.031293467414
643.156393835062
640.189470451509
637.131474938562
633.983330026438
630.745885486736
627.419931670888
624.006159830105
620.505204499729
616.917598870778
613.244047902094
609.48534170201
605.642223865999
601.715345122867
597.705318137027
593.612670025534
589.437901578381
585.181435693885
580.843680731297
576.424973189195
571.925642624743
567.345952375936
562.686162728949
557.946609677096
553.127759895665
548.230022423131
543.253809806878
538.199480199174
533.067399308245
527.857880383036
522.571248640156
517.207778004853
511.767758081693
506.251428521311
500.659048667305
494.990828311356
489.247000279482
483.427748924543
477.533282533589
471.563762341345
465.51937457456
459.400316663779
453.206935437136
446.939526060121
440.598416255897
434.183879732016
427.696226177971
421.135710834732
414.50262620638
407.797210495059
401.019740507846
394.170438690229
387.249567183975
380.257333304254
373.193985933218
366.059717487369
358.854763846803
351.579302604347
344.233556872921
336.817689130497
329.331909787511
321.776367043375
314.151259149984
306.456721212297
298.692940409346
290.860040017552
282.958197189627
274.987630737586
266.948625941635
258.841402315223
250.666234878511
242.423331185972
234.112955860403
225.735304492545
217.290631508713
208.779120096351
200.201014689069
191.55648643263
182.845770476226
174.069026526525
165.226481356755
156.318284530651
147.344656040273
138.305736595276
129.201740134917
120.032799224339
110.79912193106
101.500832762544
92.1381338833199
82.7111419319608
73.2200535174048
63.6649775144424
54.0461049538926
44.3635376759515
34.6174617087785
24.807972312386
14.9352515315162
4.99938937320304
)
;

boundaryField
{
    electrode
    {
        type            fixedValue;
        value           uniform 700;
    }
    ground
    {
        type            fixedValue;
        value           uniform 0;
    }
    otherfaces
    {
        type            empty;
    }
}


// ************************************************************************* //
