/*--------------------------------*- C++ -*----------------------------------*\
| =========                 |                                                 |
| \\      /  F ield         | foam-extend: Open Source CFD                    |
|  \\    /   O peration     | Version:     4.0                                |
|   \\  /    A nd           | Web:         http://www.foam-extend.org         |
|    \\/     M anipulation  |                                                 |
\*---------------------------------------------------------------------------*/
FoamFile
{
    version     2.0;
    format      ascii;
    class       volScalarField;
    location    "3.2e-06";
    object      Sy_electron;
}
// * * * * * * * * * * * * * * * * * * * * * * * * * * * * * * * * * * * * * //

dimensions      [1 -3 -1 0 0 0 0];

internalField   nonuniform List<scalar> 
300
(
2.42429101994307e-10
2.42464897413131e-10
2.42476890408312e-10
2.42468073432144e-10
2.42457404836266e-10
2.42442135756426e-10
2.42422284036096e-10
2.42398164266429e-10
2.42369704080772e-10
2.42336907935991e-10
2.42299785763063e-10
2.42258340779616e-10
2.42212579282426e-10
2.42162508912131e-10
2.42108138336215e-10
2.42049477416648e-10
2.41986537115313e-10
2.41919329442324e-10
2.41847867390789e-10
2.41772164867582e-10
2.41692236625746e-10
2.41608098189687e-10
2.4151976577676e-10
2.41427256214008e-10
2.41330586821801e-10
2.41229775402204e-10
2.41124840065843e-10
2.41015799152824e-10
2.40902671151417e-10
2.40785474551105e-10
2.40664227709589e-10
2.40538948812118e-10
2.40409655713341e-10
2.40276365773846e-10
2.4013909574807e-10
2.39997861645799e-10
2.39852678580577e-10
2.39703560640668e-10
2.39550520725929e-10
2.39393570381668e-10
2.39232719642031e-10
2.39067976865577e-10
2.38899348556693e-10
2.38726839189731e-10
2.38550451027225e-10
2.38370183932138e-10
2.38186035172685e-10
2.37997999230565e-10
2.37806067582576e-10
2.3761022852249e-10
2.37410466919902e-10
2.37206764068027e-10
2.36999097390485e-10
2.36787440288327e-10
2.36571761856652e-10
2.36352026682529e-10
2.36128194574169e-10
2.35900220343517e-10
2.35668053562314e-10
2.35431638313514e-10
2.35190912951658e-10
2.34945809839464e-10
2.34696255086701e-10
2.34442168276542e-10
2.34183462265116e-10
2.33920042917145e-10
2.33651808765397e-10
2.33378650782048e-10
2.33100452109471e-10
2.3281708779002e-10
2.32528424491293e-10
2.32234320227343e-10
2.31934624105461e-10
2.31629176058906e-10
2.31317806525192e-10
2.31000336232148e-10
2.30676575911617e-10
2.30346326003667e-10
2.30009376444306e-10
2.29665506279442e-10
2.29314483585845e-10
2.28956065054393e-10
2.28589995775636e-10
2.28216009002912e-10
2.27833825866333e-10
2.27443155190231e-10
2.27043693223134e-10
2.26635123378377e-10
2.26217116004524e-10
2.25789328211982e-10
2.2535140360512e-10
2.24902972035193e-10
2.24443649613875e-10
2.23973038283522e-10
2.23490725713806e-10
2.22996285129711e-10
2.22489275145864e-10
2.21969239611681e-10
2.21435707451772e-10
2.20888192564068e-10
2.20326193690612e-10
2.19749194289673e-10
2.19156662395645e-10
2.18548050671454e-10
2.17922796186893e-10
2.1728032041389e-10
2.16620029213359e-10
2.15941312712907e-10
2.15243545377918e-10
2.14526085949675e-10
2.13788277445082e-10
2.13029447180963e-10
2.12248906793078e-10
2.11445952291268e-10
2.10619864100128e-10
2.09769907096728e-10
2.08895330700246e-10
2.0799536901185e-10
2.07069240803047e-10
2.06116149627012e-10
2.05135283899067e-10
2.04125817071504e-10
2.03086907614836e-10
2.02017699221946e-10
2.00917320838927e-10
1.99784886720197e-10
1.98619496474431e-10
1.97420235204945e-10
1.96186173430671e-10
1.94916367130021e-10
1.93609857669937e-10
1.92265671759078e-10
1.90882821300759e-10
1.89460303180881e-10
1.87997099031935e-10
1.86492174991782e-10
1.84944481197594e-10
1.83352951255988e-10
1.81716501664797e-10
1.80034031088516e-10
1.78304419395294e-10
1.76526526633512e-10
1.74699191777734e-10
1.72821231313177e-10
1.70891437587099e-10
1.68908576950462e-10
1.66871387484331e-10
1.64778576568966e-10
1.62628818070995e-10
1.60420749190101e-10
1.58152967007739e-10
1.5582402449613e-10
1.53432426193693e-10
1.50976622793032e-10
1.48455010096894e-10
1.4586592170059e-10
1.43207606968808e-10
1.40478382365854e-10
1.37676536471637e-10
1.34800257139419e-10
1.31851947185841e-10
1.28838374696908e-10
1.25756292889951e-10
1.22588490326227e-10
1.19320586182472e-10
1.15948371654922e-10
1.12473365457633e-10
1.0889330435309e-10
1.05193064469291e-10
1.01352526431812e-10
9.73454989187565e-11
9.31664232560102e-11
8.88381204330107e-11
8.43350026765446e-11
7.96422811604091e-11
7.48253207693105e-11
6.99087256812988e-11
6.49191091299931e-11
5.99639451979905e-11
5.51409279449343e-11
5.07527664593785e-11
4.67953321725348e-11
4.33839667154031e-11
4.07181696072652e-11
3.91218922549729e-11
3.90552480853047e-11
4.29866865256176e-11
5.41371406328406e-11
8.97756473725016e-11
1.79890659721598e-10
3.36640647493494e-10
5.79855260842452e-10
9.8812645458907e-10
1.72162098841556e-09
3.04344873334076e-09
4.6435898481948e-09
6.07329342787772e-09
7.15049932246823e-09
6.97846082984218e-09
6.08340855511971e-09
4.86889081511629e-09
3.81445311226159e-09
3.00014498152683e-09
2.44757597737667e-09
2.08813129936062e-09
1.86297622593417e-09
1.71264252358953e-09
1.62812245907847e-09
1.57209453273096e-09
1.5415250963602e-09
1.52772473131048e-09
1.52406029589459e-09
1.5211397379056e-09
1.5215311458231e-09
1.52322153768242e-09
1.52482112677196e-09
1.52539429405431e-09
1.52431815924253e-09
1.5211961298179e-09
1.51579581593961e-09
1.5079971520181e-09
1.49773027568303e-09
1.48488238111226e-09
1.46857212953031e-09
1.45016242331559e-09
1.42982773235855e-09
1.40775908540725e-09
1.38415536105953e-09
1.35921691872964e-09
1.33314145224258e-09
1.30612080987887e-09
1.27833863695165e-09
1.24996863715121e-09
1.22117334875737e-09
1.19210334589491e-09
1.16289679284786e-09
1.13367928075728e-09
1.10456389680018e-09
1.0756514853507e-09
1.04703104937438e-09
1.01878027895355e-09
9.90966182554043e-10
9.63645953583981e-10
9.36868230480426e-10
9.10673807783574e-10
8.85095567879342e-10
8.60158578599663e-10
8.35880966255514e-10
8.12271019356124e-10
7.89328048232283e-10
7.67052406093729e-10
7.45445511595848e-10
7.24505086030833e-10
7.04225890572321e-10
6.84599656480311e-10
6.6561777946255e-10
6.47267134670633e-10
6.29529754086373e-10
6.1238910097619e-10
5.95830913935515e-10
5.79838577779826e-10
5.64394403931429e-10
5.49480305691446e-10
5.35078025686388e-10
5.2116898947148e-10
5.07733961361635e-10
4.94746623886587e-10
4.82182259908044e-10
4.70024338859155e-10
4.58257454402457e-10
4.4686743312572e-10
4.35840707021445e-10
4.25164336068546e-10
4.14826012417122e-10
4.04814099621387e-10
3.95117670570882e-10
3.85726545580098e-10
3.7663133411487e-10
3.67823467321055e-10
3.5929521986245e-10
3.51039451191473e-10
3.42797453706662e-10
3.34491065225239e-10
3.26392019223383e-10
3.18478415825494e-10
3.10758399208732e-10
3.03242962976903e-10
2.95943610282501e-10
2.88801080773721e-10
2.80780336762516e-10
2.72913436414652e-10
2.65239842651573e-10
2.57792094321414e-10
2.48609224210865e-10
2.39669415657194e-10
2.29747123794801e-10
2.18473350915065e-10
2.04788898136422e-10
1.87745900697788e-10
1.64014593513161e-10
)
;

boundaryField
{
    electrode
    {
        type            zeroGradient;
    }
    ground
    {
        type            zeroGradient;
    }
    otherfaces
    {
        type            empty;
    }
}


// ************************************************************************* //
