/*--------------------------------*- C++ -*----------------------------------*\
| =========                 |                                                 |
| \\      /  F ield         | foam-extend: Open Source CFD                    |
|  \\    /   O peration     | Version:     4.0                                |
|   \\  /    A nd           | Web:         http://www.foam-extend.org         |
|    \\/     M anipulation  |                                                 |
\*---------------------------------------------------------------------------*/
FoamFile
{
    version     2.0;
    format      ascii;
    class       volVectorField;
    location    "9e-10";
    object      E;
}
// * * * * * * * * * * * * * * * * * * * * * * * * * * * * * * * * * * * * * //

dimensions      [0 0 0 1 0 0 0];

internalField   nonuniform List<vector> 
252
(
(-0 13593.3608594235 -0)
(-0 13593.3703216766 -0)
(-0 13593.3705507444 -0)
(-0 13593.3708898719 -0)
(-0 13593.370536009 -0)
(-0 13593.3700188193 -0)
(-0 13593.3706261634 -0)
(-0 13593.370501719 -0)
(-0 13593.3697892601 -0)
(-0 13593.3694343318 -0)
(-0 13593.3682301024 -0)
(-0 13593.3671645184 -0)
(-0 13593.3666487663 -0)
(-0 13593.3667598352 -0)
(-0 13593.3674220462 -0)
(-0 13593.3675174714 -0)
(-0 13593.3675306285 -0)
(-0 13593.367466848 -0)
(-0 13593.3671390379 -0)
(-0 13593.3675342285 -0)
(-0 13593.3677506056 -0)
(-0 13593.3672576787 -0)
(-0 13593.3675862019 -0)
(-0 13593.3684994043 -0)
(-0 13593.3690327471 -0)
(-0 13593.3692384009 -0)
(-0 13593.3692296989 -0)
(-0 13593.368700477 -0)
(-0 13593.368300282 -0)
(-0 13593.3677325119 -0)
(-0 13593.3676124797 -0)
(-0 13593.3681672681 -0)
(-0 13593.3677787364 -0)
(-0 13593.3670656058 -0)
(-0 13593.3667509083 -0)
(-0 13593.3674210321 -0)
(-0 13593.3686852271 -0)
(-0 13593.3687273339 -0)
(-0 13593.3682554803 -0)
(-0 13593.3673374488 -0)
(-0 13593.3660157117 -0)
(-0 13593.3661964739 -0)
(-0 13593.3671341724 -0)
(-0 13593.3680417368 -0)
(-0 13593.3680126003 -0)
(-0 13593.3669897666 -0)
(-0 13593.3670496478 -0)
(-0 13593.3665057931 -0)
(-0 13593.3649919468 -0)
(-0 13593.3651134429 -0)
(-0 13593.3650069072 -0)
(-0 13593.3648111565 -0)
(-0 13593.3657942722 -0)
(-0 13593.3659590367 -0)
(-0 13593.3653950616 -0)
(-0 13593.3650689093 -0)
(-0 13593.36510063 -0)
(-0 13593.3659461276 -0)
(-0 13593.3670287367 -0)
(-0 13593.3677408301 -0)
(-0 13593.3686758783 -0)
(-0 13593.3690554334 -0)
(-0 13593.3689877452 -0)
(-0 13593.3687756429 -0)
(-0 13593.3680471218 -0)
(-0 13593.3677811352 -0)
(-0 13593.3679874506 -0)
(-0 13593.3675208628 -0)
(-0 13593.3671665235 -0)
(-0 13593.3674159467 -0)
(-0 13593.3675267259 -0)
(-0 13593.3677114469 -0)
(-0 13593.3674410763 -0)
(-0 13593.3673841282 -0)
(-0 13593.3675124586 -0)
(-0 13593.3676201345 -0)
(-0 13593.3677184018 -0)
(-0 13593.3671702078 -0)
(-0 13593.3666601235 -0)
(-0 13593.3661858927 -0)
(-0 13593.36586334 -0)
(-0 13593.3658153588 -0)
(-0 13593.3653555867 -0)
(-0 13593.364981991 -0)
(-0 13593.3649829585 -0)
(-0 13593.3648374392 -0)
(-0 13593.3644310191 -0)
(-0 13593.3641967084 -0)
(-0 13593.3641607892 -0)
(-0 13593.3640492817 -0)
(-0 13593.3637764346 -0)
(-0 13593.3630669882 -0)
(-0 13593.3625916388 -0)
(-0 13593.3625444154 -0)
(-0 13593.3631018472 -0)
(-0 13593.3631724936 -0)
(-0 13593.3628669957 -0)
(-0 13593.362672784 -0)
(-0 13593.3625347106 -0)
(-0 13593.3627360348 -0)
(-0 13593.3625215538 -0)
(-0 13593.3619943152 -0)
(-0 13593.3616450268 -0)
(-0 13593.3620144571 -0)
(-0 13593.362145337 -0)
(-0 13593.3619052064 -0)
(-0 13593.3615386681 -0)
(-0 13593.3611140593 -0)
(-0 13593.3607752843 -0)
(-0 13593.360454125 -0)
(-0 13593.3610819664 -0)
(-0 13593.3613985188 -0)
(-0 13593.36106133 -0)
(-0 13593.3610450413 -0)
(-0 13593.3612586275 -0)
(-0 13593.3613752598 -0)
(-0 13593.3614949962 -0)
(-0 13593.361823701 -0)
(-0 13593.36160943 -0)
(-0 13593.3614679075 -0)
(-0 13593.3608915513 -0)
(-0 13593.3603659275 -0)
(-0 13593.3602538676 -0)
(-0 13593.3600070803 -0)
(-0 13593.360101769 -0)
(-0 13593.3600655386 -0)
(-0 13593.3597504191 -0)
(-0 13593.3600614459 -0)
(-0 13593.3603278903 -0)
(-0 13593.3604952392 -0)
(-0 13593.3610080413 -0)
(-0 13593.3614212082 -0)
(-0 13593.3620320365 -0)
(-0 13593.3620768645 -0)
(-0 13593.3618239361 -0)
(-0 13593.362014725 -0)
(-0 13593.3622839561 -0)
(-0 13593.3620888337 -0)
(-0 13593.3618816798 -0)
(-0 13593.3617923991 -0)
(-0 13593.3619265277 -0)
(-0 13593.3618062692 -0)
(-0 13593.3615008359 -0)
(-0 13593.3617359753 -0)
(-0 13593.3614786625 -0)
(-0 13593.3610402617 -0)
(-0 13593.3612431443 -0)
(-0 13593.3611468059 -0)
(-0 13593.3608866924 -0)
(-0 13593.3605871238 -0)
(-0 13593.3602297822 -0)
(-0 13593.3603752895 -0)
(-0 13593.3606879937 -0)
(-0 13593.361339648 -0)
(-0 13593.3616557255 -0)
(-0 13593.3617120765 -0)
(-0 13593.3615892105 -0)
(-0 13593.3609032174 -0)
(-0 13593.3609530969 -0)
(-0 13593.3611496681 -0)
(-0 13593.3609884885 -0)
(-0 13593.3611855209 -0)
(-0 13593.3613276808 -0)
(-0 13593.361156603 -0)
(-0 13593.3609938351 -0)
(-0 13593.3612848673 -0)
(-0 13593.3615470574 -0)
(-0 13593.3617429816 -0)
(-0 13593.3617900694 -0)
(-0 13593.3615980246 -0)
(-0 13593.3619168913 -0)
(-0 13593.3624846495 -0)
(-0 13593.3626474722 -0)
(-0 13593.3624089861 -0)
(-0 13593.3622261494 -0)
(-0 13593.362326782 -0)
(-0 13593.3624566499 -0)
(-0 13593.3624199381 -0)
(-0 13593.3627057697 -0)
(-0 13593.3630202808 -0)
(-0 13593.3627606849 -0)
(-0 13593.3623295271 -0)
(-0 13593.3622544054 -0)
(-0 13593.3621828913 -0)
(-0 13593.3620284185 -0)
(-0 13593.3619151288 -0)
(-0 13593.3618762851 -0)
(-0 13593.3620607695 -0)
(-0 13593.3621049641 -0)
(-0 13593.3620327623 -0)
(-0 13593.3622892632 -0)
(-0 13593.3625517227 -0)
(-0 13593.3623315036 -0)
(-0 13593.362242827 -0)
(-0 13593.3624172512 -0)
(-0 13593.3623623316 -0)
(-0 13593.3625082572 -0)
(-0 13593.3625290148 -0)
(-0 13593.3623721749 -0)
(-0 13593.3624666235 -0)
(-0 13593.3625483048 -0)
(-0 13593.3627091287 -0)
(-0 13593.3626917147 -0)
(-0 13593.362554394 -0)
(-0 13593.3626303379 -0)
(-0 13593.3627385727 -0)
(-0 13593.3629826292 -0)
(-0 13593.3632347254 -0)
(-0 13593.3631032568 -0)
(-0 13593.3629560815 -0)
(-0 13593.3631330499 -0)
(-0 13593.3631729256 -0)
(-0 13593.3630311665 -0)
(-0 13593.3630000183 -0)
(-0 13593.3629436007 -0)
(-0 13593.3628490129 -0)
(-0 13593.362969252 -0)
(-0 13593.3631126268 -0)
(-0 13593.3632648268 -0)
(-0 13593.3633193264 -0)
(-0 13593.3631937108 -0)
(-0 13593.3630939424 -0)
(-0 13593.3630441021 -0)
(-0 13593.3630623411 -0)
(-0 13593.3630204707 -0)
(-0 13593.3629257738 -0)
(-0 13593.3628736331 -0)
(-0 13593.3629510607 -0)
(-0 13593.3629810374 -0)
(-0 13593.3630312194 -0)
(-0 13593.3630755461 -0)
(-0 13593.3629780959 -0)
(-0 13593.3629338255 -0)
(-0 13593.3629683074 -0)
(-0 13593.3629884295 -0)
(-0 13593.3630287472 -0)
(-0 13593.3631483168 -0)
(-0 13593.3633029731 -0)
(-0 13593.3633817733 -0)
(-0 13593.3633933393 -0)
(-0 13593.3634050157 -0)
(-0 13593.3635002522 -0)
(-0 13593.363566648 -0)
(-0 13593.3635617269 -0)
(-0 13593.3635311873 -0)
(-0 13593.3634950206 -0)
(-0 13593.3634802101 -0)
(-0 13593.3634674231 -0)
(-0 13593.3635122926 -0)
(-0 13593.3635051903 -0)
(-0 13593.3636394999 -0)
(-0 20390.0428006043 -0)
)
;

boundaryField
{
    dielectric_2
    {
        type            calculated;
        value           nonuniform 0();
    }
    dielectric_1
    {
        type            calculated;
        value           uniform (-0 13593.3515282494 -0);
    }
    otherfaces
    {
        type            empty;
    }
    procBoundary1to0
    {
        type            processor;
        value           uniform (-0 20390.0389950361 -0);
    }
}


// ************************************************************************* //
