/*--------------------------------*- C++ -*----------------------------------*\
| =========                 |                                                 |
| \\      /  F ield         | foam-extend: Open Source CFD                    |
|  \\    /   O peration     | Version:     4.0                                |
|   \\  /    A nd           | Web:         http://www.foam-extend.org         |
|    \\/     M anipulation  |                                                 |
\*---------------------------------------------------------------------------*/
FoamFile
{
    version     2.0;
    format      ascii;
    class       volScalarField;
    location    "1.5e-06";
    object      Ar;
}
// * * * * * * * * * * * * * * * * * * * * * * * * * * * * * * * * * * * * * //

dimensions      [0 0 0 1 0 0 0];

internalField   nonuniform List<scalar> 
300
(
3.2188032503568e+22
3.218803247898e+22
3.21880324983918e+22
3.21880325164981e+22
3.21880325397918e+22
3.21880325706151e+22
3.21880326086588e+22
3.21880326537509e+22
3.21880327058869e+22
3.21880327650343e+22
3.21880328311591e+22
3.21880329042293e+22
3.21880329842135e+22
3.21880330710793e+22
3.21880331647937e+22
3.21880332653226e+22
3.21880333726336e+22
3.21880334866885e+22
3.21880336074476e+22
3.21880337348706e+22
3.21880338689159e+22
3.21880340095399e+22
3.21880341566973e+22
3.2188034310341e+22
3.21880344704382e+22
3.21880346369254e+22
3.21880348097514e+22
3.21880349888647e+22
3.21880351742002e+22
3.21880353656997e+22
3.2188035563322e+22
3.21880357669987e+22
3.21880359766531e+22
3.21880361922195e+22
3.21880364136308e+22
3.21880366408189e+22
3.21880368737187e+22
3.21880371122574e+22
3.21880373563604e+22
3.21880376059555e+22
3.21880378609695e+22
3.21880381213261e+22
3.21880383869501e+22
3.21880386577654e+22
3.21880389336957e+22
3.21880392146641e+22
3.21880395005962e+22
3.21880397914164e+22
3.21880400870588e+22
3.21880403874506e+22
3.21880406925311e+22
3.21880410022143e+22
3.21880413164332e+22
3.21880416350979e+22
3.21880419581293e+22
3.21880422854409e+22
3.21880426169608e+22
3.21880429526184e+22
3.21880432923455e+22
3.21880436360774e+22
3.21880439837475e+22
3.21880443352936e+22
3.21880446906611e+22
3.21880450498125e+22
3.2188045412691e+22
3.21880457792207e+22
3.21880461493526e+22
3.21880465230408e+22
3.21880469002432e+22
3.21880472809211e+22
3.21880476650421e+22
3.21880480525838e+22
3.21880484435223e+22
3.21880488378289e+22
3.21880492355005e+22
3.2188049636524e+22
3.21880500408856e+22
3.21880504485875e+22
3.21880508596124e+22
3.21880512739995e+22
3.21880516917281e+22
3.21880521128157e+22
3.21880525372914e+22
3.21880529651847e+22
3.21880533965489e+22
3.21880538314211e+22
3.21880542698412e+22
3.21880547118673e+22
3.21880551575774e+22
3.21880556070365e+22
3.21880560603312e+22
3.2188056517595e+22
3.21880569788686e+22
3.21880574442545e+22
3.2188057913865e+22
3.2188058387821e+22
3.21880588662519e+22
3.21880593492961e+22
3.21880598371113e+22
3.21880603298534e+22
3.2188060827681e+22
3.21880613307667e+22
3.2188061839326e+22
3.21880623535221e+22
3.21880628735666e+22
3.21880633996808e+22
3.21880639320708e+22
3.21880644709876e+22
3.21880650166614e+22
3.21880655693371e+22
3.21880661292765e+22
3.21880666967518e+22
3.218806727205e+22
3.2188067855462e+22
3.21880684472883e+22
3.2188069047854e+22
3.2188069657495e+22
3.21880702765122e+22
3.21880709052393e+22
3.21880715440279e+22
3.21880721932566e+22
3.21880728532724e+22
3.21880735244729e+22
3.21880742072237e+22
3.21880749018972e+22
3.21880756088865e+22
3.21880763286179e+22
3.21880770614783e+22
3.21880778078897e+22
3.21880785682709e+22
3.21880793430604e+22
3.21880801326899e+22
3.2188080937597e+22
3.21880817582454e+22
3.21880825951131e+22
3.21880834486262e+22
3.21880843192295e+22
3.21880852073994e+22
3.21880861136086e+22
3.21880870383038e+22
3.21880879819579e+22
3.21880889450457e+22
3.21880899280575e+22
3.21880909314833e+22
3.21880919558042e+22
3.21880930014548e+22
3.21880940689016e+22
3.2188095158608e+22
3.21880962710463e+22
3.21880974067001e+22
3.21880985659823e+22
3.21880997493316e+22
3.21881009572105e+22
3.21881021900023e+22
3.21881034480857e+22
3.21881047318441e+22
3.21881060416205e+22
3.21881073776739e+22
3.21881087402295e+22
3.2188110129474e+22
3.21881115455016e+22
3.21881129882976e+22
3.21881144576894e+22
3.21881159534299e+22
3.21881174748791e+22
3.21881190213009e+22
3.21881205923562e+22
3.21881221858991e+22
3.21881237967433e+22
3.2188125414411e+22
3.21881270401522e+22
3.21881286815619e+22
3.21881303241333e+22
3.21881319524671e+22
3.21881335725457e+22
3.21881352050535e+22
3.2188136776226e+22
3.21881383381465e+22
3.21881398295999e+22
3.21881412588185e+22
3.21881426328358e+22
3.21881438845516e+22
3.21881450666059e+22
3.21881460820602e+22
3.21881469859692e+22
3.21881477714595e+22
3.21881484122689e+22
3.2188148956234e+22
3.21881494100245e+22
3.21881497614254e+22
3.21881500282235e+22
3.21881502942098e+22
3.21881504963962e+22
3.21881506673444e+22
3.21881507715893e+22
3.21881508004646e+22
3.21881508188342e+22
3.21881508378468e+22
3.21881508684397e+22
3.21881509077265e+22
3.21881509523214e+22
3.21881509962198e+22
3.21881510485818e+22
3.21881511122894e+22
3.21881511686986e+22
3.2188151218083e+22
3.21881512603146e+22
3.21881512979229e+22
3.21881513285127e+22
3.21881513562964e+22
3.21881513793988e+22
3.21881514071255e+22
3.2188151445225e+22
3.21881514812166e+22
3.21881515118035e+22
3.21881515419191e+22
3.21881515664751e+22
3.21881515914273e+22
3.21881516122529e+22
3.21881516343117e+22
3.21881516534765e+22
3.21881516738652e+22
3.21881516911482e+22
3.21881517092513e+22
3.21881517323414e+22
3.21881517611042e+22
3.21881517862679e+22
3.2188151812391e+22
3.21881518354048e+22
3.21881518589803e+22
3.21881518790828e+22
3.2188151899646e+22
3.21881519173858e+22
3.21881519360578e+22
3.21881519528457e+22
3.21881519708441e+22
3.21881519875172e+22
3.21881520054897e+22
3.21881520218158e+22
3.21881520388436e+22
3.21881520536269e+22
3.21881520689877e+22
3.21881520906898e+22
3.2188152112172e+22
3.21881521310083e+22
3.21881521502445e+22
3.21881521672677e+22
3.21881521851289e+22
3.21881522012869e+22
3.21881522188885e+22
3.2188152235329e+22
3.21881522529758e+22
3.21881522692575e+22
3.21881522854071e+22
3.21881523005634e+22
3.21881523149159e+22
3.21881523282805e+22
3.21881523410235e+22
3.21881523518427e+22
3.21881523628711e+22
3.21881523711508e+22
3.21881523810404e+22
3.21881523876302e+22
3.21881523965306e+22
3.21881524023224e+22
3.21881524105947e+22
3.2188152418348e+22
3.21881524328024e+22
3.21881524441961e+22
3.21881524584012e+22
3.21881524690601e+22
3.21881524820185e+22
3.21881524911585e+22
3.21881525023496e+22
3.21881525097431e+22
3.21881525191487e+22
3.21881525249797e+22
3.21881525330876e+22
3.21881525381775e+22
3.21881525459831e+22
3.21881525512477e+22
3.21881525593621e+22
3.21881525650159e+22
3.21881525732727e+22
3.21881525788242e+22
3.21881525865602e+22
3.21881525913752e+22
3.21881525981008e+22
3.21881526019187e+22
3.21881526076713e+22
3.21881526107643e+22
3.21881526159001e+22
3.2188152618633e+22
3.2188152623582e+22
3.21881526263788e+22
3.21881526315175e+22
3.21881526347588e+22
3.21881526410137e+22
3.21881526452491e+22
3.21881526561429e+22
)
;

boundaryField
{
    electrode
    {
        type            zeroGradient;
    }
    ground
    {
        type            zeroGradient;
    }
    otherfaces
    {
        type            empty;
    }
}


// ************************************************************************* //
