/*--------------------------------*- C++ -*----------------------------------*\
| =========                 |                                                 |
| \\      /  F ield         | foam-extend: Open Source CFD                    |
|  \\    /   O peration     | Version:     4.0                                |
|   \\  /    A nd           | Web:         http://www.foam-extend.org         |
|    \\/     M anipulation  |                                                 |
\*---------------------------------------------------------------------------*/
FoamFile
{
    version     2.0;
    format      ascii;
    class       volScalarField;
    location    "1.5e-06";
    object      Arm;
}
// * * * * * * * * * * * * * * * * * * * * * * * * * * * * * * * * * * * * * //

dimensions      [0 0 0 1 0 0 0];

internalField   nonuniform List<scalar> 
300
(
3.57416084529793e+15
3.57604073024818e+15
3.57799057006343e+15
3.57929632764982e+15
3.5801124753992e+15
3.58049093282596e+15
3.58047591502519e+15
3.58009884939895e+15
3.57938539114113e+15
3.57835752871156e+15
3.57703102885847e+15
3.57541997833248e+15
3.57353642954346e+15
3.5713909846904e+15
3.56899310045269e+15
3.56635132659104e+15
3.56347047355379e+15
3.56035913499238e+15
3.55702565526899e+15
3.55347651120972e+15
3.5497179042855e+15
3.54575575621739e+15
3.54159575702538e+15
3.53724338143364e+15
3.53268787739016e+15
3.52794705559489e+15
3.52302459816074e+15
3.5179224976926e+15
3.51265438183197e+15
3.50722514890557e+15
3.50162096457824e+15
3.49585323501775e+15
3.48994010058316e+15
3.48388692302293e+15
3.47769878860986e+15
3.47138050645875e+15
3.46493223151834e+15
3.45836049006993e+15
3.45167235824926e+15
3.44487136544509e+15
3.43796101226339e+15
3.43094658045126e+15
3.42383194884404e+15
3.4166208090929e+15
3.40931666148614e+15
3.40192277336794e+15
3.39444008451674e+15
3.38687005999487e+15
3.37920490941673e+15
3.37144325311068e+15
3.3635724248232e+15
3.35560500440967e+15
3.34753552736691e+15
3.33938176966062e+15
3.33115183377008e+15
3.32286212778262e+15
3.31451593060993e+15
3.30611615841225e+15
3.29766538640511e+15
3.28916402204116e+15
3.28061639141247e+15
3.27202461129626e+15
3.26338535267742e+15
3.25468058862393e+15
3.24591429801673e+15
3.23711214576722e+15
3.22827618461888e+15
3.21940825435037e+15
3.21050994076545e+15
3.20158260689141e+15
3.19262541439429e+15
3.18363119102742e+15
3.17459839396786e+15
3.1655345220378e+15
3.15642596972952e+15
3.14727381226643e+15
3.13808442114538e+15
3.1288536048574e+15
3.11960147586152e+15
3.1102972681128e+15
3.10097574215061e+15
3.09163897575204e+15
3.08228386603899e+15
3.072912713476e+15
3.06351062788688e+15
3.05408538428624e+15
3.04464871564e+15
3.03520094378992e+15
3.02573010127547e+15
3.0162440019887e+15
3.00673667622832e+15
2.99716282009252e+15
2.98757798160694e+15
2.97798370618581e+15
2.96838002000044e+15
2.95876694959152e+15
2.94914427660001e+15
2.93951158679159e+15
2.92985790576784e+15
2.9201831805857e+15
2.91049369461675e+15
2.90079077794564e+15
2.89104249671274e+15
2.88127825638142e+15
2.87148876879171e+15
2.86166464485003e+15
2.8518210137556e+15
2.84193814608868e+15
2.83202652915064e+15
2.82209161882367e+15
2.81213153259677e+15
2.80214399301818e+15
2.7921212397765e+15
2.78206107053048e+15
2.77196129230818e+15
2.76180422736457e+15
2.75157090826346e+15
2.74128625649672e+15
2.7309511183994e+15
2.72055743110256e+15
2.7100787022657e+15
2.69952804044574e+15
2.68887631070777e+15
2.67813397628458e+15
2.66731249452242e+15
2.65640968673706e+15
2.64539731293648e+15
2.6342929409159e+15
2.62308567629055e+15
2.61177351822755e+15
2.60034077781962e+15
2.58878360821856e+15
2.57709704728992e+15
2.56525498874078e+15
2.55322085048795e+15
2.54101361389422e+15
2.52863722742031e+15
2.51606658478278e+15
2.5032827884863e+15
2.49029505492765e+15
2.47708735322731e+15
2.4636430547923e+15
2.44992998648734e+15
2.43591603621619e+15
2.4215765247844e+15
2.4069313942125e+15
2.39196571757675e+15
2.37666315366312e+15
2.36099317263873e+15
2.34490674135503e+15
2.328416466061e+15
2.31149759906736e+15
2.2940876956298e+15
2.27618570808795e+15
2.25777340568701e+15
2.23880099107095e+15
2.21922514865872e+15
2.19904543669474e+15
2.17824272248345e+15
2.15677198270333e+15
2.13459759095879e+15
2.11170453435427e+15
2.08805442762127e+15
2.06365995111603e+15
2.03850813893478e+15
2.01254421207536e+15
1.98578908445478e+15
1.95828739563581e+15
1.93006806231916e+15
1.90117302943139e+15
1.87167101022622e+15
1.84159516272186e+15
1.81103783428463e+15
1.78017063826749e+15
1.74918760632872e+15
1.7182585270431e+15
1.68756256911137e+15
1.65729869587833e+15
1.62770592961824e+15
1.59893969030667e+15
1.57115425879481e+15
1.54449677035972e+15
1.51904839635266e+15
1.49492415339646e+15
1.47212376733579e+15
1.45055644648734e+15
1.43026196238305e+15
1.41118859437245e+15
1.39324728691707e+15
1.3763487097275e+15
1.36037089716447e+15
1.34526678037417e+15
1.33102085561762e+15
1.317642316915e+15
1.30880464519534e+15
1.31164170377282e+15
1.31880156917025e+15
1.31972362373066e+15
1.31527650791427e+15
1.30702730719279e+15
1.29523634259952e+15
1.28218229998851e+15
1.27008914575868e+15
1.25943777416582e+15
1.25041601619894e+15
1.24243928797828e+15
1.2352122183012e+15
1.22866731049294e+15
1.22264486153784e+15
1.2169311924304e+15
1.2112126501957e+15
1.20571272477688e+15
1.2003791814733e+15
1.19515130647178e+15
1.19003814481083e+15
1.1850063330853e+15
1.18002354058091e+15
1.17511395744173e+15
1.17025570982034e+15
1.1654433173121e+15
1.16068639654815e+15
1.15597215543178e+15
1.15130285153947e+15
1.14664989818946e+15
1.14204793998849e+15
1.13751491209846e+15
1.13306559454749e+15
1.12869219897308e+15
1.12440164876718e+15
1.1202063540414e+15
1.1160958856509e+15
1.11207582111903e+15
1.10815680849186e+15
1.10433292027975e+15
1.10060201299375e+15
1.09697899516921e+15
1.09344588508481e+15
1.090019692898e+15
1.0866868252676e+15
1.08345547803454e+15
1.08032363144108e+15
1.07728097600959e+15
1.07433988014083e+15
1.07148359799154e+15
1.06871568437674e+15
1.06604900122493e+15
1.06346705933425e+15
1.06097520890325e+15
1.05857383227135e+15
1.05625291835119e+15
1.05401744466192e+15
1.05186128492695e+15
1.04977994676391e+15
1.04777732188508e+15
1.04584576553406e+15
1.04398379531524e+15
1.04219119625421e+15
1.04045394757095e+15
1.03878243311493e+15
1.03717041275321e+15
1.03562523705877e+15
1.03413603045492e+15
1.03270751536581e+15
1.03133331106641e+15
1.03001311571305e+15
1.02874513809257e+15
1.02752406975327e+15
1.02634937890692e+15
1.02521282988551e+15
1.02412275707936e+15
1.02307351910419e+15
1.02207234170861e+15
1.02110774032156e+15
1.02018705081753e+15
1.01929954890544e+15
1.01844510386417e+15
1.01762317115142e+15
1.01683482558158e+15
1.01608301414015e+15
1.0153621750813e+15
1.01467191717892e+15
1.01400562545653e+15
1.01334877008399e+15
1.0127020500959e+15
1.01208475526542e+15
1.01148672313376e+15
1.01091424615684e+15
1.01036709435094e+15
1.00983746908262e+15
1.00929483118813e+15
1.00874896452584e+15
1.00822285129788e+15
1.00771446594443e+15
1.00716847936055e+15
1.00661779795067e+15
1.00606089691269e+15
1.00543990842066e+15
1.00477026133051e+15
1.00401093942432e+15
1.00309813308018e+15
)
;

boundaryField
{
    electrode
    {
        type            zeroGradient;
    }
    ground
    {
        type            zeroGradient;
    }
    otherfaces
    {
        type            empty;
    }
}


// ************************************************************************* //
