/*--------------------------------*- C++ -*----------------------------------*\
| =========                 |                                                 |
| \\      /  F ield         | foam-extend: Open Source CFD                    |
|  \\    /   O peration     | Version:     4.0                                |
|   \\  /    A nd           | Web:         http://www.foam-extend.org         |
|    \\/     M anipulation  |                                                 |
\*---------------------------------------------------------------------------*/
FoamFile
{
    version     2.0;
    format      ascii;
    class       volVectorField;
    location    "1.5e-06";
    object      E;
}
// * * * * * * * * * * * * * * * * * * * * * * * * * * * * * * * * * * * * * //

dimensions      [0 0 0 1 0 0 0];

internalField   nonuniform List<vector> 
300
(
(3.87691139192015 -0 -0)
(8.57212963112362 -0 -0)
(14.6564414521544 -0 -0)
(20.6628913979048 -0 -0)
(26.5480548336522 -0 -0)
(32.4347165209241 -0 -0)
(38.3232617431899 -0 -0)
(44.207555237318 -0 -0)
(50.0875374342963 -0 -0)
(55.9627916424393 -0 -0)
(61.8325257870077 -0 -0)
(67.6959976367304 -0 -0)
(73.5524614839396 -0 -0)
(79.4011440888294 -0 -0)
(85.2412503332686 -0 -0)
(91.0719638660971 -0 -0)
(96.8924461872113 -0 -0)
(102.701837034759 -0 -0)
(108.49925513451 -0 -0)
(114.283799207413 -0 -0)
(120.05454933517 -0 -0)
(125.810568796237 -0 -0)
(131.550906189157 -0 -0)
(137.274597972194 -0 -0)
(142.980671390127 -0 -0)
(148.668147588457 -0 -0)
(154.33604527715 -0 -0)
(159.983384552533 -0 -0)
(165.609191023205 -0 -0)
(171.212500277298 -0 -0)
(176.792362520402 -0 -0)
(182.347847484073 -0 -0)
(187.878049497122 -0 -0)
(193.382092784931 -0 -0)
(198.859136865641 -0 -0)
(204.308382091588 -0 -0)
(209.729075340025 -0 -0)
(215.120515704948 -0 -0)
(220.482060321626 -0 -0)
(225.813130215491 -0 -0)
(231.113216185528 -0 -0)
(236.381884628791 -0 -0)
(241.618783472532 -0 -0)
(246.823648015989 -0 -0)
(251.99630677988 -0 -0)
(257.136687267817 -0 -0)
(262.244821758131 -0 -0)
(267.320853020196 -0 -0)
(272.365040017458 -0 -0)
(277.377763491182 -0 -0)
(282.359531580985 -0 -0)
(287.310985423755 -0 -0)
(292.232904670839 -0 -0)
(297.126213037765 -0 -0)
(301.991983815726 -0 -0)
(306.831445455398 -0 -0)
(311.645987100015 -0 -0)
(316.437164250869 -0 -0)
(321.20670442192 -0 -0)
(325.956512906043 -0 -0)
(330.688678673617 -0 -0)
(335.40548031029 -0 -0)
(340.109392170422 -0 -0)
(344.803090737733 -0 -0)
(349.489460987825 -0 -0)
(354.171603157739 -0 -0)
(358.852839639531 -0 -0)
(363.536722104634 -0 -0)
(368.227038972969 -0 -0)
(372.927823109916 -0 -0)
(377.643359791771 -0 -0)
(382.378195086561 -0 -0)
(387.137144508591 -0 -0)
(391.925301983152 -0 -0)
(396.748049309766 -0 -0)
(401.611065795097 -0 -0)
(406.520338479191 -0 -0)
(411.482172656168 -0 -0)
(416.503202747872 -0 -0)
(421.590403766516 -0 -0)
(426.751102947145 -0 -0)
(431.992992115703 -0 -0)
(437.324140201059 -0 -0)
(442.753006391115 -0 -0)
(448.288453641687 -0 -0)
(453.939762745565 -0 -0)
(459.716646741876 -0 -0)
(465.629265927793 -0 -0)
(471.688243376583 -0 -0)
(477.904680862331 -0 -0)
(484.290175528695 -0 -0)
(490.856836963998 -0 -0)
(497.617304953727 -0 -0)
(504.584768001908 -0 -0)
(511.772982429613 -0 -0)
(519.196292288244 -0 -0)
(526.869650262276 -0 -0)
(534.808639307439 -0 -0)
(543.029495511713 -0 -0)
(551.549132124572 -0 -0)
(560.385164788291 -0 -0)
(569.555938349849 -0 -0)
(579.080555394905 -0 -0)
(588.978906425223 -0 -0)
(599.271702440898 -0 -0)
(609.980509794274 -0 -0)
(621.127787707342 -0 -0)
(632.736928930847 -0 -0)
(644.832303882466 -0 -0)
(657.439308580788 -0 -0)
(670.584417070193 -0 -0)
(684.295238835645 -0 -0)
(698.600581737341 -0 -0)
(713.530521251407 -0 -0)
(729.11647677761 -0 -0)
(745.39129599884 -0 -0)
(762.389347931739 -0 -0)
(780.146626233671 -0 -0)
(798.700863500873 -0 -0)
(818.091658287639 -0 -0)
(838.360616137272 -0 -0)
(859.551506300453 -0 -0)
(881.710436258299 -0 -0)
(904.88604595634 -0 -0)
(929.129724137702 -0 -0)
(954.49584961726 -0 -0)
(981.042060446773 -0 -0)
(1008.82955424827 -0 -0)
(1037.92342390368 -0 -0)
(1068.39303277718 -0 -0)
(1100.3124344986 -0 -0)
(1133.76084329579 -0 -0)
(1168.82316120739 -0 -0)
(1205.59056987882 -0 -0)
(1244.16119576823 -0 -0)
(1284.64085886469 -0 -0)
(1327.14391663348 -0 -0)
(1371.79421715332 -0 -0)
(1418.72617740473 -0 -0)
(1468.08600577473 -0 -0)
(1520.03309088779 -0 -0)
(1574.74158355309 -0 -0)
(1632.40220301503 -0 -0)
(1693.22430465404 -0 -0)
(1757.43825470714 -0 -0)
(1825.29816513918 -0 -0)
(1897.08505336525 -0 -0)
(1973.11050649397 -0 -0)
(2053.72094402263 -0 -0)
(2139.30259553872 -0 -0)
(2230.28733689648 -0 -0)
(2327.15955711206 -0 -0)
(2430.46427283617 -0 -0)
(2540.8167561791 -0 -0)
(2658.91400169031 -0 -0)
(2785.54845080132 -0 -0)
(2921.62447469182 -0 -0)
(3068.17824880314 -0 -0)
(3226.40183509115 -0 -0)
(3397.67249753108 -0 -0)
(3583.58831937172 -0 -0)
(3786.01167152392 -0 -0)
(4007.12495533569 -0 -0)
(4249.49121264805 -0 -0)
(4516.14795104382 -0 -0)
(4810.71300204485 -0 -0)
(5137.47208267419 -0 -0)
(5501.79715713066 -0 -0)
(5911.20093070889 -0 -0)
(6376.56084337844 -0 -0)
(6911.10081618204 -0 -0)
(7528.09429867086 -0 -0)
(8242.90036499753 -0 -0)
(9075.78069188989 -0 -0)
(10047.687831446 -0 -0)
(11174.6821871016 -0 -0)
(12477.2511204323 -0 -0)
(13974.672454449 -0 -0)
(15681.3018005046 -0 -0)
(17609.017794458 -0 -0)
(19755.0920507502 -0 -0)
(22113.5536801324 -0 -0)
(24667.071286622 -0 -0)
(27395.2861685439 -0 -0)
(30276.7255632133 -0 -0)
(33273.7146188733 -0 -0)
(36354.8700395184 -0 -0)
(39488.2301418959 -0 -0)
(42637.9321777378 -0 -0)
(45781.9886324858 -0 -0)
(48909.7381372602 -0 -0)
(51998.6501447349 -0 -0)
(55027.5912504173 -0 -0)
(58002.7542054817 -0 -0)
(60937.2760664898 -0 -0)
(63849.9825260972 -0 -0)
(66757.3087290015 -0 -0)
(69658.8202752939 -0 -0)
(72550.7403575127 -0 -0)
(75428.696113096 -0 -0)
(78288.9516495463 -0 -0)
(81130.8084781983 -0 -0)
(83951.6384277369 -0 -0)
(86744.5631026585 -0 -0)
(89507.337950858 -0 -0)
(92243.4194051422 -0 -0)
(94956.5051224754 -0 -0)
(97649.6925084821 -0 -0)
(100326.117661899 -0 -0)
(102988.485662868 -0 -0)
(105638.958139282 -0 -0)
(108277.485588851 -0 -0)
(110899.430165899 -0 -0)
(113502.219031005 -0 -0)
(116088.053418486 -0 -0)
(118658.649417277 -0 -0)
(121215.789620252 -0 -0)
(123760.998020708 -0 -0)
(126295.365797334 -0 -0)
(128819.739504089 -0 -0)
(131334.592677802 -0 -0)
(133840.402219605 -0 -0)
(136337.711065505 -0 -0)
(138827.191733521 -0 -0)
(141307.074327552 -0 -0)
(143774.109355336 -0 -0)
(146227.626902654 -0 -0)
(148668.376188085 -0 -0)
(151096.958446619 -0 -0)
(153514.088528729 -0 -0)
(155920.590201537 -0 -0)
(158317.319270744 -0 -0)
(160704.930791822 -0 -0)
(163083.936080444 -0 -0)
(165454.565438244 -0 -0)
(167816.961114348 -0 -0)
(170171.097624072 -0 -0)
(172516.922621302 -0 -0)
(174854.479279788 -0 -0)
(177183.992483918 -0 -0)
(179505.865592234 -0 -0)
(181820.54304047 -0 -0)
(184125.879476109 -0 -0)
(186419.971542618 -0 -0)
(188703.630375774 -0 -0)
(190977.475471405 -0 -0)
(193241.996871407 -0 -0)
(195497.555757138 -0 -0)
(197744.357958001 -0 -0)
(199982.429690472 -0 -0)
(202211.634905041 -0 -0)
(204431.909194909 -0 -0)
(206643.252556569 -0 -0)
(208846.068971419 -0 -0)
(211040.651754905 -0 -0)
(213227.49935873 -0 -0)
(215407.109635933 -0 -0)
(217579.929071039 -0 -0)
(219746.688026314 -0 -0)
(221907.865411573 -0 -0)
(224064.188255248 -0 -0)
(226215.962692664 -0 -0)
(228363.662570618 -0 -0)
(230507.551277234 -0 -0)
(232647.83636572 -0 -0)
(234784.674931068 -0 -0)
(236917.445559362 -0 -0)
(239044.254291526 -0 -0)
(241163.977196924 -0 -0)
(243276.664164635 -0 -0)
(245382.509289215 -0 -0)
(247481.861023029 -0 -0)
(249575.151380148 -0 -0)
(251662.888579985 -0 -0)
(253745.575721987 -0 -0)
(255823.731020539 -0 -0)
(257897.805733129 -0 -0)
(259968.171296475 -0 -0)
(262035.030147655 -0 -0)
(264098.453124064 -0 -0)
(266158.368907324 -0 -0)
(268214.667702112 -0 -0)
(270267.221679033 -0 -0)
(272315.981533509 -0 -0)
(274360.965716177 -0 -0)
(276402.316073998 -0 -0)
(278440.240867646 -0 -0)
(280475.029134659 -0 -0)
(282506.968315914 -0 -0)
(284536.350373053 -0 -0)
(286563.398767859 -0 -0)
(288588.294364942 -0 -0)
(290611.134363014 -0 -0)
(292631.980974448 -0 -0)
(294650.827511918 -0 -0)
(296667.619429474 -0 -0)
(298682.243691622 -0 -0)
(300694.39588348 -0 -0)
(302703.822636832 -0 -0)
(304709.194655811 -0 -0)
)
;

boundaryField
{
    electrode
    {
        type            calculated;
        value           uniform (2.20337796008608 -0 -0);
    }
    ground
    {
        type            calculated;
        value           uniform (305710.373940847 -0 -0);
    }
    otherfaces
    {
        type            empty;
    }
}


// ************************************************************************* //
