/*--------------------------------*- C++ -*----------------------------------*\
| =========                 |                                                 |
| \\      /  F ield         | foam-extend: Open Source CFD                    |
|  \\    /   O peration     | Version:     4.0                                |
|   \\  /    A nd           | Web:         http://www.foam-extend.org         |
|    \\/     M anipulation  |                                                 |
\*---------------------------------------------------------------------------*/
FoamFile
{
    version     2.0;
    format      ascii;
    class       volScalarField;
    location    "1.5e-06";
    object      electron;
}
// * * * * * * * * * * * * * * * * * * * * * * * * * * * * * * * * * * * * * //

dimensions      [0 0 0 1 0 0 0];

internalField   nonuniform List<scalar> 
300
(
6.0453891885938e+16
6.04514760777822e+16
6.04459919633814e+16
6.0437110712381e+16
6.0424847874577e+16
6.04092175843545e+16
6.03902226491185e+16
6.03678677926291e+16
6.0342159222068e+16
6.03131039225879e+16
6.02807098143367e+16
6.024498579194e+16
6.02059417178956e+16
6.01635884283675e+16
6.01179377405387e+16
6.00690024585436e+16
6.00167963790024e+16
5.99613342960375e+16
5.99026320053959e+16
5.98407063074964e+16
5.97755750092163e+16
5.97072569241873e+16
5.96357718713963e+16
5.95611406719017e+16
5.94833851434537e+16
5.94025280928726e+16
5.93185933060023e+16
5.92316055350744e+16
5.91415904833773e+16
5.90485747870953e+16
5.89525859942158e+16
5.88536525404298e+16
5.87518037219608e+16
5.86470696652712e+16
5.85394812936214e+16
5.84290702904823e+16
5.83158690597953e+16
5.81999106831157e+16
5.80812288736838e+16
5.79598579274688e+16
5.78358326712603e+16
5.77091884079025e+16
5.75799608587569e+16
5.74481861034905e+16
5.73139005173096e+16
5.71771407057638e+16
5.70379434372415e+16
5.68963455732783e+16
5.67523839968073e+16
5.66060955384971e+16
5.64575169013045e+16
5.63066845833557e+16
5.61536347992909e+16
5.59984034001956e+16
5.58410257922339e+16
5.5681536854086e+16
5.55199708532983e+16
5.53563613616378e+16
5.51907411695338e+16
5.50231421996968e+16
5.4853595419966e+16
5.46821307554618e+16
5.45087770000945e+16
5.43335617274503e+16
5.41565112011174e+16
5.39776502844809e+16
5.3797002349984e+16
5.36145891879e+16
5.34304309146119e+16
5.32445458804032e+16
5.30569505767852e+16
5.2867659543351e+16
5.26766852741539e+16
5.24840381236363e+16
5.22897262120979e+16
5.2093755330729e+16
5.18961288462286e+16
5.16968476050087e+16
5.14959098370547e+16
5.1293311059457e+16
5.10890439796884e+16
5.08830983986844e+16
5.06754611138076e+16
5.04661158218132e+16
5.02550430219118e+16
5.00422199190633e+16
4.98276203276621e+16
4.96112145757869e+16
4.93929694101847e+16
4.91728479022237e+16
4.89508093550332e+16
4.87268092120773e+16
4.85007989674595e+16
4.8272726078219e+16
4.80425338789365e+16
4.78101614990006e+16
4.75755437828488e+16
4.73386112135599e+16
4.70992898401809e+16
4.68575012091419e+16
4.66131623001754e+16
4.63661854671418e+16
4.61164783841315e+16
4.58639439972778e+16
4.56084804826652e+16
4.53499812106911e+16
4.5088334717286e+16
4.48234246823361e+16
4.45551299156258e+16
4.42833243506183e+16
4.40078770463488e+16
4.37286521976448e+16
4.34455091538721e+16
4.31583024463595e+16
4.28668818245887e+16
4.25710923011682e+16
4.2270774205582e+16
4.19657632466145e+16
4.16558905832879e+16
4.13409829040907e+16
4.1020862514178e+16
4.06953474301938e+16
4.03642514822531e+16
4.00273844225544e+16
3.96845520400573e+16
3.93355562805704e+16
3.89801953715264e+16
3.86182639507049e+16
3.8249553198101e+16
3.78738509700944e+16
3.74909419350977e+16
3.71006077098258e+16
3.6702626995349e+16
3.62967757121535e+16
3.58828271334656e+16
3.5460552016176e+16
3.50297187288314e+16
3.45900933762818e+16
3.41414399207387e+16
3.3683520299207e+16
3.32160945375134e+16
3.27389208614238e+16
3.22517558056604e+16
3.17543543221007e+16
3.12464698888448e+16
3.07278546223968e+16
3.01982593959982e+16
2.96574339678669e+16
2.91051271241865e+16
2.85410868431683e+16
2.79650604880693e+16
2.73767950395106e+16
2.67760373806482e+16
2.61625346528166e+16
2.55360347056299e+16
2.48962866733081e+16
2.42430417206687e+16
2.3576054019875e+16
2.28950820404366e+16
2.21998902662059e+16
2.14902514978472e+16
2.07659500128665e+16
2.00267856687619e+16
1.92725797545157e+16
1.85031824312272e+16
1.77184809605035e+16
1.69184113594796e+16
1.61029569472789e+16
1.52720935185415e+16
1.44256762119429e+16
1.35634238423393e+16
1.26851790242205e+16
1.17912391613394e+16
1.08825314184084e+16
9.96093800253951e+15
9.03002101046414e+15
8.0954405561899e+15
7.16508446477308e+15
6.24926309353432e+15
5.36049412899136e+15
4.51300055651323e+15
3.72165466567533e+15
3.00028366248052e+15
2.36024709439232e+15
1.80903628262122e+15
1.34935427198598e+15
978909979776205
690905168553741
475050947372307
318899421660826
209801971194778
136116654415511
87745886572720.1
57006346255963.7
36884546849983
23279747610608
14265636160843
8637338663241.33
5467205387721.97
3756200984459.23
2830425717981.51
2316310674663.37
2022383634193.93
1851052588679.59
1750886648882.18
1693218082761.35
1661216707505.94
1644765620510.7
1637361076299.52
1634701545159.21
1633912258839.26
1633159991606.7
1631283171401.02
1627516045228.94
1621391071815.81
1612648216328.92
1601178960065.27
1586984521549.16
1570146270418.52
1550800766959.59
1529127278330.76
1505286771054.14
1479464119538.29
1451902700448.74
1422849347936.17
1392553483788.19
1361257353817.1
1329191068169.07
1296569721876.68
1263592023977.95
1230439467046.5
1197276041435.88
1164248418654.45
1131486459143.78
1099103937381.43
1067199386087.71
1035857003657.14
1005147614506.3
975129609894.006
945849881201.204
917344790963.034
889641179531.758
862757872182.454
836707024932.371
811493788758.696
787117300571.046
763563027446.286
740811531546.463
718850091207.054
697665587818.011
677242737813.101
657564182729.515
638610780262.717
620361913222.124
602795919901.761
585890374272.07
569624333026.039
553973262021.906
538908769609.965
524408469606.552
510451860858.918
497016407609.052
484080255006.622
471622100437.925
459621445390.624
448058620112.26
436914929541.855
426172357074.742
415813948075.222
405814095792.309
396148182959.317
386802258094.511
377763815233.48
369021695898.339
360565525680.88
352385719904.336
344473477000.261
336820817497.392
329420637329.148
322266744056.325
315353917467.594
308677365422.925
302232376297.976
296001493930.296
289954065198.705
284079438347.015
278389078649.214
272897312519.359
267619341505.722
262546057275.586
257649630498.118
252943057654.532
248482249697.703
244266518463.716
240322796530.048
236750869494.61
233694151595.137
231441186370.767
230481001794.359
231659890465.651
)
;

boundaryField
{
    electrode
    {
        type            driftDiffusionElectronDensity;
        seec            0.05;
        Edepend         1;
        field_emission  0;
        field_enhancement_factor 55;
        work_function   5;
        value           uniform 6.0453891885938e+16;
    }
    ground
    {
        type            driftDiffusionElectronDensity;
        seec            0.05;
        Edepend         1;
        field_emission  0;
        field_enhancement_factor 55;
        work_function   5;
        value           uniform 233931399046.265;
    }
    otherfaces
    {
        type            empty;
    }
}


// ************************************************************************* //
