/*--------------------------------*- C++ -*----------------------------------*\
| =========                 |                                                 |
| \\      /  F ield         | foam-extend: Open Source CFD                    |
|  \\    /   O peration     | Version:     4.0                                |
|   \\  /    A nd           | Web:         http://www.foam-extend.org         |
|    \\/     M anipulation  |                                                 |
\*---------------------------------------------------------------------------*/
FoamFile
{
    version     2.0;
    format      ascii;
    class       volVectorField;
    location    "1.5e-06";
    object      J_Arp1;
}
// * * * * * * * * * * * * * * * * * * * * * * * * * * * * * * * * * * * * * //

dimensions      [1 -1 -1 0 0 0 0];

internalField   nonuniform List<vector> 
300
(
(1.59703410157811e+16 -0 -0)
(5.18383013389825e+16 -0 -0)
(8.9903200321782e+16 -0 -0)
(1.25709502580669e+17 -0 -0)
(1.61409628683846e+17 -0 -0)
(1.97166614158069e+17 -0 -0)
(2.32878601535951e+17 -0 -0)
(2.68514324794703e+17 -0 -0)
(3.04072622492511e+17 -0 -0)
(3.39543701388755e+17 -0 -0)
(3.74916837169291e+17 -0 -0)
(4.10181893796225e+17 -0 -0)
(4.45328660792137e+17 -0 -0)
(4.80346820385566e+17 -0 -0)
(5.15226000989766e+17 -0 -0)
(5.49955778145685e+17 -0 -0)
(5.84525674744701e+17 -0 -0)
(6.18925170630393e+17 -0 -0)
(6.53143713202512e+17 -0 -0)
(6.8717072966993e+17 -0 -0)
(7.20995641543299e+17 -0 -0)
(7.54607881924808e+17 -0 -0)
(7.87996914328983e+17 -0 -0)
(8.21152253975633e+17 -0 -0)
(8.54063491058115e+17 -0 -0)
(8.86720315027777e+17 -0 -0)
(9.19112541782596e+17 -0 -0)
(9.51230141427489e+17 -0 -0)
(9.83063267470351e+17 -0 -0)
(1.0146022875999e+18 -0 -0)
(1.0458378148463e+18 -0 -0)
(1.07676073983484e+18 -0 -0)
(1.10736226341232e+18 -0 -0)
(1.13763392975432e+18 -0 -0)
(1.16756765945999e+18 -0 -0)
(1.19715578264172e+18 -0 -0)
(1.22639107198313e+18 -0 -0)
(1.25526677503479e+18 -0 -0)
(1.28377664625087e+18 -0 -0)
(1.31191497822346e+18 -0 -0)
(1.33967663214649e+18 -0 -0)
(1.36705706687438e+18 -0 -0)
(1.39405236751408e+18 -0 -0)
(1.42065927247673e+18 -0 -0)
(1.44687519940755e+18 -0 -0)
(1.47269826949348e+18 -0 -0)
(1.49812733083126e+18 -0 -0)
(1.52316198025278e+18 -0 -0)
(1.54780258370037e+18 -0 -0)
(1.57205029517366e+18 -0 -0)
(1.59590707420918e+18 -0 -0)
(1.61937570249439e+18 -0 -0)
(1.64245979857954e+18 -0 -0)
(1.66516383170937e+18 -0 -0)
(1.68749313420391e+18 -0 -0)
(1.70945391307627e+18 -0 -0)
(1.73105326020674e+18 -0 -0)
(1.75229916194267e+18 -0 -0)
(1.77320050759792e+18 -0 -0)
(1.79376709714188e+18 -0 -0)
(1.81400964858284e+18 -0 -0)
(1.83393980413689e+18 -0 -0)
(1.85357013639729e+18 -0 -0)
(1.87291415431984e+18 -0 -0)
(1.89198630775574e+18 -0 -0)
(1.91080199300489e+18 -0 -0)
(1.92937755741746e+18 -0 -0)
(1.94773030383267e+18 -0 -0)
(1.96587849539593e+18 -0 -0)
(1.98384135981674e+18 -0 -0)
(2.00163909348757e+18 -0 -0)
(2.01929286610722e+18 -0 -0)
(2.03682482465048e+18 -0 -0)
(2.05425809724576e+18 -0 -0)
(2.07161679764967e+18 -0 -0)
(2.08892602787757e+18 -0 -0)
(2.10621188268677e+18 -0 -0)
(2.1235014517206e+18 -0 -0)
(2.14082282223646e+18 -0 -0)
(2.15820508113984e+18 -0 -0)
(2.17567831529388e+18 -0 -0)
(2.19327361266498e+18 -0 -0)
(2.21102306030288e+18 -0 -0)
(2.22895974264609e+18 -0 -0)
(2.24711773734825e+18 -0 -0)
(2.26553211013004e+18 -0 -0)
(2.28423890699418e+18 -0 -0)
(2.30327514460352e+18 -0 -0)
(2.3226787989043e+18 -0 -0)
(2.34248878943825e+18 -0 -0)
(2.3627449630737e+18 -0 -0)
(2.38348807252331e+18 -0 -0)
(2.40475975255722e+18 -0 -0)
(2.42660249293988e+18 -0 -0)
(2.44905960660948e+18 -0 -0)
(2.47217519439898e+18 -0 -0)
(2.49599410579314e+18 -0 -0)
(2.52056189450225e+18 -0 -0)
(2.54592476996643e+18 -0 -0)
(2.57212954463703e+18 -0 -0)
(2.59922357502772e+18 -0 -0)
(2.6272546993855e+18 -0 -0)
(2.65627116977665e+18 -0 -0)
(2.68632157837454e+18 -0 -0)
(2.71745478066804e+18 -0 -0)
(2.74971981206202e+18 -0 -0)
(2.78316580067293e+18 -0 -0)
(2.81784187524388e+18 -0 -0)
(2.85379706870419e+18 -0 -0)
(2.89108021758044e+18 -0 -0)
(2.9297398575575e+18 -0 -0)
(2.96982411563099e+18 -0 -0)
(3.01138059935986e+18 -0 -0)
(3.05445628292236e+18 -0 -0)
(3.09909739135507e+18 -0 -0)
(3.14534928376975e+18 -0 -0)
(3.19325633383071e+18 -0 -0)
(3.24286181193127e+18 -0 -0)
(3.2942077650132e+18 -0 -0)
(3.34733489938756e+18 -0 -0)
(3.40228246284408e+18 -0 -0)
(3.45908812960137e+18 -0 -0)
(3.5177878872043e+18 -0 -0)
(3.57841592655422e+18 -0 -0)
(3.6410045341578e+18 -0 -0)
(3.70558398904786e+18 -0 -0)
(3.77218246243136e+18 -0 -0)
(3.8408259212114e+18 -0 -0)
(3.91153803527718e+18 -0 -0)
(3.98434008816976e+18 -0 -0)
(4.05925088938068e+18 -0 -0)
(4.13628669066435e+18 -0 -0)
(4.21546110100628e+18 -0 -0)
(4.29678500297635e+18 -0 -0)
(4.3802664659553e+18 -0 -0)
(4.46591065618204e+18 -0 -0)
(4.55371973951878e+18 -0 -0)
(4.64369277588282e+18 -0 -0)
(4.7358256007706e+18 -0 -0)
(4.83011069171981e+18 -0 -0)
(4.92653701284448e+18 -0 -0)
(5.02508983780701e+18 -0 -0)
(5.12575054113605e+18 -0 -0)
(5.22849635412452e+18 -0 -0)
(5.33330008338583e+18 -0 -0)
(5.44012977870468e+18 -0 -0)
(5.54894834626972e+18 -0 -0)
(5.65971310732786e+18 -0 -0)
(5.77237527742228e+18 -0 -0)
(5.88687937595663e+18 -0 -0)
(6.00316254887819e+18 -0 -0)
(6.12115378903603e+18 -0 -0)
(6.24077305923615e+18 -0 -0)
(6.36193029925914e+18 -0 -0)
(6.48452427637434e+18 -0 -0)
(6.60844136383375e+18 -0 -0)
(6.73355407915595e+18 -0 -0)
(6.85971947736743e+18 -0 -0)
(6.98677740407739e+18 -0 -0)
(7.11454855631434e+18 -0 -0)
(7.24283310901183e+18 -0 -0)
(7.37140050073505e+18 -0 -0)
(7.50001961574009e+18 -0 -0)
(7.62836766113509e+18 -0 -0)
(7.75618171967441e+18 -0 -0)
(7.88317570815852e+18 -0 -0)
(8.0085739798289e+18 -0 -0)
(8.13233823933165e+18 -0 -0)
(8.2568999066002e+18 -0 -0)
(8.36961715340189e+18 -0 -0)
(8.48278026131239e+18 -0 -0)
(8.59229971378934e+18 -0 -0)
(8.69572653392089e+18 -0 -0)
(8.7970703261573e+18 -0 -0)
(8.88265114959143e+18 -0 -0)
(8.97162553862241e+18 -0 -0)
(9.05859927146396e+18 -0 -0)
(9.12855696333203e+18 -0 -0)
(9.2192860787134e+18 -0 -0)
(9.27526103651532e+18 -0 -0)
(9.34883628836373e+18 -0 -0)
(9.37541065942606e+18 -0 -0)
(9.42906863958529e+18 -0 -0)
(9.48179342702377e+18 -0 -0)
(9.51775960802188e+18 -0 -0)
(9.57058453511559e+18 -0 -0)
(9.60115309650559e+18 -0 -0)
(9.63968496432784e+18 -0 -0)
(9.68002088447061e+18 -0 -0)
(9.71360179174138e+18 -0 -0)
(9.74456037605574e+18 -0 -0)
(9.7632030484221e+18 -0 -0)
(9.7973151416147e+18 -0 -0)
(9.80836792730065e+18 -0 -0)
(9.88163657999887e+18 -0 -0)
(1.00474478713665e+19 -0 -0)
(1.02752172806655e+19 -0 -0)
(1.04888356794129e+19 -0 -0)
(1.06643656499114e+19 -0 -0)
(1.08057805837657e+19 -0 -0)
(1.09213344023614e+19 -0 -0)
(1.10211172704742e+19 -0 -0)
(1.11114045528783e+19 -0 -0)
(1.11941039503112e+19 -0 -0)
(1.12736078469798e+19 -0 -0)
(1.13526010643739e+19 -0 -0)
(1.14337644415974e+19 -0 -0)
(1.15121195284829e+19 -0 -0)
(1.15953914562577e+19 -0 -0)
(1.16741079552482e+19 -0 -0)
(1.17548086220747e+19 -0 -0)
(1.1828425137981e+19 -0 -0)
(1.19041857973302e+19 -0 -0)
(1.19761336513595e+19 -0 -0)
(1.20543162351614e+19 -0 -0)
(1.21256094764705e+19 -0 -0)
(1.22051297145588e+19 -0 -0)
(1.22762220385401e+19 -0 -0)
(1.23524246345336e+19 -0 -0)
(1.24183538036434e+19 -0 -0)
(1.24863870738192e+19 -0 -0)
(1.25444677990795e+19 -0 -0)
(1.26058230669091e+19 -0 -0)
(1.2658901154648e+19 -0 -0)
(1.27177471334946e+19 -0 -0)
(1.27704011784356e+19 -0 -0)
(1.28287706321906e+19 -0 -0)
(1.28788483955588e+19 -0 -0)
(1.29337450290592e+19 -0 -0)
(1.29818907344178e+19 -0 -0)
(1.30366016870014e+19 -0 -0)
(1.30852781008172e+19 -0 -0)
(1.31388598631582e+19 -0 -0)
(1.31850881298385e+19 -0 -0)
(1.32334613221704e+19 -0 -0)
(1.32736193621914e+19 -0 -0)
(1.33142556761557e+19 -0 -0)
(1.33464263829918e+19 -0 -0)
(1.33803370048615e+19 -0 -0)
(1.34079552746642e+19 -0 -0)
(1.34396156209182e+19 -0 -0)
(1.34670730721853e+19 -0 -0)
(1.35008164175336e+19 -0 -0)
(1.35317690226655e+19 -0 -0)
(1.35688028478993e+19 -0 -0)
(1.36011263801233e+19 -0 -0)
(1.3638339284045e+19 -0 -0)
(1.36694593818465e+19 -0 -0)
(1.37038373608596e+19 -0 -0)
(1.37299961731966e+19 -0 -0)
(1.37575604747339e+19 -0 -0)
(1.37777843278949e+19 -0 -0)
(1.38003342599938e+19 -0 -0)
(1.38206670768242e+19 -0 -0)
(1.3842139016966e+19 -0 -0)
(1.38641407421842e+19 -0 -0)
(1.38874748087077e+19 -0 -0)
(1.39108679328387e+19 -0 -0)
(1.39394322413527e+19 -0 -0)
(1.39649955673362e+19 -0 -0)
(1.39991658118324e+19 -0 -0)
(1.40249831304158e+19 -0 -0)
(1.40617874821536e+19 -0 -0)
(1.40875221924367e+19 -0 -0)
(1.41236795305068e+19 -0 -0)
(1.41480997179762e+19 -0 -0)
(1.41807014173149e+19 -0 -0)
(1.42017320289248e+19 -0 -0)
(1.42332598317041e+19 -0 -0)
(1.4251549339043e+19 -0 -0)
(1.42825169334591e+19 -0 -0)
(1.43023164493195e+19 -0 -0)
(1.43361888186573e+19 -0 -0)
(1.4359973100552e+19 -0 -0)
(1.43980341723846e+19 -0 -0)
(1.44262614247398e+19 -0 -0)
(1.44680909997551e+19 -0 -0)
(1.44989949408779e+19 -0 -0)
(1.45413322117583e+19 -0 -0)
(1.45708516294723e+19 -0 -0)
(1.46099173433455e+19 -0 -0)
(1.46355271114927e+19 -0 -0)
(1.46705104322088e+19 -0 -0)
(1.46930682928474e+19 -0 -0)
(1.47260707292154e+19 -0 -0)
(1.47483744693338e+19 -0 -0)
(1.47822132855516e+19 -0 -0)
(1.48065140675379e+19 -0 -0)
(1.48424768597981e+19 -0 -0)
(1.48689658437655e+19 -0 -0)
(1.49062487144924e+19 -0 -0)
(1.49334182729101e+19 -0 -0)
(1.49702522699396e+19 -0 -0)
(1.49964179731057e+19 -0 -0)
(1.50313055211467e+19 -0 -0)
(1.50547646212516e+19 -0 -0)
(1.50861234639835e+19 -0 -0)
(1.51031292375947e+19 -0 -0)
(1.51287442068944e+19 -0 -0)
(1.51237146722586e+19 -0 -0)
)
;

boundaryField
{
    electrode
    {
        type            calculated;
        value           uniform (96759317415.535 -0 -0);
    }
    ground
    {
        type            calculated;
        value           uniform (1.51435042450682e+19 -0 -0);
    }
    otherfaces
    {
        type            empty;
    }
}


// ************************************************************************* //
