/*--------------------------------*- C++ -*----------------------------------*\
| =========                 |                                                 |
| \\      /  F ield         | foam-extend: Open Source CFD                    |
|  \\    /   O peration     | Version:     4.0                                |
|   \\  /    A nd           | Web:         http://www.foam-extend.org         |
|    \\/     M anipulation  |                                                 |
\*---------------------------------------------------------------------------*/
FoamFile
{
    version     2.0;
    format      ascii;
    class       volScalarField;
    location    "1.5e-06";
    object      N_electronMean;
}
// * * * * * * * * * * * * * * * * * * * * * * * * * * * * * * * * * * * * * //

dimensions      [0 0 0 1 0 0 0];

internalField   nonuniform List<scalar> 
300
(
6.08619314421331e+16
6.08613199641085e+16
6.08582296746966e+16
6.08518397878192e+16
6.08421517594872e+16
6.08290522544701e+16
6.08124649233086e+16
6.07923350150637e+16
6.0768613908878e+16
6.07412625330756e+16
6.07102497311055e+16
6.06755515463313e+16
6.0637150573776e+16
6.05950353435025e+16
6.05491998950221e+16
6.04996433545767e+16
6.04463695834473e+16
6.03893868817304e+16
6.03287077035397e+16
6.02643483917035e+16
6.01963289496938e+16
6.01246728302187e+16
6.004940673507e+16
5.99705604116442e+16
5.98881665191008e+16
5.98022605362132e+16
5.97128805533541e+16
5.96200670684484e+16
5.95238628332276e+16
5.9424312628468e+16
5.93214631423337e+16
5.92153629860703e+16
5.910606250249e+16
5.89936134191062e+16
5.8878068621287e+16
5.87594819880201e+16
5.86379082341279e+16
5.85134027750211e+16
5.83860215739283e+16
5.82558209879439e+16
5.81228576591148e+16
5.7987188402249e+16
5.78488700546072e+16
5.77079593463312e+16
5.75645128017089e+16
5.74185866467437e+16
5.72702367306526e+16
5.71195184678635e+16
5.69664868170823e+16
5.68111962967061e+16
5.66537010840553e+16
5.64940551187379e+16
5.63323120746192e+16
5.61685252210964e+16
5.60027471811052e+16
5.58350296792891e+16
5.5665423339923e+16
5.54939775488231e+16
5.53207403697346e+16
5.51457584661032e+16
5.4969077041178e+16
5.47907397895569e+16
5.46107888326916e+16
5.44292647789705e+16
5.42462069332102e+16
5.40616532345455e+16
5.38756399396772e+16
5.36882014668698e+16
5.34993703619701e+16
5.33091772592146e+16
5.3117650837996e+16
5.29248178436309e+16
5.27307032318043e+16
5.25353301757649e+16
5.23387199152041e+16
5.21408918286199e+16
5.19418635868693e+16
5.17416511013523e+16
5.15402682777773e+16
5.13377268807493e+16
5.1134036556257e+16
5.09292045630818e+16
5.07232355114473e+16
5.05161312949445e+16
5.03078910738818e+16
5.00985113489331e+16
4.98879858426618e+16
4.96763052216602e+16
4.94634569738192e+16
4.92494253977578e+16
4.90341914838505e+16
4.88177329686039e+16
4.86000244324558e+16
4.838103691795e+16
4.81607375627178e+16
4.79390894778175e+16
4.77160516159571e+16
4.74915786353834e+16
4.72656207580166e+16
4.70381236708673e+16
4.68090284159771e+16
4.65782711754409e+16
4.6345783196284e+16
4.61114908004161e+16
4.58753151155822e+16
4.56371718586118e+16
4.53969712147185e+16
4.51546176519213e+16
4.49100098072631e+16
4.46630402434381e+16
4.44135951542209e+16
4.41615541719432e+16
4.39067902205076e+16
4.3649169442143e+16
4.33885510407896e+16
4.31247871202126e+16
4.28577227387495e+16
4.25871958255069e+16
4.23130368026044e+16
4.20350682456051e+16
4.17531048038737e+16
4.14669532050734e+16
4.11764122193935e+16
4.08812726686168e+16
4.05813171608618e+16
4.02763196335825e+16
3.9966045192312e+16
3.96502500732086e+16
3.93286814390631e+16
3.90010772274181e+16
3.86671661307153e+16
3.8326667579876e+16
3.79792916899259e+16
3.76247392063103e+16
3.72627017521251e+16
3.68928621865938e+16
3.65148944997895e+16
3.61284636262172e+16
3.57332256864628e+16
3.53288282598587e+16
3.49149103657764e+16
3.44911024946134e+16
3.40570268507588e+16
3.3612297711355e+16
3.31565220172385e+16
3.26892998923789e+16
3.22102248029291e+16
3.17188836800042e+16
3.12148570693776e+16
3.06977196320735e+16
3.01670409867413e+16
2.96223861237202e+16
2.90633159133755e+16
2.84893878614878e+16
2.79001564954629e+16
2.72951739519254e+16
2.66739909171587e+16
2.60361575087861e+16
2.53812238461758e+16
2.47087406088527e+16
2.40182598446343e+16
2.33093348241644e+16
2.25815188875362e+16
2.18343632356507e+16
2.10674093950609e+16
2.02801714771618e+16
1.94721150560541e+16
1.86426525932238e+16
1.77911537506909e+16
1.69169536503926e+16
1.60193499306495e+16
1.5097642344508e+16
1.41513649443441e+16
1.31806642737575e+16
1.21866605932248e+16
1.11718386268086e+16
1.01405947300774e+16
9.09981307212612e+15
8.05917486221771e+15
7.03120447430319e+15
6.03096411463149e+15
5.07526701065448e+15
4.18143435827946e+15
3.36567951547115e+15
2.64136897377728e+15
2.0174351573633e+15
1.49732630663693e+15
1.07869384672742e+15
753926231528274
511410109473410
337211793520287
216838025342327
136748251533693
85375197402823.7
53303865794303.3
33611896347147.7
21606362936902.5
14350879752300.4
10000365981099.4
7410497037164.59
5907160453716.96
5057535119480.23
4561279407102.53
4243617427869.55
4018382912774.71
3844156013862.61
3700328176582.89
3575864689043.71
3464320239167.52
3361720073239.28
3265632879720.89
3174475571539.71
3087149648356.06
3002850846487.33
2921008494733.01
2841203175950.3
2763135284730.14
2686593054037.93
2611427832138.07
2537542801859.56
2464878699616.82
2393387038584.37
2323051657942.77
2253884862643.54
2185909772555.44
2119157942091.33
2053665683191.11
1989469161547.26
1926604152266.79
1865103444175.78
1804995248040.73
1746305262179.99
1689052908074.02
1633252634153.32
1578915053256.62
1526045337841.26
1474643038320.29
1424704883863.36
1376221869289.84
1329181073917.28
1283567352013.29
1239361370388.21
1196542762686.68
1155088338566.33
1114972363691.72
1076167541588.82
1038642419766.9
1002365815780.52
967307249221.589
933435813916.958
900720168818.245
869127698586.656
838625712751.463
809180775134.538
780760233568.441
753332646182.114
726867384534.423
701333726098.629
676700740541.698
652939253377.461
630021986618.309
607920717806.476
586607905075.619
566055765241.5
546237356410.203
527127526799.538
508702229170.63
490938882389.529
473815266552.46
457309148079.758
441396040402.897
426052858512.419
411259539033.561
396998574139.865
383253379544.623
370008320816.601
357248333713.049
344958431638.309
333124648810.001
321734079919.107
310774306416.122
300231884139.604
290094065780.807
280346079629.954
270965923175.547
261939077878.116
253263267791.691
244936517082.728
236956906581.23
229314508798.546
221992088808.232
214989167791.619
208323280170.21
201993608194.94
196015495316.354
190435107065.293
185325908085.403
180841304120.024
177239244980.227
174972059018.775
)
;

boundaryField
{
    electrode
    {
        type            calculated;
        value           uniform 6.08619314429191e+16;
    }
    ground
    {
        type            calculated;
        value           uniform 174843293608.82;
    }
    otherfaces
    {
        type            empty;
    }
}


// ************************************************************************* //
