/*--------------------------------*- C++ -*----------------------------------*\
| =========                 |                                                 |
| \\      /  F ield         | foam-extend: Open Source CFD                    |
|  \\    /   O peration     | Version:     4.0                                |
|   \\  /    A nd           | Web:         http://www.foam-extend.org         |
|    \\/     M anipulation  |                                                 |
\*---------------------------------------------------------------------------*/
FoamFile
{
    version     2.0;
    format      ascii;
    class       volScalarField;
    location    "1.5e-06";
    object      Phi;
}
// * * * * * * * * * * * * * * * * * * * * * * * * * * * * * * * * * * * * * //

dimensions      [0 0 0 1 0 0 0];

internalField   nonuniform List<scalar> 
300
(
699.999963277034
699.999778262207
699.999391801725
699.99880116611
699.998014275632
699.997031295788
699.995851961197
699.994476411671
699.992904790849
699.991137242508
699.989173938073
699.987015074122
699.984660871564
699.98211157669
699.979367461958
699.976428826668
699.9732959977
699.969969330255
699.966449208565
699.962736046579
699.958830288618
699.954732409957
699.950442917365
699.945962349545
699.941291277499
699.936430304786
699.93138006766
699.9261412351
699.92071450869
699.915100622365
699.909300342005
699.903314464864
699.897143818839
699.890789261564
699.88425167932
699.877531985773
699.870631120514
699.863550047417
699.856289752801
699.848851243396
699.841235544119
699.83344369565
699.825476751811
699.817335776752
699.809021841943
699.800536022967
699.791879396125
699.78305303485
699.774058005924
699.764895365515
699.755566155024
699.746071396743
699.736412089329
699.726589203098
699.716603675127
699.706456404177
699.69614824543
699.685680005037
699.67505243448
699.664266224742
699.653322000286
699.642220312831
699.630961634932
699.619546353352
699.607974762217
699.596247055953
699.584363322006
699.572323533311
699.560127540532
699.547775064046
699.535265685658
699.52259884006
699.509773805986
699.496789697093
699.48364545252
699.470339827139
699.456871381467
699.44323847124
699.429439236624
699.415471591057
699.401333209706
699.387021517526
699.372533676898
699.357866574846
699.343016809806
699.327980677937
699.312754158956
699.297332901487
699.281712207895
699.265887018596
699.249851895837
699.233601006894
699.217128106706
699.200426519897
699.183489122172
699.166308321069
699.148876036019
699.131183677718
699.113222126732
699.09498171135
699.076452184591
699.057622700365
699.038481788701
699.019017330005
698.999216528273
698.979065883175
698.958551160953
698.937657363995
698.916368699024
698.894668543736
698.872539411785
698.849962915931
698.826919729196
698.803389543816
698.77935102778
698.754781778697
698.729658274713
698.703955822168
698.677648499631
698.650709097935
698.623109055745
698.594818390192
698.565805621992
698.536037694442
698.505479885595
698.474095712833
698.441846828953
698.408692908803
698.374591525337
698.339498013876
698.303365323152
698.266143851576
698.227781266932
698.188222307495
698.147408562274
698.105278227777
698.061765838349
698.016801966668
697.970312890539
697.922220221508
697.872440490154
697.820884682116
697.767457717917
697.712057868581
697.654576097607
697.594895318268
697.532889553264
697.468422981377
697.401348852831
697.331508251775
697.258728679795
697.182822429315
697.103584709321
697.020791477793
696.934196925576
696.843530544347
696.748493695522
696.648755579367
696.543948478935
696.433662123695
696.3174369791
696.194756235737
696.065036200998
695.927614572048
695.781736786821
695.626538041979
695.461022586685
695.284039903134
695.094236109543
694.889959841087
694.669132053318
694.429219786674
694.167259100073
693.879693095674
693.562207053947
693.209847240245
692.817228241474
692.378030498882
691.885583411177
691.332610378849
690.711648891547
690.015604242132
689.237411979538
688.371132823024
687.411059568302
686.352684452143
685.192811927044
683.929026449508
682.560263250917
681.086497637659
679.508130675418
677.825848428508
676.041553999102
674.157342345148
672.174703718737
670.094857274048
667.918038216997
665.644370025448
663.274116865311
660.807654001613
658.245537124438
655.58839055831
652.836816559225
649.991614663128
647.053845685715
644.024458799737
640.904284392038
637.694025124906
634.394304891473
631.005617280779
627.52840584728
623.963020071493
620.309906808024
616.569724727101
612.743092205958
608.830521165868
604.832515578139
600.749468524518
596.581782376758
592.329777471363
587.993799743152
583.574137959509
579.071106261846
574.484957221808
569.815960146278
565.064485599972
560.231019522589
555.315977139794
550.319794443383
545.242846576687
540.085521874801
534.848140563251
529.531033923418
524.134478510462
518.658771518056
513.104174147913
507.470974110432
501.759434306308
495.969845935679
490.102469020988
484.157579770084
478.13541131484
472.036210234052
465.8603526831
459.608212131211
453.280110658047
446.876380433119
440.397310866619
433.843210049309
427.21435366942
420.511048069944
413.733578009084
406.882254123616
399.95736117198
392.959182858855
385.887984388319
378.74401623494
371.527510412589
364.238687630204
356.877731210835
349.444829936099
341.940118660487
334.363765756588
326.715874489112
318.99659567144
311.206018731397
303.344284009367
295.411522360773
287.408000389933
279.333923880978
271.189556112291
262.975089928364
254.690765377421
246.336746503018
237.913239472088
229.420374788221
220.85832407072
212.227187739346
203.527112650956
194.758185729503
185.920549109351
177.014294469013
168.039571262544
158.996479690411
149.885172493643
140.705748642667
131.458351422043
122.143065918157
112.7600161464
103.309268030428
93.7909261215274
84.2050414459062
74.5517064971995
64.8309658217042
55.0429077655705
45.1875773209113
35.2650664702722
25.2754277414691
15.2187734113716
5.09517289901249
)
;

boundaryField
{
    electrode
    {
        type            fixedValue;
        value           uniform 700;
    }
    ground
    {
        type            fixedValue;
        value           uniform 0;
    }
    otherfaces
    {
        type            empty;
    }
}


// ************************************************************************* //
