/*--------------------------------*- C++ -*----------------------------------*\
| =========                 |                                                 |
| \\      /  F ield         | foam-extend: Open Source CFD                    |
|  \\    /   O peration     | Version:     4.0                                |
|   \\  /    A nd           | Web:         http://www.foam-extend.org         |
|    \\/     M anipulation  |                                                 |
\*---------------------------------------------------------------------------*/
FoamFile
{
    version     2.0;
    format      ascii;
    class       volScalarField;
    location    "1.5e-06";
    object      Te;
}
// * * * * * * * * * * * * * * * * * * * * * * * * * * * * * * * * * * * * * //

dimensions      [0 0 0 1 0 0 0];

internalField   nonuniform List<scalar> 
300
(
25125.0680476619
25125.1997735862
25125.2967872231
25125.3555140378
25125.4348887807
25125.5365794721
25125.6583050888
25125.8001192363
25125.9621242644
25126.1442772738
25126.3465573764
25126.5689535114
25126.8114544357
25127.0740505592
25127.35673444
25127.6595005937
25127.9823454984
25128.325267644
25128.6882675477
25129.0713477726
25129.4745129524
25129.8977698144
25130.3411272
25130.8045960902
25131.2881896211
25131.7919231076
25132.3158140654
25132.8598822243
25133.4241495486
25134.0086402535
25134.6133808182
25135.2384000007
25135.8837288511
25136.5494007227
25137.2354512815
25137.9419185185
25138.6688427569
25139.4162666605
25140.1842352446
25140.9727958832
25141.7819983158
25142.6118946572
25143.4625394095
25144.3339894708
25145.2263041465
25146.1395451626
25147.0737766838
25148.0290653304
25149.0054801968
25150.0030928743
25151.0219774809
25152.0622106898
25153.1238717625
25154.2070425869
25155.3118077215
25156.4382544418
25157.5864727929
25158.7565556494
25159.9485987765
25161.1627009028
25162.3989637949
25163.6574923398
25164.9383946397
25166.2417821035
25167.5677695518
25168.9164753338
25170.2880214423
25171.6825336453
25173.1001416238
25174.5409791141
25176.0051840653
25177.4928988048
25179.0042702086
25180.5394498892
25182.0985943872
25183.681865376
25185.2894298825
25186.9214605085
25188.5781356748
25190.2596398706
25191.9661639204
25193.6979052627
25195.455068239
25197.2378644051
25199.046512854
25200.881240554
25202.7422827045
25204.6298831157
25206.5442945992
25208.4857793854
25210.4546095624
25212.4510675315
25214.475446501
25216.5280509972
25218.6091974025
25220.7192145348
25222.8584442518
25225.0272420916
25227.2259779621
25229.4550368606
25231.7148196432
25234.0057438517
25236.3282445794
25238.6827754058
25241.0698093991
25243.4898401733
25245.9433830303
25248.4309761857
25250.9531820764
25253.5105887689
25256.1038114778
25258.7334941958
25261.4003114483
25264.1049701893
25266.8482118534
25269.6308145642
25272.4535955305
25275.3174136416
25278.2231722767
25281.1718223624
25284.1643656833
25287.2018584935
25290.2854154489
25293.4162138852
25296.5954984959
25299.8245864461
25303.1048729623
25306.4378374627
25309.8250502914
25313.2681801109
25316.7690020532
25320.329406712
25323.9514100751
25327.6371645352
25331.3889711131
25335.2092930521
25339.1007709868
25343.0662399076
25347.1087481841
25351.2315789559
25355.4382742684
25359.7326623936
25364.1188888296
25368.6014516422
25373.1852418806
25377.8755899283
25382.678318948
25387.5998066898
25392.6470572211
25397.8277846388
25403.1505110344
25408.624681637
25414.2608008192
25420.0705931126
25426.0671949585
25432.2653836449
25438.6818510117
25445.3355330696
25452.2480077142
25459.4439753304
25466.951816313
25474.8044001407
25483.0397723557
25491.7025534375
25500.8462023947
25510.534006275
25520.8519736924
25531.9422756381
25544.0262394353
25557.3228321778
25571.9092552963
25587.8270781568
25605.2803550518
25624.4262191446
25645.0557618715
25667.1330649965
25690.9565104022
25716.7089000562
25745.0338905902
25777.149425404
25815.5346586159
25865.5257149888
25935.1880343409
26037.3728212066
26192.8018186835
26432.6664523883
26805.6067387644
27387.5096665489
28301.7608146765
29735.6412735928
31988.4694932333
35596.444489351
41429.3552964836
51362.246553452
67246.4528018065
89047.1265998662
120187.079582029
159843.105686825
209531.968542828
266083.895614588
325011.086857356
382111.145201027
434725.477857464
481717.744338823
523015.946857186
559058.525253387
590467.058519591
617910.882779811
642068.417809671
663526.350954178
682735.865901023
700061.370454551
715835.933945788
730323.936981161
743743.580483623
756273.157026605
768059.52928474
779223.867407844
789866.722555339
800070.988493317
809909.791423115
819433.154740444
828682.061121284
837701.345627101
846522.410504424
855170.751158557
863666.056593177
872023.16851798
880252.700359031
888361.623044703
896353.670817559
904229.695295876
911987.978859581
919624.508889539
927133.220703293
934506.214796733
941733.946865325
948805.413383408
955708.311470693
962429.180720615
968953.539044685
975265.926356739
981350.118800764
987189.555706397
992766.926626381
998066.20402828
1003067.32741804
1007748.85706723
1012094.10576855
1016085.22538177
1019703.74445514
1022930.99465902
1025748.19503923
1028136.46206151
1030076.89803421
1031550.02448846
1032536.98390167
1033007.64798613
1032968.11858694
1032385.25513394
1031241.32978596
1029516.18408504
1027190.45871905
1024244.43111822
1020658.18141758
1016411.40748343
1011483.56070388
1005853.38499545
999502.946302841
992408.030347476
984543.252265017
975889.140572445
966421.293191924
956114.400649799
944941.638207298
932874.762689948
919883.904428835
905937.376761238
891001.455497095
875040.094513414
858014.885099965
839884.343536262
820608.873408961
800144.352250048
778433.502478445
755419.617436541
731039.976550069
705215.65727649
677867.411741973
648907.167416122
618222.930989125
585685.602026468
551157.714174721
514450.035331541
475333.164432015
433521.8332272
388614.207300125
340051.995522868
287019.012574368
228449.216318455
)
;

boundaryField
{
    electrode
    {
        type            electronTemperature;
        seec            0.05;
        Tse             1000;
        Edepend         1;
        TFN             1000;
        field_emission  0;
        field_enhancement_factor 55;
        work_function   5;
        value           uniform 25125.0680476619;
    }
    ground
    {
        type            electronTemperature;
        seec            0.05;
        Tse             1000;
        Edepend         1;
        TFN             1000;
        field_emission  0;
        field_enhancement_factor 55;
        work_function   5;
        value           uniform 195198.695375555;
    }
    otherfaces
    {
        type            empty;
    }
}


// ************************************************************************* //
