/*--------------------------------*- C++ -*----------------------------------*\
| =========                 |                                                 |
| \\      /  F ield         | foam-extend: Open Source CFD                    |
|  \\    /   O peration     | Version:     4.0                                |
|   \\  /    A nd           | Web:         http://www.foam-extend.org         |
|    \\/     M anipulation  |                                                 |
\*---------------------------------------------------------------------------*/
FoamFile
{
    version     2.0;
    format      ascii;
    class       volScalarField;
    location    "1.5e-06";
    object      TeMean;
}
// * * * * * * * * * * * * * * * * * * * * * * * * * * * * * * * * * * * * * //

dimensions      [0 0 0 1 0 0 0];

internalField   nonuniform List<scalar> 
300
(
30726.6118723735
30727.0076605439
30726.9952166243
30726.6174963472
30726.1334275299
30725.5146395463
30724.7688912014
30723.9031234489
30722.9191320331
30721.8194866187
30720.6065605559
30719.2826537781
30717.8499774504
30716.3105986958
30714.6665051123
30712.9195974021
30711.0716846065
30709.1245040907
30707.0797195082
30704.9389199504
30702.7036316891
30700.3753090931
30697.9553447417
30695.4450661781
30692.8457340741
30690.1585889924
30687.3848201086
30684.5255537652
30681.5818899789
30678.5548526832
30675.4453840381
30672.2544488112
30668.9830237193
30665.6320135938
30662.2022750165
30658.6945989512
30655.1097447043
30651.4484774309
30647.7115307574
30643.8995873895
30640.0132876228
30636.0532776111
30632.0201741019
30627.9145519494
30623.7369586847
30619.4879130118
30615.1679024326
30610.7773788059
30606.3167441132
30601.7863498436
30597.1864977966
30592.5175024631
30587.7797260009
30582.9734994363
30578.0991426503
30573.1569893814
30568.1473193433
30563.0703661443
30557.9263717764
30552.7155588978
30547.4381235554
30542.0942733318
30536.6841234908
30531.207740184
30525.6652905526
30520.0569786505
30514.3829652817
30508.6433758183
30502.8383154599
30496.9678890538
30491.0321654509
30485.0311391575
30478.9648402076
30472.8333172898
30466.6365454151
30460.3744354511
30454.0469518698
30447.6541437048
30441.1959796371
30434.6723724686
30428.0833241845
30421.4288377542
30414.7088223772
30407.9231239718
30401.0715650502
30394.1540398014
30387.170493454
30380.1208022968
30373.0047812096
30365.8222648777
30358.5730117795
30351.2567511518
30343.8733865436
30336.4227326285
30328.9045299436
30321.3185886225
30313.6646617583
30305.9424875363
30298.1517631935
30290.2921790463
30282.3634792141
30274.3652649202
30266.2971019599
30258.1586795724
30249.9496406886
30241.6695730349
30233.3180177458
30224.8944981871
30216.3985651955
30207.8297302633
30199.1874764963
30190.4712457031
30181.6804095648
30172.8143927057
30163.872537184
30154.8540846149
30145.7582134462
30136.5841480333
30127.3311562059
30117.998282786
30108.5844863243
30099.0887172984
30089.5098345629
30079.846699041
30070.0981956876
30060.2630524424
30050.3397996079
30040.3269514527
30030.2229818506
30020.0261484605
30009.7345632224
29999.3462817796
29988.8592641017
29978.2711256963
29967.5792492298
29956.781117969
29945.8740393362
29934.8549442597
29923.7205936316
29912.4676253137
29901.0924097455
29889.5909577078
29877.9589061356
29866.1914958845
29854.2836947174
29842.2302594991
29830.0255983047
29817.6637492015
29805.1380283153
29792.4411571001
29779.5656454001
29766.5033065259
29753.2452785335
29739.7823152227
29726.1042900233
29712.200250074
29698.0586081213
29683.667182943
29669.0131484733
29654.0828586017
29638.8626635252
29623.3391921684
29607.4996046391
29591.334910896
29574.844264903
29558.0321013138
29540.8975505995
29523.4358351946
29505.6511988811
29487.5669602671
29469.1957769594
29450.4369156027
29431.074035978
29410.8653173815
29389.4915886233
29366.4069329228
29340.8516224747
29312.0500249305
29279.2263723672
29241.723557874
29199.3643556964
29152.8748631864
29104.5810953085
29059.3567806642
29026.0576524839
29019.3435469273
29062.7047934655
29192.8989605201
29467.3990042465
29977.5170714324
30869.2119588161
32386.2000278158
34939.8806931136
39327.0387103055
46761.9212350715
58562.666964534
76759.6352643983
102972.422471105
139516.214200379
186821.779345608
244316.787545186
309018.345232201
376938.405313299
443247.920794835
504166.542101697
557747.836149073
603730.886965808
642786.489066974
675975.235387151
704374.438674218
728861.942838729
750144.488343786
768808.631793193
785333.867119523
800105.101108669
813431.342073694
825561.285214409
836696.474784176
847000.07056884
856600.021781494
865599.456769733
874086.754141391
882136.780837166
889810.600802215
897156.925880582
904215.365663911
911017.82723223
917589.713458843
923950.896523443
930116.470313936
936097.426024902
941901.222361654
947532.253455478
952991.91964874
958279.138668697
963390.889069498
968322.198849999
973066.420357838
977615.401478895
981959.685982372
986088.63161281
989990.551815975
993652.952529506
997062.615123478
1000205.71947685
1003068.05833821
1005634.06961878
1007888.23441808
1009815.83704876
1011401.40940782
1012629.27504895
1013483.62589549
1013948.5611252
1014008.13006456
1013646.34526125
1012847.03255558
1011594.49243537
1009869.21387673
1007663.27775431
1004957.10308284
1001734.53053
997979.408899452
993675.761510223
988807.483265584
983358.381032596
977312.055787363
970651.895635987
963361.035494478
955422.732561637
946820.012180542
937533.912595665
927545.221704165
916835.420327635
905384.33601618
893170.397594578
880170.752007951
866361.231614198
851716.145236919
836208.235888573
819808.355434967
802485.183997075
784205.091702019
764932.86200588
744630.767936443
723252.260652387
700747.856025679
677064.137471786
652136.210846157
625894.928193341
598261.761619135
569141.151983605
538422.092789313
505977.714274002
471643.781870619
435218.260045337
396444.36816661
354956.461204001
310264.370714393
261659.381471628
208178.433993868
)
;

boundaryField
{
    electrode
    {
        type            calculated;
        value           uniform 30726.6118723816;
    }
    ground
    {
        type            calculated;
        value           uniform 177938.661136042;
    }
    otherfaces
    {
        type            empty;
    }
}


// ************************************************************************* //
