/*--------------------------------*- C++ -*----------------------------------*\
| =========                 |                                                 |
| \\      /  F ield         | foam-extend: Open Source CFD                    |
|  \\    /   O peration     | Version:     4.0                                |
|   \\  /    A nd           | Web:         http://www.foam-extend.org         |
|    \\/     M anipulation  |                                                 |
\*---------------------------------------------------------------------------*/
FoamFile
{
    version     2.0;
    format      ascii;
    class       volVectorField;
    location    "8e-10";
    object      E;
}
// * * * * * * * * * * * * * * * * * * * * * * * * * * * * * * * * * * * * * //

dimensions      [0 0 0 1 0 0 0];

internalField   nonuniform List<vector> 
250
(
(-0 18125.4454105141 -0)
(-0 12083.5740404141 -0)
(-0 12083.5739180333 -0)
(-0 12083.5739007606 -0)
(-0 12083.5738749057 -0)
(-0 12083.5738583742 -0)
(-0 12083.5738575854 -0)
(-0 12083.5738668906 -0)
(-0 12083.5738832851 -0)
(-0 12083.5739065542 -0)
(-0 12083.5739258002 -0)
(-0 12083.5739269861 -0)
(-0 12083.5739284392 -0)
(-0 12083.5739516024 -0)
(-0 12083.5739593385 -0)
(-0 12083.5739695636 -0)
(-0 12083.5739733747 -0)
(-0 12083.5739717451 -0)
(-0 12083.5739771317 -0)
(-0 12083.5739816371 -0)
(-0 12083.5739714504 -0)
(-0 12083.5739529309 -0)
(-0 12083.5739509286 -0)
(-0 12083.5739459851 -0)
(-0 12083.5739491013 -0)
(-0 12083.5739694199 -0)
(-0 12083.5739897914 -0)
(-0 12083.5740003424 -0)
(-0 12083.5740055812 -0)
(-0 12083.5740128555 -0)
(-0 12083.5740290696 -0)
(-0 12083.5740384145 -0)
(-0 12083.5740383935 -0)
(-0 12083.5740388755 -0)
(-0 12083.5740414348 -0)
(-0 12083.5740525041 -0)
(-0 12083.5740665646 -0)
(-0 12083.5740756029 -0)
(-0 12083.5740791686 -0)
(-0 12083.5740857146 -0)
(-0 12083.5740828231 -0)
(-0 12083.5740844692 -0)
(-0 12083.5740950262 -0)
(-0 12083.5740961746 -0)
(-0 12083.574096069 -0)
(-0 12083.5740978414 -0)
(-0 12083.5741039771 -0)
(-0 12083.5741148493 -0)
(-0 12083.574126308 -0)
(-0 12083.5741361641 -0)
(-0 12083.5741413795 -0)
(-0 12083.5741477154 -0)
(-0 12083.5741556577 -0)
(-0 12083.5741708988 -0)
(-0 12083.5741885792 -0)
(-0 12083.5741910026 -0)
(-0 12083.5741909822 -0)
(-0 12083.5741982983 -0)
(-0 12083.5742100597 -0)
(-0 12083.5742200239 -0)
(-0 12083.5742315871 -0)
(-0 12083.5742396157 -0)
(-0 12083.5742373374 -0)
(-0 12083.5742450754 -0)
(-0 12083.5742635722 -0)
(-0 12083.5742682643 -0)
(-0 12083.5742676613 -0)
(-0 12083.5742749611 -0)
(-0 12083.5742867214 -0)
(-0 12083.5742983789 -0)
(-0 12083.5743002246 -0)
(-0 12083.574300663 -0)
(-0 12083.5743119742 -0)
(-0 12083.5743194582 -0)
(-0 12083.5743284841 -0)
(-0 12083.5743374519 -0)
(-0 12083.5743433687 -0)
(-0 12083.5743647905 -0)
(-0 12083.5743824251 -0)
(-0 12083.5743896428 -0)
(-0 12083.5743929968 -0)
(-0 12083.5743973127 -0)
(-0 12083.5744026268 -0)
(-0 12083.5744110354 -0)
(-0 12083.574415342 -0)
(-0 12083.5744126961 -0)
(-0 12083.5744177262 -0)
(-0 12083.5744238421 -0)
(-0 12083.5744253859 -0)
(-0 12083.5744334875 -0)
(-0 12083.5744489688 -0)
(-0 12083.5744550389 -0)
(-0 12083.5744656288 -0)
(-0 12083.5744775901 -0)
(-0 12083.5744860739 -0)
(-0 12083.574501106 -0)
(-0 12083.5745087726 -0)
(-0 12083.5745119748 -0)
(-0 12083.5745228421 -0)
(-0 12083.5745381703 -0)
(-0 12083.574553421 -0)
(-0 12083.5745644024 -0)
(-0 12083.5745679725 -0)
(-0 12083.5745788243 -0)
(-0 12083.5745952369 -0)
(-0 12083.5745984023 -0)
(-0 12083.5745907282 -0)
(-0 12083.5746024317 -0)
(-0 12083.574615068 -0)
(-0 12083.5746198276 -0)
(-0 12083.574639086 -0)
(-0 12083.5746528396 -0)
(-0 12083.5746614935 -0)
(-0 12083.5746708911 -0)
(-0 12083.5746783595 -0)
(-0 12083.5746862488 -0)
(-0 12083.5747002776 -0)
(-0 12083.5747223379 -0)
(-0 12083.5747320336 -0)
(-0 12083.5747373113 -0)
(-0 12083.5747444291 -0)
(-0 12083.574754743 -0)
(-0 12083.5747702664 -0)
(-0 12083.5747862514 -0)
(-0 12083.5747926596 -0)
(-0 12083.5747888876 -0)
(-0 12083.5747866225 -0)
(-0 12083.5747960083 -0)
(-0 12083.5748014497 -0)
(-0 12083.5747986255 -0)
(-0 12083.5748044193 -0)
(-0 12083.5748156927 -0)
(-0 12083.5748338019 -0)
(-0 12083.5748519974 -0)
(-0 12083.5748686036 -0)
(-0 12083.5748788165 -0)
(-0 12083.5748882998 -0)
(-0 12083.5748971523 -0)
(-0 12083.5749048994 -0)
(-0 12083.574909117 -0)
(-0 12083.5749141071 -0)
(-0 12083.5749262947 -0)
(-0 12083.5749404221 -0)
(-0 12083.5749509337 -0)
(-0 12083.5749584434 -0)
(-0 12083.5749664155 -0)
(-0 12083.5749720866 -0)
(-0 12083.57497888 -0)
(-0 12083.5749874209 -0)
(-0 12083.5750006594 -0)
(-0 12083.5750157193 -0)
(-0 12083.5750249112 -0)
(-0 12083.5750340805 -0)
(-0 12083.5750489328 -0)
(-0 12083.5750621186 -0)
(-0 12083.5750790154 -0)
(-0 12083.5750977458 -0)
(-0 12083.5751094427 -0)
(-0 12083.5751242945 -0)
(-0 12083.5751417273 -0)
(-0 12083.5751570186 -0)
(-0 12083.5751728632 -0)
(-0 12083.5751860272 -0)
(-0 12083.5751966692 -0)
(-0 12083.5752081372 -0)
(-0 12083.5752188622 -0)
(-0 12083.5752301231 -0)
(-0 12083.5752390037 -0)
(-0 12083.5752512593 -0)
(-0 12083.575264838 -0)
(-0 12083.5752766573 -0)
(-0 12083.5752867351 -0)
(-0 12083.5752943694 -0)
(-0 12083.57530303 -0)
(-0 12083.5753124896 -0)
(-0 12083.5753252699 -0)
(-0 12083.5753326224 -0)
(-0 12083.5753402738 -0)
(-0 12083.5753540968 -0)
(-0 12083.5753645019 -0)
(-0 12083.5753732568 -0)
(-0 12083.5753833261 -0)
(-0 12083.5753971913 -0)
(-0 12083.5754095816 -0)
(-0 12083.5754172821 -0)
(-0 12083.5754235499 -0)
(-0 12083.575432526 -0)
(-0 12083.5754465342 -0)
(-0 12083.5754658759 -0)
(-0 12083.5754812058 -0)
(-0 12083.575493715 -0)
(-0 12083.5755087722 -0)
(-0 12083.5755176321 -0)
(-0 12083.5755271791 -0)
(-0 12083.5755416355 -0)
(-0 12083.5755601682 -0)
(-0 12083.5755762469 -0)
(-0 12083.575587378 -0)
(-0 12083.5756002321 -0)
(-0 12083.5756134982 -0)
(-0 12083.5756258976 -0)
(-0 12083.5756412548 -0)
(-0 12083.5756538392 -0)
(-0 12083.5756660142 -0)
(-0 12083.575681667 -0)
(-0 12083.5756957271 -0)
(-0 12083.5757111165 -0)
(-0 12083.575724979 -0)
(-0 12083.5757403306 -0)
(-0 12083.5757593061 -0)
(-0 12083.5757728162 -0)
(-0 12083.5757843783 -0)
(-0 12083.5757993801 -0)
(-0 12083.5758158998 -0)
(-0 12083.5758300666 -0)
(-0 12083.5758427174 -0)
(-0 12083.5758572756 -0)
(-0 12083.5758737331 -0)
(-0 12083.5758876622 -0)
(-0 12083.5759009182 -0)
(-0 12083.5759170485 -0)
(-0 12083.5759320253 -0)
(-0 12083.5759465834 -0)
(-0 12083.5759614254 -0)
(-0 12083.5759756824 -0)
(-0 12083.5759909907 -0)
(-0 12083.5760065761 -0)
(-0 12083.5760223041 -0)
(-0 12083.576039138 -0)
(-0 12083.5760541609 -0)
(-0 12083.5760684603 -0)
(-0 12083.5760843113 -0)
(-0 12083.5761004005 -0)
(-0 12083.5761161849 -0)
(-0 12083.576131842 -0)
(-0 12083.5761473621 -0)
(-0 12083.5761631727 -0)
(-0 12083.576177441 -0)
(-0 12083.576192221 -0)
(-0 12083.576208835 -0)
(-0 12083.5762243453 -0)
(-0 12083.5762404797 -0)
(-0 12083.5762564655 -0)
(-0 12083.5762716391 -0)
(-0 12083.5762883535 -0)
(-0 12083.5763050803 -0)
(-0 12083.5763264807 -0)
(-0 12083.5763524192 -0)
(-0 12083.576515407 -0)
(-0 18124.4409179114 -0)
)
;

boundaryField
{
    dielectric_2
    {
        type            calculated;
        value           nonuniform 0();
    }
    dielectric_1
    {
        type            calculated;
        value           nonuniform 0();
    }
    otherfaces
    {
        type            empty;
    }
    procBoundary2to0
    {
        type            processor;
        value           uniform (-0 18125.6026114229 -0);
    }
    procBoundary2to3
    {
        type            processor;
        value           uniform (-0 18123.6100136812 -0);
    }
}


// ************************************************************************* //
