/*--------------------------------*- C++ -*----------------------------------*\
| =========                 |                                                 |
| \\      /  F ield         | foam-extend: Open Source CFD                    |
|  \\    /   O peration     | Version:     4.0                                |
|   \\  /    A nd           | Web:         http://www.foam-extend.org         |
|    \\/     M anipulation  |                                                 |
\*---------------------------------------------------------------------------*/
FoamFile
{
    version     2.0;
    format      ascii;
    class       volVectorField;
    location    "6e-10";
    object      E;
}
// * * * * * * * * * * * * * * * * * * * * * * * * * * * * * * * * * * * * * //

dimensions      [0 0 0 1 0 0 0];

internalField   nonuniform List<vector> 
250
(
(-0 13594.2574549626 -0)
(-0 9062.61008886484 -0)
(-0 9062.61002624603 -0)
(-0 9062.61003383851 -0)
(-0 9062.61003598442 -0)
(-0 9062.61004069004 -0)
(-0 9062.61004499346 -0)
(-0 9062.61004957354 -0)
(-0 9062.61005399732 -0)
(-0 9062.61005840494 -0)
(-0 9062.61006312959 -0)
(-0 9062.6100678346 -0)
(-0 9062.610072369 -0)
(-0 9062.6100768368 -0)
(-0 9062.61008139354 -0)
(-0 9062.61008584149 -0)
(-0 9062.61009044226 -0)
(-0 9062.61009539646 -0)
(-0 9062.61010010147 -0)
(-0 9062.61010472768 -0)
(-0 9062.6101094972 -0)
(-0 9062.61011411369 -0)
(-0 9062.61011882512 -0)
(-0 9062.61012372078 -0)
(-0 9062.61012857323 -0)
(-0 9062.61013337398 -0)
(-0 9062.61013811765 -0)
(-0 9062.61014289813 -0)
(-0 9062.6101479094 -0)
(-0 9062.61015278833 -0)
(-0 9062.61015759775 -0)
(-0 9062.61016253582 -0)
(-0 9062.61016742962 -0)
(-0 9062.61017247047 -0)
(-0 9062.61017767509 -0)
(-0 9062.61018263382 -0)
(-0 9062.61018719014 -0)
(-0 9062.61019195532 -0)
(-0 9062.61019698147 -0)
(-0 9062.61020215549 -0)
(-0 9062.61020705922 -0)
(-0 9062.61021174273 -0)
(-0 9062.61021679659 -0)
(-0 9062.61022203368 -0)
(-0 9062.61022717812 -0)
(-0 9062.61023234779 -0)
(-0 9062.61023740145 -0)
(-0 9062.61024247869 -0)
(-0 9062.61024777058 -0)
(-0 9062.61025296051 -0)
(-0 9062.61025815376 -0)
(-0 9062.61026356311 -0)
(-0 9062.61026898734 -0)
(-0 9062.61027426848 -0)
(-0 9062.61027965467 -0)
(-0 9062.61028495957 -0)
(-0 9062.61029046592 -0)
(-0 9062.61029615546 -0)
(-0 9062.61030158591 -0)
(-0 9062.61030700395 -0)
(-0 9062.61031259464 -0)
(-0 9062.61031811215 -0)
(-0 9062.61032367474 -0)
(-0 9062.61032938827 -0)
(-0 9062.61033501704 -0)
(-0 9062.61034067268 -0)
(-0 9062.61034634775 -0)
(-0 9062.61035195542 -0)
(-0 9062.61035758955 -0)
(-0 9062.61036340608 -0)
(-0 9062.61036917877 -0)
(-0 9062.61037477526 -0)
(-0 9062.61038054526 -0)
(-0 9062.61038635683 -0)
(-0 9062.61039204886 -0)
(-0 9062.61039778433 -0)
(-0 9062.61040380186 -0)
(-0 9062.6104098744 -0)
(-0 9062.61041582287 -0)
(-0 9062.61042189086 -0)
(-0 9062.6104279667 -0)
(-0 9062.61043396293 -0)
(-0 9062.61043987334 -0)
(-0 9062.61044594671 -0)
(-0 9062.6104520633 -0)
(-0 9062.6104581193 -0)
(-0 9062.61046422968 -0)
(-0 9062.61047040024 -0)
(-0 9062.61047655032 -0)
(-0 9062.61048264231 -0)
(-0 9062.61048878702 -0)
(-0 9062.61049498529 -0)
(-0 9062.61050131364 -0)
(-0 9062.61050762606 -0)
(-0 9062.61051384748 -0)
(-0 9062.61052010407 -0)
(-0 9062.61052631889 -0)
(-0 9062.61053261084 -0)
(-0 9062.61053908498 -0)
(-0 9062.61054550906 -0)
(-0 9062.61055195053 -0)
(-0 9062.61055848257 -0)
(-0 9062.6105650237 -0)
(-0 9062.610571533 -0)
(-0 9062.61057804188 -0)
(-0 9062.61058454702 -0)
(-0 9062.61059111733 -0)
(-0 9062.61059781149 -0)
(-0 9062.61060456169 -0)
(-0 9062.61061132141 -0)
(-0 9062.61061805322 -0)
(-0 9062.61062479681 -0)
(-0 9062.61063163718 -0)
(-0 9062.61063853835 -0)
(-0 9062.61064539154 -0)
(-0 9062.61065228691 -0)
(-0 9062.61065920918 -0)
(-0 9062.61066614551 -0)
(-0 9062.61067308224 -0)
(-0 9062.6106799255 -0)
(-0 9062.61068676462 -0)
(-0 9062.61069372577 -0)
(-0 9062.61070070842 -0)
(-0 9062.61070765467 -0)
(-0 9062.61071452068 -0)
(-0 9062.61072150457 -0)
(-0 9062.61072862575 -0)
(-0 9062.61073581645 -0)
(-0 9062.61074307081 -0)
(-0 9062.61075030576 -0)
(-0 9062.61075746665 -0)
(-0 9062.61076470324 -0)
(-0 9062.61077198161 -0)
(-0 9062.61077931829 -0)
(-0 9062.61078676249 -0)
(-0 9062.61079412689 -0)
(-0 9062.61080153512 -0)
(-0 9062.61080902936 -0)
(-0 9062.61081640699 -0)
(-0 9062.61082391366 -0)
(-0 9062.61083160685 -0)
(-0 9062.61083919541 -0)
(-0 9062.61084680794 -0)
(-0 9062.6108544999 -0)
(-0 9062.61086226837 -0)
(-0 9062.61087005628 -0)
(-0 9062.61087783591 -0)
(-0 9062.61088564739 -0)
(-0 9062.61089352917 -0)
(-0 9062.61090139154 -0)
(-0 9062.61090931468 -0)
(-0 9062.61091728912 -0)
(-0 9062.61092520524 -0)
(-0 9062.61093321277 -0)
(-0 9062.61094131581 -0)
(-0 9062.61094949829 -0)
(-0 9062.6109575939 -0)
(-0 9062.61096564486 -0)
(-0 9062.61097386579 -0)
(-0 9062.61098209457 -0)
(-0 9062.61099032007 -0)
(-0 9062.61099859022 -0)
(-0 9062.61100682935 -0)
(-0 9062.61101513259 -0)
(-0 9062.61102350655 -0)
(-0 9062.61103191566 -0)
(-0 9062.61104033637 -0)
(-0 9062.61104878436 -0)
(-0 9062.61105728985 -0)
(-0 9062.61106586109 -0)
(-0 9062.61107445674 -0)
(-0 9062.61108306727 -0)
(-0 9062.61109168236 -0)
(-0 9062.61110032309 -0)
(-0 9062.61110899856 -0)
(-0 9062.61111765708 -0)
(-0 9062.611126438 -0)
(-0 9062.61113528719 -0)
(-0 9062.61114412562 -0)
(-0 9062.61115304345 -0)
(-0 9062.61116200058 -0)
(-0 9062.6111710429 -0)
(-0 9062.61118011334 -0)
(-0 9062.61118913127 -0)
(-0 9062.61119818601 -0)
(-0 9062.61120730608 -0)
(-0 9062.61121649275 -0)
(-0 9062.61122575137 -0)
(-0 9062.61123504682 -0)
(-0 9062.61124432159 -0)
(-0 9062.61125365136 -0)
(-0 9062.61126303986 -0)
(-0 9062.61127241719 -0)
(-0 9062.61128181395 -0)
(-0 9062.61129126699 -0)
(-0 9062.61130076674 -0)
(-0 9062.61131030827 -0)
(-0 9062.61131985931 -0)
(-0 9062.61132946287 -0)
(-0 9062.61133909002 -0)
(-0 9062.6113488156 -0)
(-0 9062.61135859245 -0)
(-0 9062.61136831555 -0)
(-0 9062.61137811723 -0)
(-0 9062.61138798962 -0)
(-0 9062.61139790504 -0)
(-0 9062.61140785562 -0)
(-0 9062.6114178128 -0)
(-0 9062.61142782871 -0)
(-0 9062.61143784875 -0)
(-0 9062.61144786881 -0)
(-0 9062.61145789053 -0)
(-0 9062.61146793415 -0)
(-0 9062.61147805801 -0)
(-0 9062.6114882191 -0)
(-0 9062.61149840541 -0)
(-0 9062.61150861862 -0)
(-0 9062.61151888516 -0)
(-0 9062.61152921045 -0)
(-0 9062.61153957502 -0)
(-0 9062.61154996648 -0)
(-0 9062.61156037612 -0)
(-0 9062.61157087182 -0)
(-0 9062.61158144607 -0)
(-0 9062.61159210306 -0)
(-0 9062.61160281009 -0)
(-0 9062.61161351545 -0)
(-0 9062.61162426632 -0)
(-0 9062.61163506227 -0)
(-0 9062.61164592646 -0)
(-0 9062.61165686469 -0)
(-0 9062.61166781448 -0)
(-0 9062.61167878827 -0)
(-0 9062.61168983486 -0)
(-0 9062.611700953 -0)
(-0 9062.61171209885 -0)
(-0 9062.61172328852 -0)
(-0 9062.61173455886 -0)
(-0 9062.61174586105 -0)
(-0 9062.61175718432 -0)
(-0 9062.61176856385 -0)
(-0 9062.61177995991 -0)
(-0 9062.61179141223 -0)
(-0 9062.61180292326 -0)
(-0 9062.61181448188 -0)
(-0 9062.61182611535 -0)
(-0 9062.61183968525 -0)
(-0 9062.6118549976 -0)
(-0 9062.61194054048 -0)
(-0 13593.4228269466 -0)
)
;

boundaryField
{
    dielectric_2
    {
        type            calculated;
        value           nonuniform 0();
    }
    dielectric_1
    {
        type            calculated;
        value           nonuniform 0();
    }
    otherfaces
    {
        type            empty;
    }
    procBoundary2to0
    {
        type            processor;
        value           uniform (-0 13594.4523596818 -0);
    }
    procBoundary2to3
    {
        type            processor;
        value           uniform (-0 13592.6798577011 -0);
    }
}


// ************************************************************************* //
