/*--------------------------------*- C++ -*----------------------------------*\
| =========                 |                                                 |
| \\      /  F ield         | foam-extend: Open Source CFD                    |
|  \\    /   O peration     | Version:     4.0                                |
|   \\  /    A nd           | Web:         http://www.foam-extend.org         |
|    \\/     M anipulation  |                                                 |
\*---------------------------------------------------------------------------*/
FoamFile
{
    version     2.0;
    format      ascii;
    class       volScalarField;
    location    "1.4e-06";
    object      Ar;
}
// * * * * * * * * * * * * * * * * * * * * * * * * * * * * * * * * * * * * * //

dimensions      [0 0 0 1 0 0 0];

internalField   nonuniform List<scalar> 
300
(
3.21880323316997e+22
3.21880323074917e+22
3.2188032326801e+22
3.21880323451018e+22
3.21880323686269e+22
3.21880323996921e+22
3.21880324380286e+22
3.21880324834651e+22
3.21880325359924e+22
3.21880325955788e+22
3.21880326621908e+22
3.21880327357969e+22
3.21880328163659e+22
3.2188032903866e+22
3.21880329982646e+22
3.21880330995278e+22
3.21880332076237e+22
3.21880333225144e+22
3.21880334441604e+22
3.21880335725216e+22
3.21880337075565e+22
3.21880338492216e+22
3.21880339974715e+22
3.21880341522588e+22
3.21880343135504e+22
3.21880344812824e+22
3.2188034655403e+22
3.21880348358598e+22
3.21880350225871e+22
3.21880352155255e+22
3.21880354146326e+22
3.21880356198385e+22
3.21880358310651e+22
3.21880360482449e+22
3.2188036271309e+22
3.21880365001872e+22
3.21880367348121e+22
3.21880369751085e+22
3.21880372209995e+22
3.21880374724099e+22
3.21880377292637e+22
3.2188037991482e+22
3.2188038258986e+22
3.21880385316965e+22
3.21880388095339e+22
3.21880390924177e+22
3.218803938027e+22
3.21880396730116e+22
3.21880399705724e+22
3.21880402728762e+22
3.21880405798579e+22
3.21880408914279e+22
3.21880412075148e+22
3.21880415280246e+22
3.21880418528741e+22
3.21880421819726e+22
3.21880425152437e+22
3.21880428526126e+22
3.21880431940066e+22
3.21880435393568e+22
3.21880438885921e+22
3.21880442416458e+22
3.21880445984589e+22
3.21880449589893e+22
3.21880453231758e+22
3.21880456909379e+22
3.21880460622221e+22
3.21880464369779e+22
3.21880468151585e+22
3.21880471967207e+22
3.21880475816275e+22
3.21880479698517e+22
3.21880483613649e+22
3.21880487561336e+22
3.21880491541499e+22
3.2188049555396e+22
3.21880499598535e+22
3.21880503675196e+22
3.21880507783722e+22
3.21880511924458e+22
3.21880516097147e+22
3.21880520301918e+22
3.21880524539011e+22
3.21880528808675e+22
3.21880533111392e+22
3.21880537447487e+22
3.21880541817309e+22
3.21880546221395e+22
3.21880550660473e+22
3.21880555135151e+22
3.21880559646247e+22
3.21880564195053e+22
3.2188056878193e+22
3.21880573407863e+22
3.21880578073933e+22
3.21880582781309e+22
3.21880587531248e+22
3.218805923251e+22
3.21880597164408e+22
3.21880602050701e+22
3.21880606985536e+22
3.21880611970618e+22
3.21880617008077e+22
3.2188062209953e+22
3.21880627247079e+22
3.21880632452927e+22
3.2188063771913e+22
3.21880643048197e+22
3.21880648442434e+22
3.21880653904299e+22
3.21880659436428e+22
3.21880665041558e+22
3.21880670722586e+22
3.21880676482452e+22
3.21880682324199e+22
3.2188068825112e+22
3.21880694266623e+22
3.2188070037377e+22
3.2188070657596e+22
3.21880712876775e+22
3.21880719280072e+22
3.218807257894e+22
3.21880732408817e+22
3.21880739142067e+22
3.21880745992968e+22
3.21880752965547e+22
3.21880760064171e+22
3.21880767292816e+22
3.2188077465581e+22
3.21880782157458e+22
3.21880789802259e+22
3.21880797594652e+22
3.21880805539136e+22
3.21880813640472e+22
3.21880821903569e+22
3.2188083033282e+22
3.21880838932804e+22
3.21880847708422e+22
3.21880856664541e+22
3.21880865805769e+22
3.21880875136986e+22
3.21880884663091e+22
3.21880894389148e+22
3.21880904320225e+22
3.21880914461313e+22
3.21880924816948e+22
3.21880935392e+22
3.21880946191328e+22
3.21880957219899e+22
3.21880968482818e+22
3.21880979984512e+22
3.21880991729702e+22
3.2188100372338e+22
3.21881015969795e+22
3.21881028473198e+22
3.21881041237944e+22
3.21881054268051e+22
3.21881067566763e+22
3.21881081137073e+22
3.21881094981676e+22
3.21881109102463e+22
3.21881123500248e+22
3.21881138174599e+22
3.21881153124341e+22
3.2188116834362e+22
3.21881183829985e+22
3.21881199573584e+22
3.21881215547847e+22
3.21881231798636e+22
3.21881248105598e+22
3.21881264457631e+22
3.21881281034769e+22
3.21881297625194e+22
3.21881314180331e+22
3.21881330573913e+22
3.21881347053673e+22
3.21881363045587e+22
3.21881378878726e+22
3.21881394304165e+22
3.21881409009248e+22
3.2188142317259e+22
3.21881435993739e+22
3.21881448011007e+22
3.21881458623544e+22
3.21881467847067e+22
3.21881476020866e+22
3.2188148274658e+22
3.21881488288005e+22
3.21881493136219e+22
3.2188149681573e+22
3.21881499629207e+22
3.21881502290988e+22
3.21881504341716e+22
3.21881506071518e+22
3.21881507175287e+22
3.21881507553451e+22
3.21881507820962e+22
3.21881508083576e+22
3.2188150842657e+22
3.21881508850432e+22
3.21881509305172e+22
3.21881509745373e+22
3.21881510254857e+22
3.2188151087368e+22
3.2188151144153e+22
3.2188151194811e+22
3.21881512403046e+22
3.21881512811993e+22
3.21881513160908e+22
3.21881513452509e+22
3.21881513700563e+22
3.21881513986782e+22
3.21881514378486e+22
3.21881514756999e+22
3.21881515104853e+22
3.21881515447766e+22
3.21881515757041e+22
3.21881516046295e+22
3.21881516297959e+22
3.21881516537644e+22
3.21881516733436e+22
3.21881516938662e+22
3.21881517097381e+22
3.21881517270196e+22
3.21881517483036e+22
3.21881517755049e+22
3.21881517992472e+22
3.21881518251596e+22
3.21881518483765e+22
3.21881518738561e+22
3.21881518963708e+22
3.21881519207521e+22
3.21881519414339e+22
3.21881519630016e+22
3.2188151980334e+22
3.21881519982678e+22
3.21881520122793e+22
3.2188152027307e+22
3.21881520391726e+22
3.21881520527859e+22
3.21881520642234e+22
3.21881520775788e+22
3.2188152098631e+22
3.21881521211382e+22
3.21881521417995e+22
3.21881521628883e+22
3.21881521812689e+22
3.21881521995987e+22
3.21881522154809e+22
3.21881522315711e+22
3.21881522450587e+22
3.21881522587329e+22
3.21881522698398e+22
3.21881522818591e+22
3.21881522918431e+22
3.21881523031086e+22
3.21881523125286e+22
3.21881523234714e+22
3.21881523325507e+22
3.2188152343174e+22
3.21881523520251e+22
3.21881523611342e+22
3.21881523688409e+22
3.21881523757235e+22
3.21881523814281e+22
3.21881523860834e+22
3.21881523916585e+22
3.21881524023125e+22
3.21881524092997e+22
3.21881524199738e+22
3.21881524268757e+22
3.21881524378881e+22
3.21881524453694e+22
3.21881524566591e+22
3.21881524640789e+22
3.21881524747798e+22
3.21881524813074e+22
3.21881524907731e+22
3.21881524960509e+22
3.21881525042608e+22
3.21881525085828e+22
3.21881525160351e+22
3.21881525199822e+22
3.21881525272281e+22
3.21881525312134e+22
3.21881525387647e+22
3.21881525432418e+22
3.21881525521154e+22
3.21881525575583e+22
3.2188152568619e+22
3.21881525751386e+22
3.21881525874576e+22
3.21881525938217e+22
3.21881526058153e+22
3.21881526120002e+22
3.21881526238101e+22
3.21881526300113e+22
3.21881526419218e+22
3.21881526483909e+22
3.21881526642655e+22
)
;

boundaryField
{
    electrode
    {
        type            zeroGradient;
    }
    ground
    {
        type            zeroGradient;
    }
    otherfaces
    {
        type            empty;
    }
}


// ************************************************************************* //
