/*--------------------------------*- C++ -*----------------------------------*\
| =========                 |                                                 |
| \\      /  F ield         | foam-extend: Open Source CFD                    |
|  \\    /   O peration     | Version:     4.0                                |
|   \\  /    A nd           | Web:         http://www.foam-extend.org         |
|    \\/     M anipulation  |                                                 |
\*---------------------------------------------------------------------------*/
FoamFile
{
    version     2.0;
    format      ascii;
    class       volScalarField;
    location    "1.4e-06";
    object      Arm;
}
// * * * * * * * * * * * * * * * * * * * * * * * * * * * * * * * * * * * * * //

dimensions      [0 0 0 1 0 0 0];

internalField   nonuniform List<scalar> 
300
(
3.57416157977438e+15
3.57604155433706e+15
3.57799142975481e+15
3.57929717997166e+15
3.58011332526882e+15
3.58049178049642e+15
3.58047676101172e+15
3.58009969387853e+15
3.57938623419182e+15
3.57835837054378e+15
3.57703186946278e+15
3.57542081771885e+15
3.57353726769752e+15
3.57139182158541e+15
3.56899393605107e+15
3.56635216099847e+15
3.56347130650644e+15
3.56035996642633e+15
3.55702648520314e+15
3.55347733958657e+15
3.54971873104807e+15
3.54575658130986e+15
3.54159658039124e+15
3.53724420380705e+15
3.53268869729695e+15
3.52794787366878e+15
3.52302541442272e+15
3.51792331150903e+15
3.51265519357606e+15
3.50722595944407e+15
3.50162177260958e+15
3.49585404015385e+15
3.48994090340301e+15
3.48388772349104e+15
3.47769958669167e+15
3.47138130233781e+15
3.4649330248345e+15
3.45836128075222e+15
3.45167314643109e+15
3.44487215108678e+15
3.4379617952379e+15
3.43094736079025e+15
3.42383272651982e+15
3.41662158407999e+15
3.40931743376195e+15
3.40192354301437e+15
3.39444085147611e+15
3.38687082469165e+15
3.37920567150245e+15
3.37144401310875e+15
3.36357318145469e+15
3.35560575853159e+15
3.34753627780198e+15
3.33938251685733e+15
3.33115257729303e+15
3.32286286825745e+15
3.31451666803326e+15
3.30611689278164e+15
3.29766611780865e+15
3.28916475026724e+15
3.28061711655319e+15
3.2720253336039e+15
3.26338607285963e+15
3.25468130557618e+15
3.24591501065138e+15
3.2371128552348e+15
3.22827689091777e+15
3.21940895748122e+15
3.21051064072814e+15
3.20158330378417e+15
3.19262610851922e+15
3.18363188209479e+15
3.1745990815204e+15
3.16553520710554e+15
3.15642665157623e+15
3.14727449061827e+15
3.13808509651272e+15
3.12885427603021e+15
3.11960214534048e+15
3.11029793265474e+15
3.10097640336031e+15
3.0916396338792e+15
3.08228452081098e+15
3.07291336573401e+15
3.06351127650532e+15
3.05408602906271e+15
3.0446493571323e+15
3.03520158259879e+15
3.02573073641876e+15
3.01624463413977e+15
3.00673730731859e+15
2.99716344513481e+15
2.98757860325778e+15
2.97798432451476e+15
2.96838063500238e+15
2.9587675612727e+15
2.94914488496448e+15
2.93951219235357e+15
2.92985850798072e+15
2.92018377912817e+15
2.91049428972514e+15
2.90079137125082e+15
2.89104308517711e+15
2.88127884190295e+15
2.87148935136369e+15
2.8616652232503e+15
2.85182158969107e+15
2.84193871805479e+15
2.83202709738165e+15
2.82209218366794e+15
2.81213209405952e+15
2.80214455135477e+15
2.79212179469613e+15
2.78206162201479e+15
2.77196184110131e+15
2.76180477350711e+15
2.75157144956503e+15
2.74128679412167e+15
2.73095165276316e+15
2.72055796308833e+15
2.71007922989076e+15
2.69952856576321e+15
2.68887683173136e+15
2.67813449293136e+15
2.66731300743316e+15
2.65641019716317e+15
2.6453978185821e+15
2.63429344314789e+15
2.62308617463286e+15
2.61177401331541e+15
2.60034126902735e+15
2.58878409555767e+15
2.57709753175756e+15
2.5652554708038e+15
2.5532213273512e+15
2.54101408624538e+15
2.52863769663801e+15
2.51606705050365e+15
2.503283249264e+15
2.49029551194718e+15
2.47708780645603e+15
2.46364350493135e+15
2.44993043346347e+15
2.4359164795875e+15
2.42157696227252e+15
2.40693182746078e+15
2.39196614657762e+15
2.37666357903618e+15
2.36099359521276e+15
2.34490715800111e+15
2.32841687853284e+15
2.31149800913248e+15
2.29408810016299e+15
2.276186107839e+15
2.2577738021125e+15
2.23880138374739e+15
2.21922553536393e+15
2.19904581824337e+15
2.1782431000451e+15
2.156772355704e+15
2.13459795827029e+15
2.11170489701734e+15
2.08805478300651e+15
2.06366030038089e+15
2.03850848403606e+15
2.01254454917661e+15
1.9857894122891e+15
1.95828771489269e+15
1.9300683722819e+15
1.90117332871717e+15
1.8716713005391e+15
1.84159544110576e+15
1.81103809681427e+15
1.78017088385011e+15
1.74918783620712e+15
1.71825874084033e+15
1.68756276597923e+15
1.65729887401988e+15
1.62770609339013e+15
1.59893984005432e+15
1.57115439521422e+15
1.54449689709756e+15
1.51904851217468e+15
1.49492426445037e+15
1.47212387855451e+15
1.45055655189101e+15
1.43026206691784e+15
1.41118870027837e+15
1.39324739455838e+15
1.37634882101051e+15
1.36037100864151e+15
1.34526689069092e+15
1.33102096512819e+15
1.31759066031988e+15
1.30718405249859e+15
1.3064342596126e+15
1.31069640360641e+15
1.31094959896943e+15
1.30695970449278e+15
1.29941845130159e+15
1.28822027822253e+15
1.27554669823249e+15
1.26364520343137e+15
1.25310991302234e+15
1.24406601846286e+15
1.2360330647874e+15
1.22872743224968e+15
1.22206974384264e+15
1.21591877470907e+15
1.21007333023298e+15
1.20426825210088e+15
1.19869280993732e+15
1.19329531485292e+15
1.18801742740664e+15
1.1828695421766e+15
1.17781891245895e+15
1.17283328237093e+15
1.16793652788382e+15
1.16310616068094e+15
1.15833589199257e+15
1.15363436878252e+15
1.14898798229596e+15
1.14439807932454e+15
1.13984401994603e+15
1.13535398810384e+15
1.13094012433749e+15
1.12661604983484e+15
1.12237287173794e+15
1.11821648107349e+15
1.11415833165672e+15
1.11018711277229e+15
1.10630760173941e+15
1.10252972530928e+15
1.09884690946055e+15
1.09525643900459e+15
1.09177272537884e+15
1.08837735184858e+15
1.08508696397075e+15
1.08188765737667e+15
1.07878737569526e+15
1.07578389489552e+15
1.07286674441333e+15
1.0700481725265e+15
1.06731133789702e+15
1.06465973565309e+15
1.06210619423902e+15
1.05963426322628e+15
1.05724935831611e+15
1.05495188230736e+15
1.05273185075488e+15
1.05059428296691e+15
1.04853310479899e+15
1.04654388674013e+15
1.04463059332123e+15
1.04278565671213e+15
1.04100767856037e+15
1.03929651877642e+15
1.03763826330234e+15
1.03604338200676e+15
1.0345057360448e+15
1.03303275108805e+15
1.03161363772113e+15
1.03025320388686e+15
1.02894515062397e+15
1.02768925617732e+15
1.02648380629508e+15
1.02532356535443e+15
1.02420807336165e+15
1.02312915773957e+15
1.02209526301706e+15
1.02110085632062e+15
1.02015322113042e+15
1.01924091833908e+15
1.01837132710989e+15
1.01753375973043e+15
1.01672812073253e+15
1.01595389704814e+15
1.01521219193979e+15
1.01450597825426e+15
1.0138297159289e+15
1.01318303354469e+15
1.01255933497112e+15
1.01194740282656e+15
1.01134753400959e+15
1.01077632085021e+15
1.01022364383752e+15
1.00969573740684e+15
1.00919231369432e+15
1.0087055141073e+15
1.0082106406115e+15
1.00771610240341e+15
1.00724027144008e+15
1.00678092281727e+15
1.00629208665153e+15
1.0058013037496e+15
1.00530555857359e+15
1.00475749555519e+15
1.00416767179972e+15
1.00350087056111e+15
1.00270153427165e+15
)
;

boundaryField
{
    electrode
    {
        type            zeroGradient;
    }
    ground
    {
        type            zeroGradient;
    }
    otherfaces
    {
        type            empty;
    }
}


// ************************************************************************* //
