/*--------------------------------*- C++ -*----------------------------------*\
| =========                 |                                                 |
| \\      /  F ield         | foam-extend: Open Source CFD                    |
|  \\    /   O peration     | Version:     4.0                                |
|   \\  /    A nd           | Web:         http://www.foam-extend.org         |
|    \\/     M anipulation  |                                                 |
\*---------------------------------------------------------------------------*/
FoamFile
{
    version     2.0;
    format      ascii;
    class       volVectorField;
    location    "1.4e-06";
    object      E;
}
// * * * * * * * * * * * * * * * * * * * * * * * * * * * * * * * * * * * * * //

dimensions      [0 0 0 1 0 0 0];

internalField   nonuniform List<vector> 
300
(
(3.83290516409174 -0 -0)
(8.50031554311402 -0 -0)
(14.5207522214697 -0 -0)
(20.4734674755238 -0 -0)
(26.3072007011805 -0 -0)
(32.1407812614586 -0 -0)
(37.9764350050275 -0 -0)
(43.8083757728349 -0 -0)
(49.6364098614982 -0 -0)
(55.460165264421 -0 -0)
(61.2789158041515 -0 -0)
(67.0919595754944 -0 -0)
(72.8985842815562 -0 -0)
(78.6980418207557 -0 -0)
(84.4895525542463 -0 -0)
(90.2723059720288 -0 -0)
(96.0454591941697 -0 -0)
(101.808137183136 -0 -0)
(107.559433439043 -0 -0)
(113.298410978067 -0 -0)
(119.024103931166 -0 -0)
(124.735519546616 -0 -0)
(130.431640654735 -0 -0)
(136.111428594711 -0 -0)
(141.773826645155 -0 -0)
(147.417763633747 -0 -0)
(153.042158221318 -0 -0)
(158.645923364899 -0 -0)
(164.227971084781 -0 -0)
(169.787217647878 -0 -0)
(175.322588875944 -0 -0)
(180.833025828461 -0 -0)
(186.317490552553 -0 -0)
(191.774972081746 -0 -0)
(197.20449252743 -0 -0)
(202.605113236464 -0 -0)
(207.975941177184 -0 -0)
(213.316135118336 -0 -0)
(218.62491203647 -0 -0)
(223.901553418637 -0 -0)
(229.145411528806 -0 -0)
(234.355915665365 -0 -0)
(239.532578313907 -0 -0)
(244.675001218005 -0 -0)
(249.782881370254 -0 -0)
(254.856016906917 -0 -0)
(259.894312853951 -0 -0)
(264.897786830835 -0 -0)
(269.866574562099 -0 -0)
(274.800935386122 -0 -0)
(279.70125752594 -0 -0)
(284.568063446705 -0 -0)
(289.402014964855 -0 -0)
(294.203918435628 -0 -0)
(298.974729831565 -0 -0)
(303.715559772595 -0 -0)
(308.427678609476 -0 -0)
(313.112521506429 -0 -0)
(317.77169354618 -0 -0)
(322.406974917509 -0 -0)
(327.020326235138 -0 -0)
(331.613893936255 -0 -0)
(336.19001578448 -0 -0)
(340.751226689284 -0 -0)
(345.300264577228 -0 -0)
(349.840076562003 -0 -0)
(354.373825442496 -0 -0)
(358.904896281747 -0 -0)
(363.436903538828 -0 -0)
(367.973698349489 -0 -0)
(372.51937621267 -0 -0)
(377.078285113172 -0 -0)
(381.655033943088 -0 -0)
(386.254501374894 -0 -0)
(390.881845203956 -0 -0)
(395.542511993955 -0 -0)
(400.242247440489 -0 -0)
(404.987106858472 -0 -0)
(409.78346639718 -0 -0)
(414.638034756857 -0 -0)
(419.557865066802 -0 -0)
(424.550367778041 -0 -0)
(429.6233235542 -0 -0)
(434.784896964677 -0 -0)
(440.043650626374 -0 -0)
(445.408559822299 -0 -0)
(450.889027631179 -0 -0)
(456.494900609494 -0 -0)
(462.236485083884 -0 -0)
(468.124563671225 -0 -0)
(474.170412855016 -0 -0)
(480.385820689118 -0 -0)
(486.783105195557 -0 -0)
(493.375133639499 -0 -0)
(500.175342106514 -0 -0)
(507.197755969573 -0 -0)
(514.457011154047 -0 -0)
(521.968376067276 -0 -0)
(529.747774522023 -0 -0)
(537.811809724117 -0 -0)
(546.177789203964 -0 -0)
(554.863751149665 -0 -0)
(563.888492100037 -0 -0)
(573.271596068676 -0 -0)
(583.033465810569 -0 -0)
(593.195355744258 -0 -0)
(603.779407354235 -0 -0)
(614.808687352032 -0 -0)
(626.307228508765 -0 -0)
(638.300074225089 -0 -0)
(650.813326801064 -0 -0)
(663.874200000715 -0 -0)
(677.511076840747 -0 -0)
(691.75357286101 -0 -0)
(706.632605779261 -0 -0)
(722.180472556424 -0 -0)
(738.430934357848 -0 -0)
(755.419311125672 -0 -0)
(773.182586226284 -0 -0)
(791.759523123628 -0 -0)
(811.190795227491 -0 -0)
(831.519130521484 -0 -0)
(852.789473304647 -0 -0)
(875.0491646407 -0 -0)
(898.348144131962 -0 -0)
(922.739175780831 -0 -0)
(948.278100884683 -0 -0)
(975.024121116308 -0 -0)
(1003.04011629037 -0 -0)
(1032.39300064268 -0 -0)
(1063.15412274605 -0 -0)
(1095.39971525084 -0 -0)
(1129.21140031516 -0 -0)
(1164.67675871483 -0 -0)
(1201.88997128081 -0 -0)
(1240.95254255006 -0 -0)
(1281.97411826516 -0 -0)
(1325.07341038411 -0 -0)
(1370.37924540521 -0 -0)
(1418.03175451842 -0 -0)
(1468.18372696879 -0 -0)
(1521.00215350548 -0 -0)
(1576.6699892419 -0 -0)
(1635.38817244142 -0 -0)
(1697.37794393653 -0 -0)
(1762.88351755142 -0 -0)
(1832.17516443892 -0 -0)
(1905.55278932765 -0 -0)
(1983.35008722258 -0 -0)
(2065.93939470775 -0 -0)
(2153.73737381976 -0 -0)
(2247.21169349942 -0 -0)
(2346.88891937334 -0 -0)
(2453.36386647418 -0 -0)
(2567.31073056771 -0 -0)
(2689.49640503002 -0 -0)
(2820.79645588264 -0 -0)
(2962.21438665588 -0 -0)
(3114.90499560922 -0 -0)
(3280.20273725785 -0 -0)
(3459.65621070046 -0 -0)
(3655.07080519088 -0 -0)
(3868.56157099419 -0 -0)
(4102.61302899087 -0 -0)
(4360.17218055688 -0 -0)
(4644.72878764261 -0 -0)
(4960.47828777474 -0 -0)
(5312.57563767742 -0 -0)
(5707.22375159485 -0 -0)
(6154.31345787085 -0 -0)
(6667.75352054278 -0 -0)
(7260.91536863652 -0 -0)
(7948.54849996535 -0 -0)
(8749.92991665247 -0 -0)
(9686.95954336414 -0 -0)
(10779.2036136664 -0 -0)
(12048.2347184535 -0 -0)
(13514.127717569 -0 -0)
(15189.0758609343 -0 -0)
(17083.5552478794 -0 -0)
(19199.0869298768 -0 -0)
(21534.9312138085 -0 -0)
(24080.1165738551 -0 -0)
(26812.0454757186 -0 -0)
(29707.7021534723 -0 -0)
(32730.4561559957 -0 -0)
(35843.2888449783 -0 -0)
(39013.5813235341 -0 -0)
(42201.5068814443 -0 -0)
(45381.1288515417 -0 -0)
(48543.1109527737 -0 -0)
(51666.7251740134 -0 -0)
(54731.9909912844 -0 -0)
(57743.7034727419 -0 -0)
(60713.542054531 -0 -0)
(63658.8425002861 -0 -0)
(66595.7406254638 -0 -0)
(69522.8860170234 -0 -0)
(72436.9143782622 -0 -0)
(75334.508408194 -0 -0)
(78212.7257445583 -0 -0)
(81071.8955348746 -0 -0)
(83910.2250318202 -0 -0)
(86721.5170805303 -0 -0)
(89503.0576542658 -0 -0)
(92257.4242761134 -0 -0)
(94987.4636933031 -0 -0)
(97695.6857564131 -0 -0)
(100384.928104361 -0 -0)
(103058.476121967 -0 -0)
(105719.262382912 -0 -0)
(108367.367143061 -0 -0)
(110998.337804048 -0 -0)
(113609.303975209 -0 -0)
(116201.51534206 -0 -0)
(118775.980017429 -0 -0)
(121333.8151624 -0 -0)
(123876.595251562 -0 -0)
(126406.014100057 -0 -0)
(128923.53133438 -0 -0)
(131430.796321915 -0 -0)
(133928.814319528 -0 -0)
(136418.671736711 -0 -0)
(138901.320203444 -0 -0)
(141375.099229467 -0 -0)
(143836.97675341 -0 -0)
(146286.163428636 -0 -0)
(148722.998019978 -0 -0)
(151147.589368091 -0 -0)
(153560.012645911 -0 -0)
(155960.423851723 -0 -0)
(158349.100034271 -0 -0)
(160726.534997276 -0 -0)
(163093.517179116 -0 -0)
(165450.999470292 -0 -0)
(167800.017178248 -0 -0)
(170141.51249722 -0 -0)
(172476.303145126 -0 -0)
(174804.976815694 -0 -0)
(177127.902326993 -0 -0)
(179445.149125987 -0 -0)
(181756.738918682 -0 -0)
(184059.715446512 -0 -0)
(186351.263183867 -0 -0)
(188631.448181527 -0 -0)
(190900.641280435 -0 -0)
(193159.474695839 -0 -0)
(195408.728482195 -0 -0)
(197649.102645473 -0 -0)
(199881.221973617 -0 -0)
(202105.759379241 -0 -0)
(204323.394665675 -0 -0)
(206534.80041105 -0 -0)
(208740.430629597 -0 -0)
(210940.579963036 -0 -0)
(213135.434227866 -0 -0)
(215325.122731122 -0 -0)
(217509.705743361 -0 -0)
(219689.250223862 -0 -0)
(221863.815748041 -0 -0)
(224033.433075414 -0 -0)
(226198.522210474 -0 -0)
(228359.39346553 -0 -0)
(230516.683864687 -0 -0)
(232670.9651204 -0 -0)
(234822.877354942 -0 -0)
(236972.431928238 -0 -0)
(239117.789874675 -0 -0)
(241258.500363296 -0 -0)
(243394.535433874 -0 -0)
(245525.893947376 -0 -0)
(247652.4476805 -0 -0)
(249773.996749085 -0 -0)
(251890.433390799 -0 -0)
(254001.752945679 -0 -0)
(256108.11300347 -0 -0)
(258209.76295969 -0 -0)
(260307.055581737 -0 -0)
(262400.346963162 -0 -0)
(264489.995911422 -0 -0)
(266576.272601011 -0 -0)
(268659.389575454 -0 -0)
(270739.449287848 -0 -0)
(272816.506713829 -0 -0)
(274890.538338754 -0 -0)
(276961.437192699 -0 -0)
(279029.042879692 -0 -0)
(281092.940784672 -0 -0)
(283152.828014209 -0 -0)
(285208.041604872 -0 -0)
(287258.2578257 -0 -0)
(289303.092777131 -0 -0)
(291342.580813251 -0 -0)
(293376.823712702 -0 -0)
(295405.88454168 -0 -0)
(297429.820392538 -0 -0)
(299448.642600761 -0 -0)
(301462.348091943 -0 -0)
(303470.897681574 -0 -0)
(305473.152191882 -0 -0)
)
;

boundaryField
{
    electrode
    {
        type            calculated;
        value           uniform (2.15207584915334 -0 -0);
    }
    ground
    {
        type            calculated;
        value           uniform (306472.003391219 -0 -0);
    }
    otherfaces
    {
        type            empty;
    }
}


// ************************************************************************* //
