/*--------------------------------*- C++ -*----------------------------------*\
| =========                 |                                                 |
| \\      /  F ield         | foam-extend: Open Source CFD                    |
|  \\    /   O peration     | Version:     4.0                                |
|   \\  /    A nd           | Web:         http://www.foam-extend.org         |
|    \\/     M anipulation  |                                                 |
\*---------------------------------------------------------------------------*/
FoamFile
{
    version     2.0;
    format      ascii;
    class       volVectorField;
    location    "1.4e-06";
    object      J_Arp1;
}
// * * * * * * * * * * * * * * * * * * * * * * * * * * * * * * * * * * * * * //

dimensions      [1 -1 -1 0 0 0 0];

internalField   nonuniform List<vector> 
300
(
(1.58976434988687e+16 -0 -0)
(5.1484165324601e+16 -0 -0)
(8.9211624292582e+16 -0 -0)
(1.24750469121199e+17 -0 -0)
(1.60190220986716e+17 -0 -0)
(1.95677709961551e+17 -0 -0)
(2.31123161304374e+17 -0 -0)
(2.66495594381396e+17 -0 -0)
(3.01793056876628e+17 -0 -0)
(3.37006235377559e+17 -0 -0)
(3.7212478153888e+17 -0 -0)
(4.07138778792026e+17 -0 -0)
(4.42038214861165e+17 -0 -0)
(4.76812910741846e+17 -0 -0)
(5.11452572776896e+17 -0 -0)
(5.45946794676046e+17 -0 -0)
(5.80285053365883e+17 -0 -0)
(6.14456718480767e+17 -0 -0)
(6.48451063255987e+17 -0 -0)
(6.82257277133216e+17 -0 -0)
(7.15864482362394e+17 -0 -0)
(7.49261753124887e+17 -0 -0)
(7.82438137127497e+17 -0 -0)
(8.15382680192987e+17 -0 -0)
(8.48084453375163e+17 -0 -0)
(8.80532581149942e+17 -0 -0)
(9.12716273284833e+17 -0 -0)
(9.44624857357948e+17 -0 -0)
(9.76247812689932e+17 -0 -0)
(1.00757480637736e+18 -0 -0)
(1.03859572930706e+18 -0 -0)
(1.06930073385268e+18 -0 -0)
(1.09968027143398e+18 -0 -0)
(1.12972513047637e+18 -0 -0)
(1.15942647437306e+18 -0 -0)
(1.18877587890737e+18 -0 -0)
(1.21776536997774e+18 -0 -0)
(1.24638745933398e+18 -0 -0)
(1.27463518050423e+18 -0 -0)
(1.30250212311894e+18 -0 -0)
(1.32998246594725e+18 -0 -0)
(1.35707100878929e+18 -0 -0)
(1.38376320257722e+18 -0 -0)
(1.41005517793169e+18 -0 -0)
(1.43594377205346e+18 -0 -0)
(1.46142655387945e+18 -0 -0)
(1.48650184721124e+18 -0 -0)
(1.5111687525706e+18 -0 -0)
(1.53542716633368e+18 -0 -0)
(1.55927779943535e+18 -0 -0)
(1.58272219261457e+18 -0 -0)
(1.60576273185352e+18 -0 -0)
(1.62840266063548e+18 -0 -0)
(1.65064609182731e+18 -0 -0)
(1.67249801767465e+18 -0 -0)
(1.69396431838285e+18 -0 -0)
(1.7150517699664e+18 -0 -0)
(1.73576805076708e+18 -0 -0)
(1.75612174721951e+18 -0 -0)
(1.77612235859607e+18 -0 -0)
(1.79578030175014e+18 -0 -0)
(1.81510691466614e+18 -0 -0)
(1.8341144597517e+18 -0 -0)
(1.85281612759982e+18 -0 -0)
(1.87122603948144e+18 -0 -0)
(1.88935925071413e+18 -0 -0)
(1.90723175402754e+18 -0 -0)
(1.9248604821296e+18 -0 -0)
(1.94226331203859e+18 -0 -0)
(1.95945906833701e+18 -0 -0)
(1.97646752721472e+18 -0 -0)
(1.99330942137637e+18 -0 -0)
(2.01000644426211e+18 -0 -0)
(2.02658125524403e+18 -0 -0)
(2.04305748546216e+18 -0 -0)
(2.0594597420638e+18 -0 -0)
(2.07581361608633e+18 -0 -0)
(2.09214568581516e+18 -0 -0)
(2.10848352422828e+18 -0 -0)
(2.12485570421863e+18 -0 -0)
(2.1412918026692e+18 -0 -0)
(2.15782240705606e+18 -0 -0)
(2.17447911755714e+18 -0 -0)
(2.1912945511188e+18 -0 -0)
(2.20830234307641e+18 -0 -0)
(2.22553714768563e+18 -0 -0)
(2.24303463692988e+18 -0 -0)
(2.26083149714339e+18 -0 -0)
(2.27896542497709e+18 -0 -0)
(2.29747511725447e+18 -0 -0)
(2.31640026327525e+18 -0 -0)
(2.33578152918798e+18 -0 -0)
(2.35566054121327e+18 -0 -0)
(2.37607986596366e+18 -0 -0)
(2.39708298447126e+18 -0 -0)
(2.41871426376291e+18 -0 -0)
(2.44101892332417e+18 -0 -0)
(2.46404299637829e+18 -0 -0)
(2.48783328603895e+18 -0 -0)
(2.51243731742217e+18 -0 -0)
(2.53790328165946e+18 -0 -0)
(2.56427997717011e+18 -0 -0)
(2.59161674298945e+18 -0 -0)
(2.61996338603658e+18 -0 -0)
(2.64937010504944e+18 -0 -0)
(2.67988740448084e+18 -0 -0)
(2.71156600553719e+18 -0 -0)
(2.74445675050211e+18 -0 -0)
(2.77861049998167e+18 -0 -0)
(2.81407802695508e+18 -0 -0)
(2.85090990405026e+18 -0 -0)
(2.88915638562491e+18 -0 -0)
(2.92886728729106e+18 -0 -0)
(2.97009185954027e+18 -0 -0)
(3.0128786588052e+18 -0 -0)
(3.05727541661619e+18 -0 -0)
(3.10332890428844e+18 -0 -0)
(3.15108480009658e+18 -0 -0)
(3.20058755150837e+18 -0 -0)
(3.25188024244034e+18 -0 -0)
(3.3050044579858e+18 -0 -0)
(3.36000015367175e+18 -0 -0)
(3.41690552717941e+18 -0 -0)
(3.4757568946178e+18 -0 -0)
(3.53658857058377e+18 -0 -0)
(3.59943275634562e+18 -0 -0)
(3.66431943282013e+18 -0 -0)
(3.73127626156393e+18 -0 -0)
(3.80032849438353e+18 -0 -0)
(3.87149889119462e+18 -0 -0)
(3.94480764477397e+18 -0 -0)
(4.02027231826565e+18 -0 -0)
(4.09790778604825e+18 -0 -0)
(4.17772618652635e+18 -0 -0)
(4.2597368793237e+18 -0 -0)
(4.34394640951538e+18 -0 -0)
(4.43035847401919e+18 -0 -0)
(4.51897389066511e+18 -0 -0)
(4.60979056506966e+18 -0 -0)
(4.70280345358702e+18 -0 -0)
(4.79800451364954e+18 -0 -0)
(4.8953826467057e+18 -0 -0)
(4.99492361516392e+18 -0 -0)
(5.0966099349867e+18 -0 -0)
(5.20042074084339e+18 -0 -0)
(5.30633160176251e+18 -0 -0)
(5.41431428906635e+18 -0 -0)
(5.5243364942419e+18 -0 -0)
(5.63636145562214e+18 -0 -0)
(5.75034752179933e+18 -0 -0)
(5.86624761021979e+18 -0 -0)
(5.98400854862154e+18 -0 -0)
(6.10357030672361e+18 -0 -0)
(6.22486507148309e+18 -0 -0)
(6.34781614076063e+18 -0 -0)
(6.4723367282589e+18 -0 -0)
(6.59832838519101e+18 -0 -0)
(6.72567934483333e+18 -0 -0)
(6.85426267694035e+18 -0 -0)
(6.98393394795919e+18 -0 -0)
(7.1145284155204e+18 -0 -0)
(7.24585634757011e+18 -0 -0)
(7.37771862605447e+18 -0 -0)
(7.50982598820022e+18 -0 -0)
(7.64199874466363e+18 -0 -0)
(7.77379650939342e+18 -0 -0)
(7.90484762393099e+18 -0 -0)
(8.03577628986833e+18 -0 -0)
(8.16261654940724e+18 -0 -0)
(8.28929097931355e+18 -0 -0)
(8.40980483360665e+18 -0 -0)
(8.52584126182516e+18 -0 -0)
(8.64150675984152e+18 -0 -0)
(8.74872863717821e+18 -0 -0)
(8.85047372316541e+18 -0 -0)
(8.94400347337576e+18 -0 -0)
(9.0534331085234e+18 -0 -0)
(9.12429194629695e+18 -0 -0)
(9.22412646934681e+18 -0 -0)
(9.26486319567694e+18 -0 -0)
(9.35151897235245e+18 -0 -0)
(9.41132102893966e+18 -0 -0)
(9.47295957520933e+18 -0 -0)
(9.53638534359015e+18 -0 -0)
(9.58133976913297e+18 -0 -0)
(9.65024538885987e+18 -0 -0)
(9.68633066410736e+18 -0 -0)
(9.73283827103812e+18 -0 -0)
(9.76088395836402e+18 -0 -0)
(9.7952982935019e+18 -0 -0)
(9.82222253013992e+18 -0 -0)
(9.84500563597152e+18 -0 -0)
(9.88805456411061e+18 -0 -0)
(9.90654014414568e+18 -0 -0)
(9.97931742076246e+18 -0 -0)
(1.01348188810206e+19 -0 -0)
(1.03573601765228e+19 -0 -0)
(1.05618238965244e+19 -0 -0)
(1.0732185401625e+19 -0 -0)
(1.08683362406437e+19 -0 -0)
(1.09832740531335e+19 -0 -0)
(1.10842770894466e+19 -0 -0)
(1.11786830154069e+19 -0 -0)
(1.12684014001975e+19 -0 -0)
(1.1349774203478e+19 -0 -0)
(1.14281710444023e+19 -0 -0)
(1.15033221321392e+19 -0 -0)
(1.15751494968204e+19 -0 -0)
(1.16487516727872e+19 -0 -0)
(1.17250787061948e+19 -0 -0)
(1.18021911639496e+19 -0 -0)
(1.18761502847548e+19 -0 -0)
(1.19500574283073e+19 -0 -0)
(1.20177485010953e+19 -0 -0)
(1.20847478162589e+19 -0 -0)
(1.21444163621584e+19 -0 -0)
(1.22054588186893e+19 -0 -0)
(1.22644547936512e+19 -0 -0)
(1.23271053964576e+19 -0 -0)
(1.23863540964532e+19 -0 -0)
(1.24520868792147e+19 -0 -0)
(1.25086948246596e+19 -0 -0)
(1.25733175178221e+19 -0 -0)
(1.26279287785072e+19 -0 -0)
(1.26925708695628e+19 -0 -0)
(1.27490831636408e+19 -0 -0)
(1.2811014407912e+19 -0 -0)
(1.28608937371695e+19 -0 -0)
(1.2914272805795e+19 -0 -0)
(1.29553361138581e+19 -0 -0)
(1.30011451286711e+19 -0 -0)
(1.30360754110399e+19 -0 -0)
(1.30785588020411e+19 -0 -0)
(1.31136508346692e+19 -0 -0)
(1.31586762187123e+19 -0 -0)
(1.31975688725818e+19 -0 -0)
(1.32458934013482e+19 -0 -0)
(1.32869522075377e+19 -0 -0)
(1.33352353699551e+19 -0 -0)
(1.33738866110478e+19 -0 -0)
(1.34165585782965e+19 -0 -0)
(1.34495895084538e+19 -0 -0)
(1.3485074353047e+19 -0 -0)
(1.35118298613992e+19 -0 -0)
(1.35417030007249e+19 -0 -0)
(1.35666347657682e+19 -0 -0)
(1.35981378885691e+19 -0 -0)
(1.36267352109584e+19 -0 -0)
(1.36613248311475e+19 -0 -0)
(1.36923232620797e+19 -0 -0)
(1.37302343063511e+19 -0 -0)
(1.3764845630477e+19 -0 -0)
(1.38065978300502e+19 -0 -0)
(1.38424832527941e+19 -0 -0)
(1.38837361256526e+19 -0 -0)
(1.39178048075425e+19 -0 -0)
(1.39566733116451e+19 -0 -0)
(1.39874948099707e+19 -0 -0)
(1.40233200684578e+19 -0 -0)
(1.4050997585267e+19 -0 -0)
(1.40834241357507e+19 -0 -0)
(1.41127821690623e+19 -0 -0)
(1.41456161789441e+19 -0 -0)
(1.41797634840316e+19 -0 -0)
(1.42166976704398e+19 -0 -0)
(1.42560043162939e+19 -0 -0)
(1.42985741604311e+19 -0 -0)
(1.43359143645928e+19 -0 -0)
(1.4386445756952e+19 -0 -0)
(1.44204009363067e+19 -0 -0)
(1.44681523227749e+19 -0 -0)
(1.44974479220267e+19 -0 -0)
(1.45397050874782e+19 -0 -0)
(1.45646027619318e+19 -0 -0)
(1.46040373995204e+19 -0 -0)
(1.46282542734997e+19 -0 -0)
(1.46684965871181e+19 -0 -0)
(1.46949239861213e+19 -0 -0)
(1.47376643379993e+19 -0 -0)
(1.47666071831834e+19 -0 -0)
(1.48108318334003e+19 -0 -0)
(1.48403973322908e+19 -0 -0)
(1.48838515000711e+19 -0 -0)
(1.49118885741061e+19 -0 -0)
(1.49528170024468e+19 -0 -0)
(1.49770348626959e+19 -0 -0)
(1.50134491297112e+19 -0 -0)
(1.50293435487028e+19 -0 -0)
(1.505909867467e+19 -0 -0)
(1.50628975964489e+19 -0 -0)
(1.50855927452661e+19 -0 -0)
(1.50812151582696e+19 -0 -0)
(1.51020920075866e+19 -0 -0)
(1.50967530174982e+19 -0 -0)
(1.51162993439231e+19 -0 -0)
(1.51094232401664e+19 -0 -0)
(1.51269411959429e+19 -0 -0)
(1.51177008133422e+19 -0 -0)
(1.51323926292255e+19 -0 -0)
(1.51036801367797e+19 -0 -0)
)
;

boundaryField
{
    electrode
    {
        type            calculated;
        value           uniform (72675584203.9379 -0 -0);
    }
    ground
    {
        type            calculated;
        value           uniform (1.51231998412634e+19 -0 -0);
    }
    otherfaces
    {
        type            empty;
    }
}


// ************************************************************************* //
