/*--------------------------------*- C++ -*----------------------------------*\
| =========                 |                                                 |
| \\      /  F ield         | foam-extend: Open Source CFD                    |
|  \\    /   O peration     | Version:     4.0                                |
|   \\  /    A nd           | Web:         http://www.foam-extend.org         |
|    \\/     M anipulation  |                                                 |
\*---------------------------------------------------------------------------*/
FoamFile
{
    version     2.0;
    format      ascii;
    class       volScalarField;
    location    "1.4e-06";
    object      N_electronMean;
}
// * * * * * * * * * * * * * * * * * * * * * * * * * * * * * * * * * * * * * //

dimensions      [0 0 0 1 0 0 0];

internalField   nonuniform List<scalar> 
300
(
6.08880065829267e+16
6.08875250878957e+16
6.08846077223102e+16
6.08783985311602e+16
6.08688980305093e+16
6.08559837636643e+16
6.08395737175005e+16
6.08196088978351e+16
6.07960367731893e+16
6.07688149873253e+16
6.07379095982682e+16
6.07032943090132e+16
6.06649497732008e+16
6.06228629338914e+16
6.0577026566864e+16
6.05274388270907e+16
6.04741028713293e+16
6.04170265401765e+16
6.03562220524254e+16
6.02917057203887e+16
6.02234977052055e+16
6.01516217901154e+16
6.00761051659201e+16
5.99969782130253e+16
5.99142743582553e+16
5.98280299765114e+16
5.97382841684783e+16
5.96450785427818e+16
5.9548457052248e+16
5.9448465754297e+16
5.93451526820298e+16
5.92385678627112e+16
5.91287631144802e+16
5.90157916768554e+16
5.88997079700757e+16
5.87805674217625e+16
5.86584263007364e+16
5.85333415752195e+16
5.8405370752497e+16
5.82745717175369e+16
5.81410026200943e+16
5.80047217585123e+16
5.78657874228948e+16
5.7724257760691e+16
5.75801906755107e+16
5.74336437328701e+16
5.72846740810302e+16
5.71333383939547e+16
5.69796928541341e+16
5.68237931744829e+16
5.66656947101748e+16
5.65054525750121e+16
5.63431216171269e+16
5.61787562761734e+16
5.60124103299627e+16
5.58441366306374e+16
5.56739868942216e+16
5.55020115587911e+16
5.53282597010714e+16
5.51527789588499e+16
5.49756154730785e+16
5.47968138422771e+16
5.4616417059788e+16
5.4434466584544e+16
5.42510025719457e+16
5.40660638137776e+16
5.38796874053195e+16
5.36919085847262e+16
5.35027607031698e+16
5.33122751894348e+16
5.31204815102129e+16
5.29274071990082e+16
5.27330780175841e+16
5.25375179703957e+16
5.23407491494352e+16
5.21427918185616e+16
5.19436645848538e+16
5.17433843499665e+16
5.15419660532166e+16
5.13394225334417e+16
5.11357645600682e+16
5.09310005523389e+16
5.07251363063228e+16
5.05181749290206e+16
5.03101168275826e+16
5.01009597952723e+16
4.98906988915781e+16
4.96793261515365e+16
4.94668304612343e+16
4.92531975534331e+16
4.90384098869842e+16
4.88224467118997e+16
4.86052841808356e+16
4.83868949465797e+16
4.81672477752564e+16
4.79463074222413e+16
4.77240344970447e+16
4.75003853233228e+16
4.72753117924785e+16
4.70487612633474e+16
4.6820676449281e+16
4.65909951924706e+16
4.63596503877418e+16
4.61265699970958e+16
4.58916767648778e+16
4.56548879885128e+16
4.54161153916473e+16
4.51752649272514e+16
4.4932236657083e+16
4.46869244917241e+16
4.44392158751494e+16
4.41889915780031e+16
4.39361255390129e+16
4.36804847847544e+16
4.34219292594109e+16
4.31603116482113e+16
4.28954774322883e+16
4.26272647944164e+16
4.23555042091352e+16
4.20800180731289e+16
4.18006206134797e+16
4.15171178854557e+16
4.12293077265952e+16
4.09369797583028e+16
4.06399150930526e+16
4.0337885835727e+16
4.00306549014642e+16
3.97179759658475e+16
3.93995932364402e+16
3.90752412800001e+16
3.87446449910854e+16
3.84075195643428e+16
3.80635704262293e+16
3.77124931676465e+16
3.73539737992375e+16
3.69876891262167e+16
3.66133066267194e+16
3.62304842436907e+16
3.58388706359327e+16
3.54381054629459e+16
3.50278193581655e+16
3.4607633956022e+16
3.41771621466806e+16
3.37360084553425e+16
3.32837696707215e+16
3.2820035397184e+16
3.23443882208405e+16
3.18564038366048e+16
3.13556512035865e+16
3.08416930754853e+16
3.03140868956612e+16
2.977238523103e+16
2.92161363037099e+16
2.86448847828289e+16
2.80581721745094e+16
2.7455537419056e+16
2.68365178544973e+16
2.62006501010958e+16
2.55474705904787e+16
2.48765160519238e+16
2.41873242245713e+16
2.34794334886876e+16
2.27523813492281e+16
2.20057016602441e+16
2.12389160425935e+16
2.04515142462102e+16
1.96429306662315e+16
1.88125395865708e+16
1.79596676482752e+16
1.70836099391316e+16
1.61836342473659e+16
1.52590071089099e+16
1.43092150893497e+16
1.33343560038944e+16
1.23355053670874e+16
1.13150871030771e+16
1.02774258030836e+16
9.22934820675384e+15
8.1804941815703e+15
7.14337695471034e+15
6.13309472997686e+15
5.16657048437837e+15
4.26133432938659e+15
3.43390558494052e+15
2.69803761860381e+15
2.06308475734262e+15
1.53289208157711e+15
1.10542127616282e+15
773240057778962
524809874522034
346129409496103
222522178620616
140223951110516
87405778983318.2
54492550039221.9
34366984957087.2
22144943203855.6
14769598465969.5
10331280875483.1
7676092062878.27
6129863218297.86
5255253725823.29
4743897934216.05
4415360906363.59
4180907097991.46
3998155360073.95
3846195834679.52
3713909407689.23
3594848309918.16
3485054352773.06
3382122249694.55
3284480535353.12
3191032674485.58
3100969728214.95
3013712272469.73
2928828389102.72
2846003906063.45
2765011057598.36
2685684104500.24
2607909007872.09
2531609167610.06
2456720806725.85
2383213052580.98
2311081569802.73
2240333386574.73
2170984421168.89
2103056220225.8
2036571057991.16
1971551877174.99
1908019597733.32
1845991458160.58
1785483242229.8
1726505235968.33
1669063597986.89
1613161538209.84
1558797548071.26
1505965146063.54
1454655811587.92
1404855791079.47
1356547969930.78
1309713602856.39
1264330129556.61
1220374438757.37
1177820847540.44
1136641427690.08
1096806987342.73
1058284884334.36
1021043075972.02
985049764048.005
950272767306.486
916679603687.889
884236588697.466
852910094001.808
822665801114.746
793470303460.276
765291549316.743
738098231311.154
711859186537.253
686543324680.563
662120989460.814
638564402052.682
615844918319.85
593934572464.919
572805100227.314
552429083893.422
532780968175.786
513836317430.826
495572221125.723
477966087767.517
460995869807.957
444637108493.797
428866146676.61
413662389786.389
399007881590.954
384885589774.64
371279438265.965
358173901672.838
345553476791.34
333403691685.627
321711147836.291
310462903389.559
299644888356.274
289243780905.977
279244921723.744
269626949511.987
260375183910.416
251486379042.216
242957396996.771
234785088058.86
226959357556.524
219463746626.089
212296928673.179
205473682977.135
198993060357.811
192869587588.399
187145625096.539
181889674595.845
177245527583.493
173454649418.225
170941255801.303
)
;

boundaryField
{
    electrode
    {
        type            calculated;
        value           uniform 6.08880065837689e+16;
    }
    ground
    {
        type            calculated;
        value           uniform 170641100891.128;
    }
    otherfaces
    {
        type            empty;
    }
}


// ************************************************************************* //
