/*--------------------------------*- C++ -*----------------------------------*\
| =========                 |                                                 |
| \\      /  F ield         | foam-extend: Open Source CFD                    |
|  \\    /   O peration     | Version:     4.0                                |
|   \\  /    A nd           | Web:         http://www.foam-extend.org         |
|    \\/     M anipulation  |                                                 |
\*---------------------------------------------------------------------------*/
FoamFile
{
    version     2.0;
    format      ascii;
    class       volScalarField;
    location    "1.4e-06";
    object      Te;
}
// * * * * * * * * * * * * * * * * * * * * * * * * * * * * * * * * * * * * * //

dimensions      [0 0 0 1 0 0 0];

internalField   nonuniform List<scalar> 
300
(
24696.624807021
24696.7508396426
24696.8417033555
24696.893236325
24696.9625123176
24697.0515787754
24697.1582353816
24697.2824714955
24697.4243798908
24697.5839214934
24697.7610733009
24697.9558214501
24698.1681520909
24698.39805265
24698.645512431
24698.9105224272
24699.1930753215
24699.4931655576
24699.8107893598
24700.1459447627
24700.4986316437
24700.8688517495
24701.2566087248
24701.6619081433
24702.0847575274
24702.5251663754
24702.9831461886
24703.4587104843
24703.9518748187
24704.4626568029
24704.9910761188
24705.5371545319
24706.1009159011
24706.6823861899
24707.2815934711
24707.8985679379
24708.533341905
24709.1859498113
24709.8564282275
24710.5448158548
24711.2511535289
24711.9754842224
24712.717853046
24713.4783072524
24714.2568962423
24715.0536715686
24715.8686869455
24716.701998257
24717.55366357
24718.4237431488
24719.3122994741
24720.2193972656
24721.1451035061
24722.0894874754
24723.0526207807
24724.0345773976
24725.0354337164
24726.0552685908
24727.094163393
24728.1522020785
24729.2294712535
24730.3260602453
24731.4420611887
24732.577569113
24733.7326820341
24734.9075010634
24736.1021305115
24737.3166780091
24738.5512546348
24739.8059750436
24741.0809576143
24742.3763245985
24743.6922022776
24745.0287211347
24746.3860160282
24747.7642263835
24749.1634963868
24750.583975187
24752.0258171246
24753.4891819453
24754.9742350464
24756.4811477271
24758.0100974413
24759.5612680813
24761.1348502603
24762.7310416115
24764.3500471029
24765.9920793713
24767.6573590583
24769.3461151796
24771.0585855079
24772.7950169573
24774.5556660171
24776.3407991888
24778.1506934436
24779.9856367212
24781.8459284414
24783.7318800474
24785.6438155892
24787.5820723325
24789.5470014068
24791.5389685011
24793.5583545899
24795.6055567244
24797.6809888679
24799.7850827795
24801.9182889839
24804.0810777887
24806.2739403876
24808.4973900516
24810.7519633938
24813.038221751
24815.3567526722
24817.7081715158
24820.0931231945
24822.5122840533
24824.9663639163
24827.4561083067
24829.9823008562
24832.5457659403
24835.1473715321
24837.7880323331
24840.4687131899
24843.1904328186
24845.9542678959
24848.7613575437
24851.6129082365
24854.51019921
24857.4545884142
24860.4475190551
24863.4905268399
24866.5852479783
24869.7334280326
24872.9369317597
24876.1977540435
24879.518032073
24882.9000589484
24886.346298916
24889.85940447
24893.4422355788
24897.0978814171
24900.8296849694
24904.64127093
24908.5365775664
24912.5198931458
24916.5958976872
24920.7697111813
24925.0469493242
24929.4337881979
24933.9370398522
24938.5642407277
24943.3237556706
24948.2249008864
24953.2780895665
24958.4950056737
24963.8888112948
24969.4743949971
24975.2686723842
24981.2909473065
24987.5633457041
24994.1113435959
25000.9644748426
25008.1569097834
25015.7289512075
25023.7280930755
25032.2110660678
25041.2543366078
25050.9500982784
25061.4843310009
25073.1495142637
25086.0608860928
25100.2000561458
25115.7207357768
25132.8130766191
25151.4012082536
25171.3912287397
25192.8604736564
25215.7462999264
25240.4241627832
25268.0940790917
25301.1582082177
25344.1108363365
25404.1335790692
25493.5035004783
25631.4667643712
25849.9887705468
26196.4131753826
26737.0629714684
27593.8594081545
28957.6449573056
31120.9734126258
34614.1140224875
40297.3505114417
50052.3280713552
65879.7405152527
88046.7029776326
120188.896084442
160974.888376177
212054.889669717
269852.130649183
329618.197220595
387076.918333266
439697.282254241
486456.815259502
527394.948810164
563025.605093576
594003.849404382
621039.533647168
644829.751491776
665964.720931018
684891.163291148
701969.608623676
717526.418276206
731823.185470761
745074.753665964
757456.539681626
769112.866525445
780162.762414912
790704.859094661
800820.768385519
810581.400654366
820035.690367676
829224.528592991
838191.409993658
846966.958942835
855575.952347673
864037.470303575
872365.825174358
880571.16885332
888660.065047878
896635.89753735
904499.227752142
912248.102114491
919878.310900389
927383.618399438
934755.972512102
941985.696293983
949061.663076943
955971.455822124
962701.508745806
969237.255722617
975563.1635069
981662.936019624
987519.977815237
993116.938279003
998437.98385559
1003462.62627384
1008169.40505918
1012542.10820824
1016562.67001811
1020212.65382382
1023473.37164703
1026326.01401665
1028751.63963305
1030731.36440381
1032245.4578097
1033276.29432548
1033790.34641853
1033796.40352355
1033260.44602978
1032164.58360569
1030488.44953762
1028212.49848838
1025316.83075643
1021781.32437757
1017585.48261309
1012708.48027512
1007128.88708862
1000827.752797
993781.740149081
985965.15595934
977356.810527817
967932.838340014
957667.47975094
946533.583889842
934502.52024671
921544.045325253
907626.105940751
892714.618861395
876773.191601385
859763.011757227
841642.315545735
822370.088076305
801903.198041015
780184.102932884
757154.455937437
732752.413977373
706898.512001307
679511.963396359
650505.036874321
619765.699284479
587163.875444617
552562.231497305
515771.418103713
476561.469339203
434646.874795674
389626.279521381
340940.438543271
287772.695376723
229054.979992081
)
;

boundaryField
{
    electrode
    {
        type            electronTemperature;
        seec            0.05;
        Tse             1000;
        Edepend         1;
        TFN             1000;
        field_emission  0;
        field_enhancement_factor 55;
        work_function   5;
        value           uniform 24696.624807021;
    }
    ground
    {
        type            electronTemperature;
        seec            0.05;
        Tse             1000;
        Edepend         1;
        TFN             1000;
        field_emission  0;
        field_enhancement_factor 55;
        work_function   5;
        value           uniform 195721.959887215;
    }
    otherfaces
    {
        type            empty;
    }
}


// ************************************************************************* //
