/*--------------------------------*- C++ -*----------------------------------*\
| =========                 |                                                 |
| \\      /  F ield         | foam-extend: Open Source CFD                    |
|  \\    /   O peration     | Version:     4.0                                |
|   \\  /    A nd           | Web:         http://www.foam-extend.org         |
|    \\/     M anipulation  |                                                 |
\*---------------------------------------------------------------------------*/
FoamFile
{
    version     2.0;
    format      ascii;
    class       volScalarField;
    location    "1.4e-06";
    object      TeMean;
}
// * * * * * * * * * * * * * * * * * * * * * * * * * * * * * * * * * * * * * //

dimensions      [0 0 0 1 0 0 0];

internalField   nonuniform List<scalar> 
300
(
31142.3595160995
31142.7743651956
31142.7543141038
31142.3456640015
31141.8216943167
31141.151874687
31140.344678336
31139.4075405504
31138.3423783234
31137.1519477695
31135.8387933162
31134.4053800509
31132.8540779572
31131.1871025845
31129.4065841334
31127.5145595717
31125.5129675291
31123.4036697048
31121.1884486857
31118.8690070326
31116.4469798608
31113.9239251046
31111.3013343527
31108.5806293666
31105.7631601138
31102.8502548675
31099.843186694
31096.7431611866
31093.5513555806
31090.2688654391
31086.8966985567
31083.4358867947
31079.8874746596
31076.2524294809
31072.5316667343
31068.7260314318
31064.8363345076
31060.8633930028
31056.8079900178
31052.6708539344
31048.4526675351
31044.1541197167
31039.7758677082
31035.318523691
31030.7826704084
31026.1688595546
31021.4776092284
31016.7093991747
31011.8646555321
31006.9437501721
31001.9470015587
30996.8747415817
30991.7273530294
30986.5051851589
30981.208575107
30975.8378746761
30970.3933776002
30964.8753280251
30959.2839788859
30953.6195622052
30947.8822812894
30942.0723515966
30936.1898894567
30930.234958358
30924.2077297628
30918.1084144458
30911.9371765982
30905.6941421952
30899.3794153352
30892.993099467
30886.5352591881
30880.0058791466
30873.4049817494
30866.7326090709
30859.9887239129
30853.1732200061
30846.286048153
30839.32724938
30832.2967782292
30825.1945289621
30818.0204909651
30810.7746542314
30803.4569078208
30796.0670725034
30788.604943463
30781.0703921461
30773.4633441287
30765.7836505405
30758.0310961086
30750.2054861444
30742.3065436436
30734.3339595764
30726.2876109466
30718.1672787721
30709.9726638414
30701.7035406729
30693.3596217945
30684.9406028417
30676.4461346128
30667.8758594791
30659.2294763947
30650.5065300937
30641.7065261778
30632.829101273
30623.8738410874
30614.8402708107
30605.727864265
30596.5360747078
30587.2643832152
30577.9122270028
30568.4790110646
30558.9640942343
30549.3667581782
30539.6863391317
30529.9220825752
30520.0731239343
30510.1385283577
30500.1174074119
30490.0089162857
30479.8119680714
30469.5253800477
30459.1479572206
30448.678402543
30438.115417012
30427.4577228863
30416.7038693645
30405.8521886865
30394.900990294
30383.848534275
30372.6928424887
30361.4317735442
30350.0631180012
30338.5845555102
30326.9933875065
30315.2866559768
30303.4614997929
30291.5148574936
30279.4432511528
30267.2430062895
30254.9103007813
30242.4410085166
30229.8305987157
30217.074118623
30204.1661672843
30191.1010245696
30177.8727146607
30164.4748546772
30150.9006277404
30137.1424010287
30123.1918564417
30109.0403943608
30094.6786062558
30080.0962882261
30065.2827418228
30050.2262294316
30034.9140166164
30019.3325590603
30003.4675233463
29987.3037052994
29970.8248096094
29954.0142856528
29936.8555756442
29919.3323403663
29901.4319100736
29883.1497693179
29864.4863863781
29845.4349401516
29825.9820838239
29806.1180922947
29785.8490961215
29765.1814604395
29744.0071167515
29722.0816035438
29699.1330764947
29674.8299115612
29648.59149437
29619.5891693805
29586.9871603008
29549.9202722027
29507.6036269422
29459.6701126197
29406.5484583157
29350.1759310199
29294.85265213
29248.62730131
29225.0091385836
29245.7942579274
29345.2037745573
29575.9565314039
30022.2708783646
30819.9606429717
32191.3749094957
34515.5316458467
38512.0326888992
45343.6267163411
56414.9657768738
73650.6682814175
98861.209528769
134415.398467647
181015.75337842
238378.986099262
303611.537682707
372625.647586949
440324.415733501
502658.330734689
557507.876933201
604547.876532583
644447.93796115
678295.384816272
707202.408240209
732077.396853442
753651.638216868
772530.094756274
789207.756626177
804081.577056892
817470.013308357
829629.133609052
840766.305362155
851049.232428386
860609.13026608
869551.353029935
877967.05999566
885933.542124016
893513.074003024
900755.634352796
907701.867292533
914384.573987963
920829.930655629
927058.488207376
933085.937063906
938923.801156746
944580.02305351
950059.443150647
955363.856287849
960492.542451766
965442.833972923
970210.089664042
974787.976908344
979168.643783306
983342.923455432
987300.450944271
991029.812000591
994518.78172494
997754.381747137
1000723.04322901
1003410.68177034
1005802.07336364
1007882.12214935
1009636.23373625
1011049.11763892
1012105.29482012
1012789.16130329
1013085.02186049
1012977.13581211
1012449.7213756
1011486.84749962
1010072.99944335
1008189.53900289
1005827.43876671
1002968.13243296
999595.572294454
995693.901177258
991247.390349395
986240.199081335
980656.406900164
974479.899567724
967694.353978326
960283.223592303
952229.883035126
943517.843247639
934128.610290437
924043.047313241
913243.03724655
901708.790401207
889419.123276621
876351.582859088
862482.423612553
847786.397050198
832236.72188829
815804.755441831
798459.698240708
780168.490683832
760896.276818277
740605.751978539
719251.141853594
696783.53362417
673150.145369526
648287.104354842
622126.039267431
594589.095728099
565581.895650408
534994.765865717
502701.598081773
468539.956316803
432309.78855231
393756.365984259
352516.616697683
308105.280841083
259821.344318845
206709.171665195
)
;

boundaryField
{
    electrode
    {
        type            calculated;
        value           uniform 31142.3595161082;
    }
    ground
    {
        type            calculated;
        value           uniform 176687.429021475;
    }
    otherfaces
    {
        type            empty;
    }
}


// ************************************************************************* //
