/*--------------------------------*- C++ -*----------------------------------*\
| =========                 |                                                 |
| \\      /  F ield         | foam-extend: Open Source CFD                    |
|  \\    /   O peration     | Version:     4.0                                |
|   \\  /    A nd           | Web:         http://www.foam-extend.org         |
|    \\/     M anipulation  |                                                 |
\*---------------------------------------------------------------------------*/
FoamFile
{
    version     2.0;
    format      ascii;
    class       volScalarField;
    location    "2e-07";
    object      Ar;
}
// * * * * * * * * * * * * * * * * * * * * * * * * * * * * * * * * * * * * * //

dimensions      [0 0 0 1 0 0 0];

internalField   nonuniform List<scalar> 
300
(
3.21880301069565e+22
3.21880299992507e+22
3.21880300971207e+22
3.21880300806626e+22
3.2188030092519e+22
3.21880301196714e+22
3.21880301477649e+22
3.21880301821785e+22
3.21880302236673e+22
3.21880302722183e+22
3.21880303282043e+22
3.21880303918914e+22
3.218803046362e+22
3.21880305436463e+22
3.21880306322005e+22
3.21880307294756e+22
3.21880308356293e+22
3.21880309507713e+22
3.21880310749716e+22
3.21880312082656e+22
3.21880313506504e+22
3.21880315020921e+22
3.21880316625289e+22
3.21880318318589e+22
3.21880320100015e+22
3.21880321967949e+22
3.21880323920929e+22
3.21880325957384e+22
3.21880328075458e+22
3.2188033027317e+22
3.21880332548981e+22
3.21880334900792e+22
3.21880337326412e+22
3.21880339823923e+22
3.21880342391297e+22
3.21880345026519e+22
3.21880347727689e+22
3.21880350492838e+22
3.2188035332001e+22
3.21880356207342e+22
3.21880359153035e+22
3.21880362155234e+22
3.21880365212218e+22
3.21880368322272e+22
3.21880371483733e+22
3.21880374694976e+22
3.21880377954456e+22
3.21880381260633e+22
3.21880384612166e+22
3.21880388007515e+22
3.21880391445613e+22
3.21880394924738e+22
3.21880398443842e+22
3.21880402001269e+22
3.21880405595807e+22
3.21880409225989e+22
3.21880412890625e+22
3.21880416588528e+22
3.21880420318534e+22
3.21880424079559e+22
3.21880427870509e+22
3.21880431690413e+22
3.21880435538139e+22
3.21880439413115e+22
3.21880443314406e+22
3.21880447240708e+22
3.21880451191311e+22
3.21880455165367e+22
3.21880459162083e+22
3.2188046318077e+22
3.21880467220632e+22
3.21880471281147e+22
3.21880475361807e+22
3.21880479461733e+22
3.2188048358056e+22
3.21880487717851e+22
3.21880491872843e+22
3.21880496045379e+22
3.21880500234269e+22
3.21880504440078e+22
3.21880508661541e+22
3.21880512898443e+22
3.21880517150581e+22
3.21880521417401e+22
3.21880525699006e+22
3.21880529995027e+22
3.21880534305111e+22
3.21880538629094e+22
3.21880542967115e+22
3.2188054731904e+22
3.21880551684557e+22
3.21880556064842e+22
3.21880560458851e+22
3.21880564866951e+22
3.21880569289376e+22
3.21880573726334e+22
3.21880578178242e+22
3.21880582645433e+22
3.21880587128534e+22
3.21880591628123e+22
3.21880596144815e+22
3.21880600679016e+22
3.21880605232338e+22
3.21880609804952e+22
3.21880614398025e+22
3.21880619012919e+22
3.2188062365029e+22
3.21880628311942e+22
3.21880632998967e+22
3.21880637712796e+22
3.2188064245515e+22
3.21880647227656e+22
3.21880652032321e+22
3.21880656871268e+22
3.21880661746387e+22
3.21880666660331e+22
3.21880671615802e+22
3.21880676614989e+22
3.21880681660801e+22
3.21880686756104e+22
3.21880691904724e+22
3.2188069710939e+22
3.21880702374462e+22
3.21880707703515e+22
3.21880713100496e+22
3.21880718569701e+22
3.21880724116384e+22
3.21880729745018e+22
3.21880735461142e+22
3.21880741270338e+22
3.21880747178779e+22
3.21880753192887e+22
3.21880759319489e+22
3.21880765565699e+22
3.21880771940038e+22
3.21880778450084e+22
3.21880785104251e+22
3.21880791911799e+22
3.21880798882702e+22
3.21880806026611e+22
3.21880813354245e+22
3.21880820876925e+22
3.21880828606424e+22
3.21880836555e+22
3.21880844735893e+22
3.2188085316165e+22
3.21880861846481e+22
3.21880870804632e+22
3.2188088005021e+22
3.21880889599268e+22
3.21880899466479e+22
3.2188090966663e+22
3.21880920216841e+22
3.2188093113164e+22
3.21880942426688e+22
3.21880954117291e+22
3.21880966218432e+22
3.2188097874451e+22
3.21880991707606e+22
3.21881005120347e+22
3.21881018995406e+22
3.21881033340191e+22
3.21881048152064e+22
3.21881063453986e+22
3.21881079318339e+22
3.21881095594411e+22
3.21881112093155e+22
3.21881129100849e+22
3.21881146710569e+22
3.21881164607533e+22
3.21881182692064e+22
3.21881201287601e+22
3.2188122048119e+22
3.21881239755575e+22
3.21881259449348e+22
3.21881279292045e+22
3.21881299129408e+22
3.21881318852287e+22
3.21881338230608e+22
3.21881357180755e+22
3.21881375057638e+22
3.21881392011429e+22
3.21881407657387e+22
3.21881422240743e+22
3.2188143428754e+22
3.21881444218902e+22
3.21881454662681e+22
3.21881462756979e+22
3.21881467321698e+22
3.21881471694437e+22
3.21881477311827e+22
3.21881481468537e+22
3.21881483321769e+22
3.21881484922332e+22
3.21881487507141e+22
3.21881489880124e+22
3.21881492040341e+22
3.21881494278213e+22
3.21881495754134e+22
3.21881496549725e+22
3.21881497749033e+22
3.21881499491157e+22
3.21881501346578e+22
3.21881503054297e+22
3.21881504684557e+22
3.21881506323179e+22
3.21881507685686e+22
3.2188150892943e+22
3.21881510255238e+22
3.21881511375343e+22
3.218815124644e+22
3.21881513749892e+22
3.21881515053335e+22
3.21881516321225e+22
3.21881517568895e+22
3.21881518793268e+22
3.21881519980752e+22
3.21881521114986e+22
3.21881522188016e+22
3.21881523202468e+22
3.21881524162081e+22
3.21881525080419e+22
3.21881525964048e+22
3.2188152682086e+22
3.21881527659163e+22
3.21881528472823e+22
3.21881529275481e+22
3.21881530059792e+22
3.21881530826059e+22
3.21881531579124e+22
3.21881532316208e+22
3.21881533060607e+22
3.21881533805627e+22
3.21881534531213e+22
3.2188153523622e+22
3.21881535919826e+22
3.21881536582034e+22
3.21881537224188e+22
3.21881537848944e+22
3.21881538456142e+22
3.21881539044447e+22
3.21881539615273e+22
3.21881540167914e+22
3.21881540704817e+22
3.21881541225597e+22
3.21881541730883e+22
3.21881542220156e+22
3.21881542693077e+22
3.21881543149636e+22
3.21881543590344e+22
3.21881544016676e+22
3.21881544428754e+22
3.2188154482824e+22
3.21881545214898e+22
3.21881545590136e+22
3.21881545953599e+22
3.21881546306671e+22
3.21881546649232e+22
3.21881546981646e+22
3.21881547304264e+22
3.21881547617033e+22
3.21881547920552e+22
3.21881548214178e+22
3.21881548498545e+22
3.21881548773776e+22
3.21881549040152e+22
3.21881549297937e+22
3.21881549547223e+22
3.21881549788086e+22
3.21881550020703e+22
3.21881550245255e+22
3.21881550462578e+22
3.21881550672805e+22
3.21881550875674e+22
3.21881551071843e+22
3.21881551261618e+22
3.21881551444341e+22
3.21881551620969e+22
3.21881551791022e+22
3.21881551954506e+22
3.2188155211086e+22
3.21881552263322e+22
3.2188155240621e+22
3.21881552549574e+22
3.21881552679042e+22
3.21881552817038e+22
3.21881552931815e+22
3.21881553062461e+22
3.21881553164036e+22
3.21881553286545e+22
3.21881553378012e+22
3.21881553493272e+22
3.21881553573168e+22
3.2188155368299e+22
3.21881553751638e+22
3.21881553855497e+22
3.21881553913841e+22
3.21881554013018e+22
3.21881554060953e+22
3.21881554174038e+22
)
;

boundaryField
{
    electrode
    {
        type            zeroGradient;
    }
    ground
    {
        type            zeroGradient;
    }
    otherfaces
    {
        type            empty;
    }
}


// ************************************************************************* //
