/*--------------------------------*- C++ -*----------------------------------*\
| =========                 |                                                 |
| \\      /  F ield         | foam-extend: Open Source CFD                    |
|  \\    /   O peration     | Version:     4.0                                |
|   \\  /    A nd           | Web:         http://www.foam-extend.org         |
|    \\/     M anipulation  |                                                 |
\*---------------------------------------------------------------------------*/
FoamFile
{
    version     2.0;
    format      ascii;
    class       volScalarField;
    location    "2e-07";
    object      Arm;
}
// * * * * * * * * * * * * * * * * * * * * * * * * * * * * * * * * * * * * * //

dimensions      [0 0 0 1 0 0 0];

internalField   nonuniform List<scalar> 
300
(
3.57417044148705e+15
3.57605149197412e+15
3.57800179459665e+15
3.57930745620387e+15
3.58012357209682e+15
3.58050200093003e+15
3.58048696122824e+15
3.58010987599187e+15
3.57939639912769e+15
3.5783685208165e+15
3.57704200494516e+15
3.57543093851552e+15
3.57354737361939e+15
3.57140191229272e+15
3.56900401107236e+15
3.56636222158279e+15
3.56348134946236e+15
3.56036999096332e+15
3.55703649152329e+15
3.55348732697378e+15
3.54972869879174e+15
3.54576652871308e+15
3.54160650674528e+15
3.53725411790548e+15
3.532698581406e+15
3.52795773537608e+15
3.5230352539532e+15
3.51793312122676e+15
3.51266497793597e+15
3.50723572883305e+15
3.50163151137316e+15
3.49586374361263e+15
3.48995057848979e+15
3.48389736975784e+15
3.4777092037048e+15
3.47139089228587e+15
3.46494258337725e+15
3.45837080702471e+15
3.45168264202327e+15
3.4448816155121e+15
3.43797122696156e+15
3.43095676018577e+15
3.42384209324885e+15
3.41663091783282e+15
3.40932673426425e+15
3.40193281124914e+15
3.39445008674897e+15
3.38688003210278e+15
3.37921484686728e+15
3.37145316272312e+15
3.36358228996178e+15
3.355614836239e+15
3.34754531057658e+15
3.33939151010006e+15
3.33116152578284e+15
3.32287177952076e+15
3.31452554204068e+15
3.30612572951746e+15
3.29767491834727e+15
3.28917351208295e+15
3.28062584076927e+15
3.27203402326445e+15
3.26339473648449e+15
3.25468992992359e+15
3.24592358268163e+15
3.23712138878886e+15
3.22828538599392e+15
3.21941741411049e+15
3.21051905893259e+15
3.20159168476658e+15
3.19263445593277e+15
3.18364019248698e+15
3.17460734942473e+15
3.16554344492164e+15
3.15643485048902e+15
3.14728264736924e+15
3.13809321726494e+15
3.12886234627294e+15
3.11961019514896e+15
3.11030592310216e+15
3.10098435376001e+15
3.09164754725832e+15
3.08229239392529e+15
3.0729212087249e+15
3.06351907589001e+15
3.05409378244974e+15
3.04465707125543e+15
3.03520926471187e+15
3.0257383747624e+15
3.01625223683601e+15
3.00674489761722e+15
2.99717096317534e+15
2.98758608100036e+15
2.97799176282879e+15
2.96838803387084e+15
2.95877492081616e+15
2.94915220527609e+15
2.93951947965767e+15
2.92986575576116e+15
2.92019098357712e+15
2.91050145372532e+15
2.90079851444708e+15
2.89105017113235e+15
2.8812858934712e+15
2.87149636851426e+15
2.86167219135457e+15
2.85182852930911e+15
2.84194561116666e+15
2.83203394685931e+15
2.82209899374791e+15
2.81213886485658e+15
2.80215128599079e+15
2.79212848973248e+15
2.78206827728262e+15
2.77196846558964e+15
2.76181136776096e+15
2.75157798732949e+15
2.741293289435e+15
2.73095811065483e+15
2.72056439421716e+15
2.71008561048294e+15
2.69953492053064e+15
2.68888313685628e+15
2.67814074746162e+15
2.66731921909438e+15
2.65641638102122e+15
2.64540394708784e+15
2.63429953275068e+15
2.62309221963058e+15
2.61178002135739e+15
2.60034723261139e+15
2.5887900148287e+15
2.5771034186903e+15
2.5652613310084e+15
2.55322712725073e+15
2.54101983408855e+15
2.52864340895773e+15
2.5160727229104e+15
2.50328886435382e+15
2.4903010839156e+15
2.47709333485745e+15
2.46364899813198e+15
2.44993589052187e+15
2.43592189513799e+15
2.42158230887644e+15
2.40693712477829e+15
2.3919713944207e+15
2.37666878474721e+15
2.36099876865168e+15
2.34491226147766e+15
2.32842193299648e+15
2.31150303569327e+15
2.29409306115824e+15
2.27619101214859e+15
2.25777866709125e+15
2.23880620417394e+15
2.21923028441008e+15
2.19905050554997e+15
2.17824773950869e+15
2.15677694028243e+15
2.13460247426213e+15
2.1117093567819e+15
2.08805915480758e+15
2.06366459796637e+15
2.03851273075921e+15
2.01254869881124e+15
1.98579344947834e+15
1.95829164776458e+15
1.93007219206982e+15
1.9011770186459e+15
1.87167488092195e+15
1.84159887628089e+15
1.81104133946334e+15
1.7801739206286e+15
1.74919068176986e+15
1.71826139032153e+15
1.68756520878504e+15
1.65730108806658e+15
1.62770813043863e+15
1.59894170362929e+15
1.57115609304887e+15
1.54449847242774e+15
1.51904994971628e+15
1.49492563778446e+15
1.47212524694444e+15
1.45055784380174e+15
1.43026334232451e+15
1.41118998682542e+15
1.39324869748394e+15
1.37635016413599e+15
1.36037235143592e+15
1.34526821764743e+15
1.33102231009491e+15
1.31756512740488e+15
1.30491991252365e+15
1.29319680810212e+15
1.28236411344576e+15
1.27180629048994e+15
1.26120888950426e+15
1.25076312271969e+15
1.24072809026924e+15
1.23115085375369e+15
1.22204977883712e+15
1.21341255420518e+15
1.20516318224388e+15
1.19724329618869e+15
1.18966228100508e+15
1.1823896710769e+15
1.1753958077187e+15
1.16866884053597e+15
1.16219221217946e+15
1.15596076796464e+15
1.14996199647897e+15
1.14416325090956e+15
1.13859057378492e+15
1.1332200603616e+15
1.12802336352582e+15
1.12302523041726e+15
1.11820168686e+15
1.11354253004424e+15
1.10905230243158e+15
1.10471372089038e+15
1.10052698453826e+15
1.09648841032131e+15
1.09258497077265e+15
1.08881487802226e+15
1.08518421165076e+15
1.08167675452499e+15
1.07829145439614e+15
1.07503324089779e+15
1.07188468403429e+15
1.06884493829856e+15
1.06591879101541e+15
1.06309499505114e+15
1.06036664125415e+15
1.05774442996495e+15
1.05520659770566e+15
1.05276693543562e+15
1.05040900378232e+15
1.04813862484349e+15
1.04595177200494e+15
1.04383646403709e+15
1.04180375867551e+15
1.03983581341586e+15
1.03793540069023e+15
1.03611488869688e+15
1.03435759728622e+15
1.0326688164984e+15
1.03104879775242e+15
1.02948752268705e+15
1.02799011717657e+15
1.02655069163745e+15
1.02516508887985e+15
1.02383763141361e+15
1.02256114114496e+15
1.02133467159609e+15
1.02015853424146e+15
1.01901936253459e+15
1.0179281670768e+15
1.0168793634709e+15
1.01588088725464e+15
1.0149224578891e+15
1.01400942826848e+15
1.01313601165259e+15
1.01230250081485e+15
1.01150767541644e+15
1.0107467679763e+15
1.01001978043094e+15
1.0093189704126e+15
1.00865328282332e+15
1.00801781071723e+15
1.00742055390148e+15
1.0068505465021e+15
1.00631550649737e+15
1.00580503087485e+15
1.00531932906141e+15
1.00485818752699e+15
1.00442302563786e+15
1.00401717680708e+15
1.0036355322376e+15
1.00327835998091e+15
1.0029402618577e+15
1.00262113442409e+15
1.00232789850609e+15
1.00205892262025e+15
1.00180466940014e+15
1.00157155093889e+15
1.00135994903355e+15
1.0011642834505e+15
1.00098686575151e+15
1.00082976648119e+15
1.00068786334771e+15
1.00056262536697e+15
1.00045487200886e+15
1.00036193763728e+15
1.00028421036833e+15
1.00021944467164e+15
1.00016711330806e+15
1.00012357514774e+15
1.00008440941777e+15
)
;

boundaryField
{
    electrode
    {
        type            zeroGradient;
    }
    ground
    {
        type            zeroGradient;
    }
    otherfaces
    {
        type            empty;
    }
}


// ************************************************************************* //
