/*--------------------------------*- C++ -*----------------------------------*\
| =========                 |                                                 |
| \\      /  F ield         | foam-extend: Open Source CFD                    |
|  \\    /   O peration     | Version:     4.0                                |
|   \\  /    A nd           | Web:         http://www.foam-extend.org         |
|    \\/     M anipulation  |                                                 |
\*---------------------------------------------------------------------------*/
FoamFile
{
    version     2.0;
    format      ascii;
    class       volScalarField;
    location    "2e-07";
    object      Arp1;
}
// * * * * * * * * * * * * * * * * * * * * * * * * * * * * * * * * * * * * * //

dimensions      [0 0 0 1 0 0 0];

internalField   nonuniform List<scalar> 
300
(
6.16322345374564e+16
6.17392479755053e+16
6.16433509919891e+16
6.16650358761087e+16
6.16612379887873e+16
6.16453279005807e+16
6.16317818328915e+16
6.16153074951e+16
6.15952908402848e+16
6.15718970975997e+16
6.15449063761098e+16
6.1514198930557e+16
6.14795709878733e+16
6.14408903439004e+16
6.13980347282188e+16
6.13509018987521e+16
6.12994092844025e+16
6.12434991723282e+16
6.11831344004613e+16
6.11182955797488e+16
6.10489843733067e+16
6.09752176643958e+16
6.08970250630121e+16
6.0814463609758e+16
6.07275732630686e+16
6.06364365819183e+16
6.05411257735256e+16
6.04417186403165e+16
6.03383037286119e+16
6.02309864957653e+16
6.01198432521989e+16
6.00049785156091e+16
5.98864977837954e+16
5.9764490921396e+16
5.9639058922262e+16
5.95103023739222e+16
5.93783152669313e+16
5.92431936571396e+16
5.91050328554836e+16
5.89639244551346e+16
5.88199552456139e+16
5.86732176822123e+16
5.85237945218425e+16
5.83717700290592e+16
5.82172253451426e+16
5.80602403539738e+16
5.79008912242398e+16
5.77392548044515e+16
5.75753996924539e+16
5.74094092606214e+16
5.72413332713115e+16
5.70712631121934e+16
5.68992426678517e+16
5.67253550701977e+16
5.65496504089201e+16
5.63721977760869e+16
5.61930534374676e+16
5.60122751626157e+16
5.58299208866605e+16
5.56460443163835e+16
5.54606981623136e+16
5.52739264367471e+16
5.50857970324125e+16
5.4896338145086e+16
5.47055941060282e+16
5.45136261389023e+16
5.43204615133581e+16
5.41261434963127e+16
5.39307115214898e+16
5.37341966820607e+16
5.35366445256722e+16
5.33380815550998e+16
5.31385283572893e+16
5.29380351145808e+16
5.27366235384033e+16
5.25343091097425e+16
5.2331136158433e+16
5.21271003107187e+16
5.19222776123565e+16
5.17166212832536e+16
5.15102034120041e+16
5.13030250248371e+16
5.10950933467241e+16
5.08864466983886e+16
5.06770769580822e+16
5.04670022131248e+16
5.0256237012225e+16
5.00447905554122e+16
4.98326566222662e+16
4.96198381799585e+16
4.9406372743873e+16
4.91921910182105e+16
4.89773472065049e+16
4.87618111871016e+16
4.85455708957686e+16
4.83286200852616e+16
4.81109348958818e+16
4.78925033911044e+16
4.76732986772261e+16
4.7453291437098e+16
4.72324459632125e+16
4.7010756787299e+16
4.67881353292347e+16
4.65645797256645e+16
4.63400323127274e+16
4.61144204479359e+16
4.58877227415885e+16
4.56598430431394e+16
4.54307316008495e+16
4.52003156519623e+16
4.49685065431866e+16
4.47352317808631e+16
4.45003931467443e+16
4.42638820807736e+16
4.40256204209863e+16
4.37854772178166e+16
4.35433260624492e+16
4.32990560325776e+16
4.30525178402281e+16
4.28035847581372e+16
4.25520630255202e+16
4.22978394115337e+16
4.20406919474558e+16
4.17804493066234e+16
4.15169150505916e+16
4.12498853541068e+16
4.09791017261615e+16
4.07043532713276e+16
4.04253676957114e+16
4.01418769444014e+16
3.9853586216508e+16
3.95601834795164e+16
3.92613377951963e+16
3.89567320210864e+16
3.86459416873521e+16
3.83286041817703e+16
3.80043120321332e+16
3.76726278888899e+16
3.7333062454358e+16
3.69851566589971e+16
3.66283963796724e+16
3.62622351702749e+16
3.58861233968985e+16
3.54994900743759e+16
3.5101684670628e+16
3.46921228881437e+16
3.42701224981594e+16
3.38350094130774e+16
3.33861546398459e+16
3.29227755897676e+16
3.24441839725328e+16
3.19497338155017e+16
3.14385954416928e+16
3.09101441921717e+16
3.03636619882698e+16
2.97984953975148e+16
2.92140083029086e+16
2.86095645515423e+16
2.79847567190353e+16
2.73391207552779e+16
2.66721418456096e+16
2.59837669829554e+16
2.52749260692206e+16
2.45438771719306e+16
2.37838428847714e+16
2.30103879999641e+16
2.22432717990561e+16
2.14552966573354e+16
2.06387448308506e+16
1.98266484241975e+16
1.90308415482995e+16
1.82210432819849e+16
1.73898067464631e+16
1.65887770257798e+16
1.57824773859406e+16
1.49941322393087e+16
1.42324329786584e+16
1.34981081694048e+16
1.28000554816137e+16
1.21286500584647e+16
1.15271308812331e+16
1.09572969111684e+16
1.04344430458866e+16
9.91315391820887e+15
9.5251849353731e+15
9.22026600227025e+15
8.73510393305482e+15
8.36293651479306e+15
8.23551160387796e+15
8.0369207609956e+15
7.64245625305874e+15
7.34053582404032e+15
7.23096118182781e+15
7.12117287716412e+15
6.89659449005403e+15
6.68289606543041e+15
6.48443049490385e+15
6.2750990648654e+15
6.14038472800955e+15
6.0724927210903e+15
5.96316697327241e+15
5.79878673868276e+15
5.62246172354488e+15
5.46038179725662e+15
5.30563166003904e+15
5.14970181705667e+15
5.02103742159524e+15
4.90393713673434e+15
4.77834972237907e+15
4.67306442398549e+15
4.57063310051701e+15
4.44831277398462e+15
4.32396474640725e+15
4.20297219536412e+15
4.08377576402691e+15
3.96670715323051e+15
3.85315411685537e+15
3.74472786171757e+15
3.64224773346552e+15
3.54546148389172e+15
3.45399045415828e+15
3.3664956992291e+15
3.2823203305581e+15
3.20067876364294e+15
3.12075329015972e+15
3.04315891872071e+15
2.96652564989188e+15
2.8916039306026e+15
2.81836475085608e+15
2.7463188944594e+15
2.67576145913383e+15
2.60436390906393e+15
2.53279078253185e+15
2.46305871550191e+15
2.39528920081318e+15
2.32955366928156e+15
2.26587364870949e+15
2.20410072820197e+15
2.1439860689301e+15
2.08553944035918e+15
2.02889873383199e+15
1.9739342924032e+15
1.92070576817812e+15
1.86898617031924e+15
1.81881130252288e+15
1.77010593162655e+15
1.72293856165771e+15
1.67733784282407e+15
1.63330450748231e+15
1.59079750606571e+15
1.54966415408293e+15
1.50989813478477e+15
1.4713375521681e+15
1.43400143489221e+15
1.39775627615176e+15
1.36263862826917e+15
1.3285096863428e+15
1.29539475442375e+15
1.26324660648935e+15
1.23203553952709e+15
1.20175895827769e+15
1.172367290028e+15
1.14391954209149e+15
1.11635790009081e+15
1.08967008466546e+15
1.06382892054017e+15
1.0388128757473e+15
1.01461280957893e+15
991228778387859
968634328682481
946815974118876
925682258553962
905230949184220
885480364702924
866375202142341
847884643535669
830074676972326
812848214811600
796249980010673
780284362527313
765007201212563
750100120957513
736131460230364
722089282013438
709412467481331
695868094404956
684624414957995
671772339024420
661811313413372
649738671051831
640749911606688
629366543372375
621502842355760
610629084374872
603857816871005
593550243897763
587781030863106
577915878252912
573165974671543
561896261335409
)
;

boundaryField
{
    electrode
    {
        type            driftDiffusionPositiveIonDensity;
        seec            0;
        fieldName       Arp1;
        value           uniform 6.15408043554501e+16;
    }
    ground
    {
        type            driftDiffusionPositiveIonDensity;
        seec            0;
        fieldName       Arp1;
        value           uniform 561896261335409;
    }
    otherfaces
    {
        type            empty;
    }
}


// ************************************************************************* //
