/*--------------------------------*- C++ -*----------------------------------*\
| =========                 |                                                 |
| \\      /  F ield         | foam-extend: Open Source CFD                    |
|  \\    /   O peration     | Version:     4.0                                |
|   \\  /    A nd           | Web:         http://www.foam-extend.org         |
|    \\/     M anipulation  |                                                 |
\*---------------------------------------------------------------------------*/
FoamFile
{
    version     2.0;
    format      ascii;
    class       volVectorField;
    location    "2e-07";
    object      E;
}
// * * * * * * * * * * * * * * * * * * * * * * * * * * * * * * * * * * * * * //

dimensions      [0 0 0 1 0 0 0];

internalField   nonuniform List<vector> 
300
(
(2.04299583500545 -0 -0)
(8.06882584081235 -0 -0)
(16.6921740804571 -0 -0)
(21.8989095773783 -0 -0)
(28.5135565034061 -0 -0)
(35.9716562037264 -0 -0)
(43.540832127265 -0 -0)
(51.4853937400018 -0 -0)
(59.8876780125164 -0 -0)
(68.7285474074157 -0 -0)
(77.989520741449 -0 -0)
(87.6481509953794 -0 -0)
(97.6751642275962 -0 -0)
(108.033220307111 -0 -0)
(118.680682752171 -0 -0)
(129.573254267769 -0 -0)
(140.665138220749 -0 -0)
(151.910459107731 -0 -0)
(163.264590538616 -0 -0)
(174.684948905931 -0 -0)
(186.131682808346 -0 -0)
(197.568167309427 -0 -0)
(208.961245964919 -0 -0)
(220.281880719544 -0 -0)
(231.50437403752 -0 -0)
(242.606575474863 -0 -0)
(253.570460412303 -0 -0)
(264.380788957133 -0 -0)
(275.025138271595 -0 -0)
(285.494677361445 -0 -0)
(295.782646042606 -0 -0)
(305.883741469275 -0 -0)
(315.795382085957 -0 -0)
(325.516635771328 -0 -0)
(335.047501388784 -0 -0)
(344.389338596853 -0 -0)
(353.544460894619 -0 -0)
(362.515790860922 -0 -0)
(371.306965503454 -0 -0)
(379.922112832314 -0 -0)
(388.36544850449 -0 -0)
(396.641461945831 -0 -0)
(404.754865307483 -0 -0)
(412.710275109115 -0 -0)
(420.512273119384 -0 -0)
(428.165386641467 -0 -0)
(435.674008598864 -0 -0)
(443.042375324097 -0 -0)
(450.2744943236 -0 -0)
(457.374573460587 -0 -0)
(464.346272532938 -0 -0)
(471.193274906346 -0 -0)
(477.919259396402 -0 -0)
(484.527701540054 -0 -0)
(491.022335945327 -0 -0)
(497.406717701779 -0 -0)
(503.684622593697 -0 -0)
(509.85972896161 -0 -0)
(515.935868078308 -0 -0)
(521.917038162673 -0 -0)
(527.807154598932 -0 -0)
(533.609927319437 -0 -0)
(539.329965858264 -0 -0)
(544.971742287623 -0 -0)
(550.538484504648 -0 -0)
(556.034465308607 -0 -0)
(561.46438209149 -0 -0)
(566.832197854025 -0 -0)
(572.141896663989 -0 -0)
(577.397320114579 -0 -0)
(582.602728926736 -0 -0)
(587.762404147328 -0 -0)
(592.879407072868 -0 -0)
(597.957445899623 -0 -0)
(603.001132414077 -0 -0)
(608.013947910103 -0 -0)
(612.999368061637 -0 -0)
(617.960774218553 -0 -0)
(622.903193392482 -0 -0)
(627.830702284874 -0 -0)
(632.746609312354 -0 -0)
(637.656458389655 -0 -0)
(642.56485037399 -0 -0)
(647.477295541495 -0 -0)
(652.399697893887 -0 -0)
(657.337343298734 -0 -0)
(662.296735116992 -0 -0)
(667.285410060957 -0 -0)
(672.310436426602 -0 -0)
(677.378949456919 -0 -0)
(682.500835214109 -0 -0)
(687.68447240839 -0 -0)
(692.938181975978 -0 -0)
(698.273306526455 -0 -0)
(703.700622056574 -0 -0)
(709.23148104425 -0 -0)
(714.878015109578 -0 -0)
(720.653255137223 -0 -0)
(726.57127071503 -0 -0)
(732.6463799099 -0 -0)
(738.893545477868 -0 -0)
(745.330194321185 -0 -0)
(751.973247395469 -0 -0)
(758.840132651497 -0 -0)
(765.951318063082 -0 -0)
(773.326784180089 -0 -0)
(780.988511619866 -0 -0)
(788.959939608609 -0 -0)
(797.264936390562 -0 -0)
(805.929994819436 -0 -0)
(814.982901435688 -0 -0)
(824.453390366285 -0 -0)
(834.373278926598 -0 -0)
(844.775386056678 -0 -0)
(855.696125469461 -0 -0)
(867.174938677491 -0 -0)
(879.252052353545 -0 -0)
(891.971212199717 -0 -0)
(905.380302916409 -0 -0)
(919.531125176492 -0 -0)
(934.478062256209 -0 -0)
(950.280805361667 -0 -0)
(967.004003396628 -0 -0)
(984.715338361981 -0 -0)
(1003.48972107263 -0 -0)
(1023.40942825252 -0 -0)
(1044.56152709162 -0 -0)
(1067.04003574577 -0 -0)
(1090.9480614511 -0 -0)
(1116.39665199432 -0 -0)
(1143.50571526733 -0 -0)
(1172.40425348424 -0 -0)
(1203.23192400477 -0 -0)
(1236.14195601643 -0 -0)
(1271.29744747642 -0 -0)
(1308.87227632891 -0 -0)
(1349.05756943 -0 -0)
(1392.0604954089 -0 -0)
(1438.10166505653 -0 -0)
(1487.41869310907 -0 -0)
(1540.26973501488 -0 -0)
(1596.93194189143 -0 -0)
(1657.70447840241 -0 -0)
(1722.90445033687 -0 -0)
(1792.87847097714 -0 -0)
(1868.01472567795 -0 -0)
(1948.72141247463 -0 -0)
(2035.44076984049 -0 -0)
(2128.67269030708 -0 -0)
(2228.95513082182 -0 -0)
(2336.86520462349 -0 -0)
(2453.04099179226 -0 -0)
(2578.17719835653 -0 -0)
(2713.03386614768 -0 -0)
(2858.45517057432 -0 -0)
(3015.37691009021 -0 -0)
(3184.84043341254 -0 -0)
(3368.00719961607 -0 -0)
(3566.19501321079 -0 -0)
(3780.90593102273 -0 -0)
(4013.83362119064 -0 -0)
(4266.95146852384 -0 -0)
(4542.66005185851 -0 -0)
(4843.45162673797 -0 -0)
(5171.51605856415 -0 -0)
(5531.83650971086 -0 -0)
(5935.28679396929 -0 -0)
(6392.81725053835 -0 -0)
(6912.11353913771 -0 -0)
(7506.17831815064 -0 -0)
(8196.53306064961 -0 -0)
(9003.70342501424 -0 -0)
(9944.20973273673 -0 -0)
(11041.7529097029 -0 -0)
(12323.8900612177 -0 -0)
(13816.973804731 -0 -0)
(15550.5324428459 -0 -0)
(17553.1182790127 -0 -0)
(19849.1361479249 -0 -0)
(22455.2506716149 -0 -0)
(25384.4442521328 -0 -0)
(28638.3345174393 -0 -0)
(32199.4990854262 -0 -0)
(36030.0258122679 -0 -0)
(40103.7157311704 -0 -0)
(44405.5555367962 -0 -0)
(48835.1540667887 -0 -0)
(53300.6575910057 -0 -0)
(57834.8454938074 -0 -0)
(62430.6197360166 -0 -0)
(66962.0846530548 -0 -0)
(71360.6224030741 -0 -0)
(75684.1963590223 -0 -0)
(79972.5105057393 -0 -0)
(84177.7723849326 -0 -0)
(88261.6366249398 -0 -0)
(92227.5367901289 -0 -0)
(96072.7950533536 -0 -0)
(99815.5787642149 -0 -0)
(103497.884083539 -0 -0)
(107127.201474793 -0 -0)
(110674.361395859 -0 -0)
(114118.838100435 -0 -0)
(117461.256508739 -0 -0)
(120708.119273723 -0 -0)
(123861.286510416 -0 -0)
(126928.618724594 -0 -0)
(129921.830322387 -0 -0)
(132841.85259827 -0 -0)
(135692.241536793 -0 -0)
(138479.986228723 -0 -0)
(141199.957020974 -0 -0)
(143845.539497776 -0 -0)
(146417.130889176 -0 -0)
(148916.28622815 -0 -0)
(151344.188500507 -0 -0)
(153702.538060712 -0 -0)
(155993.93959981 -0 -0)
(158221.731425935 -0 -0)
(160389.423401055 -0 -0)
(162500.336514119 -0 -0)
(164557.274260287 -0 -0)
(166562.437666096 -0 -0)
(168517.592867136 -0 -0)
(170424.022097892 -0 -0)
(172282.946205735 -0 -0)
(174095.358480942 -0 -0)
(175862.064921134 -0 -0)
(177584.089039832 -0 -0)
(179262.298363601 -0 -0)
(180897.501680102 -0 -0)
(182489.8943213 -0 -0)
(184039.169699374 -0 -0)
(185545.830043688 -0 -0)
(187011.022434705 -0 -0)
(188435.951996762 -0 -0)
(189821.851996891 -0 -0)
(191169.917603761 -0 -0)
(192481.224180793 -0 -0)
(193756.774845268 -0 -0)
(194997.617173529 -0 -0)
(196204.801266383 -0 -0)
(197379.356193243 -0 -0)
(198522.260589768 -0 -0)
(199634.43539178 -0 -0)
(200716.789581445 -0 -0)
(201770.230068315 -0 -0)
(202795.693051562 -0 -0)
(203794.123641367 -0 -0)
(204766.454865544 -0 -0)
(205713.561366799 -0 -0)
(206636.269828075 -0 -0)
(207535.356199104 -0 -0)
(208411.553326966 -0 -0)
(209265.559520791 -0 -0)
(210098.043848278 -0 -0)
(210909.644546451 -0 -0)
(211700.965596999 -0 -0)
(212472.60435937 -0 -0)
(213225.134998659 -0 -0)
(213959.121931656 -0 -0)
(214675.113829515 -0 -0)
(215373.66219256 -0 -0)
(216055.318910578 -0 -0)
(216720.614749741 -0 -0)
(217370.068570741 -0 -0)
(218004.184543392 -0 -0)
(218623.457574725 -0 -0)
(219228.379832509 -0 -0)
(219819.43553615 -0 -0)
(220397.096891407 -0 -0)
(220961.804464278 -0 -0)
(221513.970532889 -0 -0)
(222054.012218537 -0 -0)
(222582.335503717 -0 -0)
(223099.320386978 -0 -0)
(223605.357462371 -0 -0)
(224100.827964696 -0 -0)
(224586.097310735 -0 -0)
(225061.545692675 -0 -0)
(225527.571575732 -0 -0)
(225984.494175127 -0 -0)
(226432.708160966 -0 -0)
(226872.474373387 -0 -0)
(227304.182507959 -0 -0)
(227727.982636535 -0 -0)
(228144.306878595 -0 -0)
(228553.364050638 -0 -0)
(228955.540933201 -0 -0)
(229351.072689041 -0 -0)
(229740.252533064 -0 -0)
(230123.288267801 -0 -0)
(230500.519234745 -0 -0)
(230872.099094811 -0 -0)
(231238.357239868 -0 -0)
(231599.464423367 -0 -0)
(231955.722614495 -0 -0)
(232307.26545413 -0 -0)
(232654.403160227 -0 -0)
(232996.706576643 -0 -0)
)
;

boundaryField
{
    electrode
    {
        type            calculated;
        value           uniform (2.30444065664415 -0 -0);
    }
    ground
    {
        type            calculated;
        value           uniform (233166.156137672 -0 -0);
    }
    otherfaces
    {
        type            empty;
    }
}


// ************************************************************************* //
