/*--------------------------------*- C++ -*----------------------------------*\
| =========                 |                                                 |
| \\      /  F ield         | foam-extend: Open Source CFD                    |
|  \\    /   O peration     | Version:     4.0                                |
|   \\  /    A nd           | Web:         http://www.foam-extend.org         |
|    \\/     M anipulation  |                                                 |
\*---------------------------------------------------------------------------*/
FoamFile
{
    version     2.0;
    format      ascii;
    class       volScalarField;
    location    "2e-07";
    object      electron;
}
// * * * * * * * * * * * * * * * * * * * * * * * * * * * * * * * * * * * * * //

dimensions      [0 0 0 1 0 0 0];

internalField   nonuniform List<scalar> 
300
(
6.16659941339676e+16
6.16648036297167e+16
6.16608781236004e+16
6.16543427613185e+16
6.16454642590319e+16
6.16338388118153e+16
6.16193013755176e+16
6.16017337806979e+16
6.15809696227314e+16
6.15568348343311e+16
6.15291607673067e+16
6.14977872907858e+16
6.14625656699518e+16
6.14233615551961e+16
6.13800574544524e+16
6.13325541918829e+16
6.12807717862241e+16
6.12246497668826e+16
6.11641469304248e+16
6.10992406564256e+16
6.10299259051513e+16
6.09562139591192e+16
6.08781310079747e+16
6.0795716560786e+16
6.07090218632378e+16
6.06181084140871e+16
6.05230463577278e+16
6.04239130155394e+16
6.03207916549118e+16
6.02137701504004e+16
6.01029397929045e+16
5.99883944755699e+16
5.98702297978114e+16
5.974854216835e+16
5.96234282263156e+16
5.94949843270226e+16
5.93633060508772e+16
5.92284878548628e+16
5.90906227786098e+16
5.89498021864838e+16
5.88061156248812e+16
5.86596507262626e+16
5.85104931021381e+16
5.83587263050135e+16
5.82044318372119e+16
5.80476891590352e+16
5.7888575719198e+16
5.77271670005618e+16
5.75635365867586e+16
5.73977561717909e+16
5.7229895620602e+16
5.7060023058696e+16
5.68882048711705e+16
5.67145057425005e+16
5.65389886483846e+16
5.63617148457547e+16
5.61827438688021e+16
5.60021335106294e+16
5.58199398194923e+16
5.56362170555014e+16
5.54510176806098e+16
5.52643924071715e+16
5.50763901077698e+16
5.48870577102903e+16
5.46964404190118e+16
5.45045817575316e+16
5.43115233662772e+16
5.41173050735903e+16
5.39219650143086e+16
5.372553966661e+16
5.35280638422695e+16
5.3329570643309e+16
5.31300916566324e+16
5.29296570608386e+16
5.27282954214927e+16
5.25260337536552e+16
5.23228976942007e+16
5.21189115324073e+16
5.19140980140952e+16
5.17084782474156e+16
5.15020719673183e+16
5.12948973294422e+16
5.10869707440277e+16
5.08783069001765e+16
5.06689185862466e+16
5.04588167406251e+16
5.02480103813865e+16
5.00365063153249e+16
4.98243090719854e+16
4.96114209815282e+16
4.93978418164089e+16
4.91835686449846e+16
4.8968596077751e+16
4.87529158859608e+16
4.85365167154881e+16
4.83193841237825e+16
4.81015004296883e+16
4.78828445457162e+16
4.76633917740511e+16
4.74431136852237e+16
4.72219780642679e+16
4.69999485726322e+16
4.67769845599457e+16
4.65530411477025e+16
4.63280688438425e+16
4.61020133093343e+16
4.58748152651728e+16
4.5646410144051e+16
4.54167279726365e+16
4.51856931000186e+16
4.4953223833442e+16
4.47192321828421e+16
4.44836235044166e+16
4.42462962834148e+16
4.40071417528893e+16
4.37660432789052e+16
4.35228761153859e+16
4.3277507107369e+16
4.30297940252039e+16
4.27795848828421e+16
4.25267174678037e+16
4.22710187568886e+16
4.20123040864123e+16
4.17503766417643e+16
4.14850267325206e+16
4.12160306321858e+16
4.09431497810683e+16
4.06661301102816e+16
4.03847009723941e+16
4.00985740848728e+16
3.98074426167451e+16
3.95109802701173e+16
3.92088403390353e+16
3.89006544607447e+16
3.85860316497228e+16
3.82645578584708e+16
3.79357949937219e+16
3.75992796807285e+16
3.725452275998e+16
3.69010090386431e+16
3.65381967190159e+16
3.61655170867048e+16
3.57823745952877e+16
3.53881467724602e+16
3.49821851437267e+16
3.45637966026735e+16
3.41322574060798e+16
3.36868362544995e+16
3.32267818186658e+16
3.27513207742414e+16
3.22596612255918e+16
3.17509956288106e+16
3.12245042393776e+16
3.06793601003938e+16
3.01147337351989e+16
2.95297981401884e+16
2.89237348077389e+16
2.82957406208007e+16
2.76450344944542e+16
2.69708633783188e+16
2.62725105976776e+16
2.55493039253327e+16
2.48006160643008e+16
2.40258805244912e+16
2.32246499868636e+16
2.23964863664941e+16
2.15405156386327e+16
2.06552641420503e+16
1.97391137675459e+16
1.87904699348623e+16
1.78073992616766e+16
1.67878061855897e+16
1.57303401773112e+16
1.46349093298983e+16
1.35029353628911e+16
1.23380670236089e+16
1.11468549634156e+16
9.9392804518285e+15
8.72920699818629e+15
7.53445779092448e+15
6.37614144361966e+15
5.27728890160157e+15
4.26099468825273e+15
3.34803611785946e+15
2.5540592182942e+15
1.88732038644887e+15
1.34829624933881e+15
930001668831478
618797752540466
396928572499646
245563268869226
146864638543828
85325490484430.8
48490335690434.7
27217936567104.8
15332272340222.5
8605105740312.67
4704938374365.29
2422468305009.85
1199530205040.22
628521035274.83
373144672781.541
256987142929.055
202119929825.695
175632547015.124
163116256191.62
157829142343.947
156323987962.946
156818824518.059
158509311554.425
160811067746.787
163341490168.206
165856710376.56
168203640107.209
170284273758.925
172038312472.086
173430994089.444
174444933446.791
175069174901.949
175314330202.342
175215279813.196
174774866319.21
174011698248.452
172947726127.945
171607007448.99
170014348680.54
168194738695.584
166172892261.948
163972907918.896
161618004546.91
159130336377.393
156530875081.564
153839347633.098
151074152144.82
148252270572.264
145389242960.644
142499242177.097
139595170333.371
136688198695.689
133788025230.106
130903736935.802
128043393900.713
125213790745.777
122420764897.85
119669260044.157
116963415897.071
114306640045.441
111701677814.9
109150677669.509
106655254704.878
104216552223.907
101835299919.888
99511867292.3684
97246312464.1847
95038426550.4235
92887773681.1174
90793726785.4215
88755500151.9206
86772178296.5828
84842741392.8064
82966087986.4225
81141055183.5026
79366436368.0407
77640996477.1325
75963486068.3017
74332653905.8121
72747257999.058
71206075022.638
69707908690.2697
68251591427.0195
66835993875.3233
65459918280.5246
64122149359.3072
62818416623.0927
61545130705.4113
60302300185.4196
59090116373.2574
57908955955.8661
56759183022.5356
55641158050.2821
54555183292.7787
53501350811.9475
52478236126.3664
51480645864.9433
50506161571.3293
49557718950.3406
48638521081.4625
47751766095.3784
46895288236.9352
46065607290.9419
45267229306.0915
44508871905.8792
43789972458.387
43114885926.3618
42498463605.732
41957860917.9926
41524012298.4991
41269012349.9689
41235639586.0479
41629617463.7695
)
;

boundaryField
{
    electrode
    {
        type            driftDiffusionElectronDensity;
        seec            0.05;
        Edepend         1;
        field_emission  0;
        field_enhancement_factor 55;
        work_function   5;
        value           uniform 6.16659941339682e+16;
    }
    ground
    {
        type            driftDiffusionElectronDensity;
        seec            0.05;
        Edepend         1;
        field_emission  0;
        field_enhancement_factor 55;
        work_function   5;
        value           uniform 42113499691.3081;
    }
    otherfaces
    {
        type            empty;
    }
}


// ************************************************************************* //
