/*--------------------------------*- C++ -*----------------------------------*\
| =========                 |                                                 |
| \\      /  F ield         | foam-extend: Open Source CFD                    |
|  \\    /   O peration     | Version:     4.0                                |
|   \\  /    A nd           | Web:         http://www.foam-extend.org         |
|    \\/     M anipulation  |                                                 |
\*---------------------------------------------------------------------------*/
FoamFile
{
    version     2.0;
    format      ascii;
    class       volVectorField;
    location    "2e-07";
    object      J_Arp1;
}
// * * * * * * * * * * * * * * * * * * * * * * * * * * * * * * * * * * * * * //

dimensions      [1 -1 -1 0 0 0 0];

internalField   nonuniform List<vector> 
300
(
(1.37222605980804e+15 -0 -0)
(4.97455403306348e+16 -0 -0)
(1.05953719983196e+17 -0 -0)
(1.34280366855658e+17 -0 -0)
(1.76470048880845e+17 -0 -0)
(2.22712042688653e+17 -0 -0)
(2.69252716106096e+17 -0 -0)
(3.18278727336852e+17 -0 -0)
(3.70069486541756e+17 -0 -0)
(4.24478590506516e+17 -0 -0)
(4.81386845536432e+17 -0 -0)
(5.40638511563151e+17 -0 -0)
(6.0203538702683e+17 -0 -0)
(6.65326025320598e+17 -0 -0)
(7.30234406058643e+17 -0 -0)
(7.96468033941882e+17 -0 -0)
(8.63725592178111e+17 -0 -0)
(9.31706184204537e+17 -0 -0)
(1.00011798842284e+18 -0 -0)
(1.06868299654838e+18 -0 -0)
(1.13714156885398e+18 -0 -0)
(1.20525569784029e+18 -0 -0)
(1.27280970918524e+18 -0 -0)
(1.33961615105573e+18 -0 -0)
(1.40550840436556e+18 -0 -0)
(1.47034350352193e+18 -0 -0)
(1.53400605774659e+18 -0 -0)
(1.59639817066186e+18 -0 -0)
(1.65744005217635e+18 -0 -0)
(1.71707668047364e+18 -0 -0)
(1.77526531569426e+18 -0 -0)
(1.83197260468866e+18 -0 -0)
(1.88718407928199e+18 -0 -0)
(1.94089502713197e+18 -0 -0)
(1.99310675625525e+18 -0 -0)
(2.04382995349582e+18 -0 -0)
(2.09308118460913e+18 -0 -0)
(2.14088093942414e+18 -0 -0)
(2.18725452511251e+18 -0 -0)
(2.23223050664085e+18 -0 -0)
(2.27583773495759e+18 -0 -0)
(2.31810732799581e+18 -0 -0)
(2.35907170780087e+18 -0 -0)
(2.39876274018443e+18 -0 -0)
(2.43721223940582e+18 -0 -0)
(2.47445182023115e+18 -0 -0)
(2.51051221989554e+18 -0 -0)
(2.54542359199138e+18 -0 -0)
(2.57921398301511e+18 -0 -0)
(2.61191427728862e+18 -0 -0)
(2.64354978952546e+18 -0 -0)
(2.67414845103267e+18 -0 -0)
(2.70373611919807e+18 -0 -0)
(2.73233881665918e+18 -0 -0)
(2.75998324253084e+18 -0 -0)
(2.78669522047605e+18 -0 -0)
(2.81250182340202e+18 -0 -0)
(2.83742911284414e+18 -0 -0)
(2.86150415780922e+18 -0 -0)
(2.88475468428106e+18 -0 -0)
(2.90720797923749e+18 -0 -0)
(2.92888869408272e+18 -0 -0)
(2.94982865028463e+18 -0 -0)
(2.97005693861658e+18 -0 -0)
(2.98959448083788e+18 -0 -0)
(3.00847048949955e+18 -0 -0)
(3.02671441140258e+18 -0 -0)
(3.04435128105384e+18 -0 -0)
(3.0614067666886e+18 -0 -0)
(3.07790440687992e+18 -0 -0)
(3.09387094807486e+18 -0 -0)
(3.10933268797393e+18 -0 -0)
(3.12430713162325e+18 -0 -0)
(3.13881753776396e+18 -0 -0)
(3.15289129108325e+18 -0 -0)
(3.16654710731696e+18 -0 -0)
(3.17980679780993e+18 -0 -0)
(3.19268656272678e+18 -0 -0)
(3.20521840406669e+18 -0 -0)
(3.2174202033426e+18 -0 -0)
(3.22931100564813e+18 -0 -0)
(3.24092070311622e+18 -0 -0)
(3.25227052783652e+18 -0 -0)
(3.26338982633492e+18 -0 -0)
(3.2743066845202e+18 -0 -0)
(3.28504569348039e+18 -0 -0)
(3.29563793327244e+18 -0 -0)
(3.30611906417694e+18 -0 -0)
(3.31652026167175e+18 -0 -0)
(3.32687109018096e+18 -0 -0)
(3.33722041495985e+18 -0 -0)
(3.34759847603536e+18 -0 -0)
(3.3580419114542e+18 -0 -0)
(3.36859921884729e+18 -0 -0)
(3.37931294793359e+18 -0 -0)
(3.39022910024543e+18 -0 -0)
(3.40139477181981e+18 -0 -0)
(3.41286079016347e+18 -0 -0)
(3.42468100467752e+18 -0 -0)
(3.43690851379657e+18 -0 -0)
(3.44959621518038e+18 -0 -0)
(3.46281182062773e+18 -0 -0)
(3.47661075536913e+18 -0 -0)
(3.49105426197841e+18 -0 -0)
(3.50621512650077e+18 -0 -0)
(3.52215654143068e+18 -0 -0)
(3.53895452794149e+18 -0 -0)
(3.55668360169842e+18 -0 -0)
(3.57541908309e+18 -0 -0)
(3.59524559188729e+18 -0 -0)
(3.61624751053407e+18 -0 -0)
(3.63851596021385e+18 -0 -0)
(3.66214633708536e+18 -0 -0)
(3.68723135858981e+18 -0 -0)
(3.713878925812e+18 -0 -0)
(3.74220161535087e+18 -0 -0)
(3.77230783736957e+18 -0 -0)
(3.8043181418e+18 -0 -0)
(3.83836055461026e+18 -0 -0)
(3.87457550211605e+18 -0 -0)
(3.9130982676463e+18 -0 -0)
(3.95408642447373e+18 -0 -0)
(3.99769963191683e+18 -0 -0)
(4.04410105775943e+18 -0 -0)
(4.09347152712714e+18 -0 -0)
(4.14600901208166e+18 -0 -0)
(4.20190883577215e+18 -0 -0)
(4.26138311871635e+18 -0 -0)
(4.32465750591182e+18 -0 -0)
(4.39196803470159e+18 -0 -0)
(4.46356110127668e+18 -0 -0)
(4.53969142841028e+18 -0 -0)
(4.62062377920224e+18 -0 -0)
(4.70664859915541e+18 -0 -0)
(4.79804461801982e+18 -0 -0)
(4.89509763254772e+18 -0 -0)
(4.99811240799403e+18 -0 -0)
(5.1074007412376e+18 -0 -0)
(5.22326027834102e+18 -0 -0)
(5.34599400276553e+18 -0 -0)
(5.47590547499843e+18 -0 -0)
(5.61328312237044e+18 -0 -0)
(5.75840686577862e+18 -0 -0)
(5.91152483625735e+18 -0 -0)
(6.07286408241468e+18 -0 -0)
(6.24268289479781e+18 -0 -0)
(6.42115888871497e+18 -0 -0)
(6.60842841149332e+18 -0 -0)
(6.8046589390645e+18 -0 -0)
(7.00991715461373e+18 -0 -0)
(7.22419244047795e+18 -0 -0)
(7.44744483469867e+18 -0 -0)
(7.67949210335092e+18 -0 -0)
(7.92009206237955e+18 -0 -0)
(8.16889552380203e+18 -0 -0)
(8.42544919240633e+18 -0 -0)
(8.6891762930839e+18 -0 -0)
(8.95933938780864e+18 -0 -0)
(9.23514372045098e+18 -0 -0)
(9.51564598049113e+18 -0 -0)
(9.79964195520791e+18 -0 -0)
(1.00859228385858e+19 -0 -0)
(1.03738361227066e+19 -0 -0)
(1.06610608774712e+19 -0 -0)
(1.09403432603505e+19 -0 -0)
(1.1218139290617e+19 -0 -0)
(1.15147665808078e+19 -0 -0)
(1.17925386149473e+19 -0 -0)
(1.20572184218636e+19 -0 -0)
(1.23287448965045e+19 -0 -0)
(1.26142724253885e+19 -0 -0)
(1.28850809676556e+19 -0 -0)
(1.31118746167815e+19 -0 -0)
(1.33875433302908e+19 -0 -0)
(1.36173905619886e+19 -0 -0)
(1.38375665260923e+19 -0 -0)
(1.40822525481943e+19 -0 -0)
(1.42597610374686e+19 -0 -0)
(1.45190507346017e+19 -0 -0)
(1.46437425835963e+19 -0 -0)
(1.49314566476791e+19 -0 -0)
(1.50596952659866e+19 -0 -0)
(1.53174990799105e+19 -0 -0)
(1.53951975047805e+19 -0 -0)
(1.56435323084716e+19 -0 -0)
(1.59841693568251e+19 -0 -0)
(1.58134200027615e+19 -0 -0)
(1.59062599853891e+19 -0 -0)
(1.63369260422329e+19 -0 -0)
(1.65119749991446e+19 -0 -0)
(1.63029098476194e+19 -0 -0)
(1.62068994178747e+19 -0 -0)
(1.64401361138819e+19 -0 -0)
(1.66037648825193e+19 -0 -0)
(1.64780408751142e+19 -0 -0)
(1.64034434213402e+19 -0 -0)
(1.62982741617848e+19 -0 -0)
(1.6103461528353e+19 -0 -0)
(1.60479920114374e+19 -0 -0)
(1.6130758084953e+19 -0 -0)
(1.60711728391041e+19 -0 -0)
(1.59180233555521e+19 -0 -0)
(1.57041022110706e+19 -0 -0)
(1.54939762469294e+19 -0 -0)
(1.52731719194141e+19 -0 -0)
(1.50200110687042e+19 -0 -0)
(1.48211161693148e+19 -0 -0)
(1.46353999036148e+19 -0 -0)
(1.44047101123726e+19 -0 -0)
(1.42174793700692e+19 -0 -0)
(1.40238536901839e+19 -0 -0)
(1.37816067848094e+19 -0 -0)
(1.35414894766529e+19 -0 -0)
(1.32960422750568e+19 -0 -0)
(1.30416778017519e+19 -0 -0)
(1.27805446755037e+19 -0 -0)
(1.25182240099258e+19 -0 -0)
(1.22611476268221e+19 -0 -0)
(1.20132405863797e+19 -0 -0)
(1.17748437690756e+19 -0 -0)
(1.1545746117327e+19 -0 -0)
(1.13223640930045e+19 -0 -0)
(1.11032160740372e+19 -0 -0)
(1.08862694446176e+19 -0 -0)
(1.0669253737263e+19 -0 -0)
(1.04547423891773e+19 -0 -0)
(1.0238456463311e+19 -0 -0)
(1.00233403132537e+19 -0 -0)
(9.80967229092584e+18 -0 -0)
(9.59608165697032e+18 -0 -0)
(9.38391594321519e+18 -0 -0)
(9.1728353159134e+18 -0 -0)
(8.9650856582311e+18 -0 -0)
(8.75968451020605e+18 -0 -0)
(8.55738616172229e+18 -0 -0)
(8.35874278979016e+18 -0 -0)
(8.16411521753238e+18 -0 -0)
(7.97323352287112e+18 -0 -0)
(7.78543333048946e+18 -0 -0)
(7.60096223780717e+18 -0 -0)
(7.42052944790021e+18 -0 -0)
(7.24385710258435e+18 -0 -0)
(7.07134632504078e+18 -0 -0)
(6.90233057645654e+18 -0 -0)
(6.7370944526165e+18 -0 -0)
(6.57550367298129e+18 -0 -0)
(6.41794748073431e+18 -0 -0)
(6.26466309917237e+18 -0 -0)
(6.11577706978329e+18 -0 -0)
(5.97125249076723e+18 -0 -0)
(5.83062218631838e+18 -0 -0)
(5.69395921953009e+18 -0 -0)
(5.5607422010022e+18 -0 -0)
(5.43112415438939e+18 -0 -0)
(5.30467511883211e+18 -0 -0)
(5.18160342747785e+18 -0 -0)
(5.06144646339849e+18 -0 -0)
(4.94435945466408e+18 -0 -0)
(4.83021890467947e+18 -0 -0)
(4.71896330997481e+18 -0 -0)
(4.61063205844326e+18 -0 -0)
(4.50508073194516e+18 -0 -0)
(4.4025797322855e+18 -0 -0)
(4.30294882311236e+18 -0 -0)
(4.20617917454168e+18 -0 -0)
(4.11220232673162e+18 -0 -0)
(4.02096893809154e+18 -0 -0)
(3.93247544425256e+18 -0 -0)
(3.8467524431311e+18 -0 -0)
(3.76372594492039e+18 -0 -0)
(3.68337074778361e+18 -0 -0)
(3.60535567684892e+18 -0 -0)
(3.52969372741215e+18 -0 -0)
(3.45647815761402e+18 -0 -0)
(3.38551374401681e+18 -0 -0)
(3.31669783394065e+18 -0 -0)
(3.25030679964799e+18 -0 -0)
(3.18597771512595e+18 -0 -0)
(3.12390078269164e+18 -0 -0)
(3.06410848497275e+18 -0 -0)
(3.00683723233893e+18 -0 -0)
(2.95084539602169e+18 -0 -0)
(2.8983860168406e+18 -0 -0)
(2.84548101785393e+18 -0 -0)
(2.79781842283758e+18 -0 -0)
(2.74659135738376e+18 -0 -0)
(2.704322805839e+18 -0 -0)
(2.6555770006684e+18 -0 -0)
(2.61815071610281e+18 -0 -0)
(2.57226434045941e+18 -0 -0)
(2.53848895539697e+18 -0 -0)
(2.49513048479206e+18 -0 -0)
(2.46564195816174e+18 -0 -0)
(2.42412541124817e+18 -0 -0)
(2.39882083085312e+18 -0 -0)
(2.35939280595592e+18 -0 -0)
(2.33793985389099e+18 -0 -0)
(2.30012695934966e+18 -0 -0)
(2.28262815233075e+18 -0 -0)
(2.23906080334707e+18 -0 -0)
)
;

boundaryField
{
    electrode
    {
        type            calculated;
        value           uniform (-203330732504.773 -0 -0);
    }
    ground
    {
        type            calculated;
        value           uniform (2.23964910547034e+18 -0 -0);
    }
    otherfaces
    {
        type            empty;
    }
}


// ************************************************************************* //
