/*--------------------------------*- C++ -*----------------------------------*\
| =========                 |                                                 |
| \\      /  F ield         | foam-extend: Open Source CFD                    |
|  \\    /   O peration     | Version:     4.0                                |
|   \\  /    A nd           | Web:         http://www.foam-extend.org         |
|    \\/     M anipulation  |                                                 |
\*---------------------------------------------------------------------------*/
FoamFile
{
    version     2.0;
    format      ascii;
    class       volVectorField;
    location    "2e-07";
    object      J_electron;
}
// * * * * * * * * * * * * * * * * * * * * * * * * * * * * * * * * * * * * * //

dimensions      [1 -1 -1 0 0 0 0];

internalField   nonuniform List<vector> 
300
(
(-3.59646830503412e+18 0 0)
(-6.99239883327416e+18 0 0)
(-1.16593253320038e+19 0 0)
(-7.60349198917616e+18 0 0)
(-8.30940876749667e+18 0 0)
(-8.68268399768078e+18 0 0)
(-8.44761334693498e+18 0 0)
(-8.3518711309581e+18 0 0)
(-8.30928973619872e+18 0 0)
(-8.27186345528426e+18 0 0)
(-8.23900599292487e+18 0 0)
(-8.21050763739857e+18 0 0)
(-8.18751592063101e+18 0 0)
(-8.16686223591047e+18 0 0)
(-8.14734263191693e+18 0 0)
(-8.12794872767886e+18 0 0)
(-8.10758926982952e+18 0 0)
(-8.08527278134913e+18 0 0)
(-8.06047443412622e+18 0 0)
(-8.03277251122286e+18 0 0)
(-8.0019063091335e+18 0 0)
(-7.96789280840168e+18 0 0)
(-7.93034259014576e+18 0 0)
(-7.89008288937935e+18 0 0)
(-7.84713196309604e+18 0 0)
(-7.80117502829868e+18 0 0)
(-7.75345842477623e+18 0 0)
(-7.70410490468185e+18 0 0)
(-7.65263104455816e+18 0 0)
(-7.60036485456029e+18 0 0)
(-7.54790686260003e+18 0 0)
(-7.49431896231327e+18 0 0)
(-7.44056486592145e+18 0 0)
(-7.38724231049852e+18 0 0)
(-7.33406113288526e+18 0 0)
(-7.2813988428086e+18 0 0)
(-7.22953620768791e+18 0 0)
(-7.17841185772169e+18 0 0)
(-7.12820723915607e+18 0 0)
(-7.07924205154913e+18 0 0)
(-7.03136089488543e+18 0 0)
(-6.98459798861775e+18 0 0)
(-6.93918708373363e+18 0 0)
(-6.89505537732221e+18 0 0)
(-6.85220480880083e+18 0 0)
(-6.81067577393257e+18 0 0)
(-6.77043808176308e+18 0 0)
(-6.73156128025503e+18 0 0)
(-6.69363706252073e+18 0 0)
(-6.65726207619524e+18 0 0)
(-6.6219265397875e+18 0 0)
(-6.58764160529832e+18 0 0)
(-6.5545404037118e+18 0 0)
(-6.52220386467486e+18 0 0)
(-6.49098867894885e+18 0 0)
(-6.46051376102611e+18 0 0)
(-6.43103408080395e+18 0 0)
(-6.40231170455241e+18 0 0)
(-6.3743353523279e+18 0 0)
(-6.34722278240079e+18 0 0)
(-6.32108720151803e+18 0 0)
(-6.29508214883195e+18 0 0)
(-6.26992057159254e+18 0 0)
(-6.24642810236319e+18 0 0)
(-6.22285912344284e+18 0 0)
(-6.19969840763319e+18 0 0)
(-6.17774243120677e+18 0 0)
(-6.15637675008564e+18 0 0)
(-6.13576294037035e+18 0 0)
(-6.11546107235743e+18 0 0)
(-6.09569390081684e+18 0 0)
(-6.07735450307894e+18 0 0)
(-6.05907988099367e+18 0 0)
(-6.04065834820567e+18 0 0)
(-6.02355979801723e+18 0 0)
(-6.00681424461208e+18 0 0)
(-5.99065398994325e+18 0 0)
(-5.97369538563408e+18 0 0)
(-5.95776598519054e+18 0 0)
(-5.94275625747638e+18 0 0)
(-5.926428461825e+18 0 0)
(-5.91115561062629e+18 0 0)
(-5.89545377324728e+18 0 0)
(-5.87974883341133e+18 0 0)
(-5.86468801311015e+18 0 0)
(-5.84897703951021e+18 0 0)
(-5.83276083827048e+18 0 0)
(-5.81692902230118e+18 0 0)
(-5.80123368019067e+18 0 0)
(-5.78371230994111e+18 0 0)
(-5.76727727851622e+18 0 0)
(-5.75087687438146e+18 0 0)
(-5.73240195211225e+18 0 0)
(-5.71432682999697e+18 0 0)
(-5.69567935925584e+18 0 0)
(-5.67641557322695e+18 0 0)
(-5.65639231463568e+18 0 0)
(-5.63546806086166e+18 0 0)
(-5.61407882579306e+18 0 0)
(-5.59200902705814e+18 0 0)
(-5.5679583624752e+18 0 0)
(-5.54382877524204e+18 0 0)
(-5.51893502064067e+18 0 0)
(-5.49152215038165e+18 0 0)
(-5.46393832472052e+18 0 0)
(-5.43438896506628e+18 0 0)
(-5.40325052219182e+18 0 0)
(-5.37111864306093e+18 0 0)
(-5.3364761447136e+18 0 0)
(-5.30019649891284e+18 0 0)
(-5.26175583986149e+18 0 0)
(-5.22097983170806e+18 0 0)
(-5.17851794844156e+18 0 0)
(-5.13269797168506e+18 0 0)
(-5.08379629079547e+18 0 0)
(-5.03310665733951e+18 0 0)
(-4.97883042238589e+18 0 0)
(-4.92066034007985e+18 0 0)
(-4.85851930967776e+18 0 0)
(-4.79320482963731e+18 0 0)
(-4.72302102219168e+18 0 0)
(-4.64807578637749e+18 0 0)
(-4.56944270693263e+18 0 0)
(-4.48458176263828e+18 0 0)
(-4.39341380606938e+18 0 0)
(-4.29731426041384e+18 0 0)
(-4.19499508855787e+18 0 0)
(-4.08523674821172e+18 0 0)
(-3.96870678178221e+18 0 0)
(-3.84480168649897e+18 0 0)
(-3.71340668087304e+18 0 0)
(-3.57378793024625e+18 0 0)
(-3.42436169760375e+18 0 0)
(-3.26724578248386e+18 0 0)
(-3.10205255709413e+18 0 0)
(-2.92553476837789e+18 0 0)
(-2.73864468158638e+18 0 0)
(-2.54297516721622e+18 0 0)
(-2.33708442326978e+18 0 0)
(-2.11961954380441e+18 0 0)
(-1.89195375938319e+18 0 0)
(-1.65340356318226e+18 0 0)
(-1.40247361921011e+18 0 0)
(-1.14453855925856e+18 0 0)
(-7.75453838671872e+17 0 0)
(-5.69231074026062e+17 0 0)
(-2.89092394507829e+17 0 0)
(2.46862619072266e+16 0 0)
(3.48553106524471e+17 0 0)
(6.81633163932336e+17 0 0)
(1.02929376257717e+18 0 0)
(1.38602481818848e+18 0 0)
(1.75222733134941e+18 0 0)
(2.13181599610883e+18 0 0)
(2.52265740236646e+18 0 0)
(2.92530910622279e+18 0 0)
(3.33887295209341e+18 0 0)
(3.77001825537517e+18 0 0)
(4.22076212156092e+18 0 0)
(4.68389558673107e+18 0 0)
(5.17524608623156e+18 0 0)
(5.72655292784522e+18 0 0)
(6.24243904148931e+18 0 0)
(6.61519199929526e+18 0 0)
(7.80100780022353e+18 0 0)
(1.06065752802575e+19 0 0)
(1.29888336278402e+19 0 0)
(1.39360888109966e+19 0 0)
(1.58662781803157e+19 0 0)
(1.92176431226054e+19 0 0)
(2.11573185560728e+19 0 0)
(2.0921340778978e+19 0 0)
(2.12097446414626e+19 0 0)
(2.09018162945878e+19 0 0)
(1.89731300058333e+19 0 0)
(1.65744434641885e+19 0 0)
(1.32606519437867e+19 0 0)
(9.51900238447116e+18 0 0)
(6.09129991694293e+18 0 0)
(4.98594638401949e+18 0 0)
(6.60783691758096e+18 0 0)
(1.16646977478999e+19 0 0)
(2.06505737734544e+19 0 0)
(3.4244265204022e+19 0 0)
(4.94697731122507e+19 0 0)
(6.09252579181771e+19 0 0)
(7.00885285238242e+19 0 0)
(7.52727473765068e+19 0 0)
(7.26966490404429e+19 0 0)
(6.41366216251739e+19 0 0)
(5.28314999612926e+19 0 0)
(4.02595383621492e+19 0 0)
(2.84403237909529e+19 0 0)
(1.80330441480325e+19 0 0)
(1.03048348252428e+19 0 0)
(6.41513109902025e+18 0 0)
(2.20039898404522e+18 0 0)
(1.13875330774815e+18 0 0)
(-1.73244150341929e+16 0 0)
(-1.50850377959838e+17 0 0)
(-2.86746272226828e+17 0 0)
(-3.82393763278547e+17 0 0)
(-4.46816470835497e+17 0 0)
(-4.82023009906491e+17 0 0)
(-4.97552810225518e+17 0 0)
(-5.02685299422971e+17 0 0)
(-5.01184973483891e+17 0 0)
(-4.96112697057115e+17 0 0)
(-4.89956979479327e+17 0 0)
(-4.84169754571142e+17 0 0)
(-4.78016189983506e+17 0 0)
(-4.71590295799647e+17 0 0)
(-4.64823352741415e+17 0 0)
(-4.57855749089481e+17 0 0)
(-4.50715094175648e+17 0 0)
(-4.43437438376871e+17 0 0)
(-4.36050763600576e+17 0 0)
(-4.28526450628863e+17 0 0)
(-4.20884387885762e+17 0 0)
(-4.13385464329753e+17 0 0)
(-4.05945471550069e+17 0 0)
(-3.98382200737017e+17 0 0)
(-3.90840290332355e+17 0 0)
(-3.83323795970442e+17 0 0)
(-3.75853999203129e+17 0 0)
(-3.68442875631636e+17 0 0)
(-3.61102105233585e+17 0 0)
(-3.53841494549108e+17 0 0)
(-3.46670131876061e+17 0 0)
(-3.39595693805741e+17 0 0)
(-3.32625090652341e+17 0 0)
(-3.2576392624508e+17 0 0)
(-3.19016395404359e+17 0 0)
(-3.12386552248021e+17 0 0)
(-3.05877698120861e+17 0 0)
(-2.99492837800585e+17 0 0)
(-2.93233072259722e+17 0 0)
(-2.87093635861753e+17 0 0)
(-2.81088503807386e+17 0 0)
(-2.75211299769865e+17 0 0)
(-2.69453776428433e+17 0 0)
(-2.63824676060551e+17 0 0)
(-2.58319616446532e+17 0 0)
(-2.52937734314583e+17 0 0)
(-2.47677187333048e+17 0 0)
(-2.42536179278243e+17 0 0)
(-2.37512680861082e+17 0 0)
(-2.32604558421409e+17 0 0)
(-2.27809569925305e+17 0 0)
(-2.23125391437395e+17 0 0)
(-2.18549617511328e+17 0 0)
(-2.14079804305307e+17 0 0)
(-2.09713479459826e+17 0 0)
(-2.0544816426657e+17 0 0)
(-2.01281376611773e+17 0 0)
(-1.97210649212852e+17 0 0)
(-1.93233546890566e+17 0 0)
(-1.89347649334479e+17 0 0)
(-1.85550584029903e+17 0 0)
(-1.81840013776012e+17 0 0)
(-1.78213656109392e+17 0 0)
(-1.74669266312181e+17 0 0)
(-1.71204657030144e+17 0 0)
(-1.67817699155797e+17 0 0)
(-1.64506307488891e+17 0 0)
(-1.61268457171859e+17 0 0)
(-1.58102168613525e+17 0 0)
(-1.55005527966918e+17 0 0)
(-1.51976604217705e+17 0 0)
(-1.49013729203287e+17 0 0)
(-1.46113864627707e+17 0 0)
(-1.43278081439886e+17 0 0)
(-1.40478138122519e+17 0 0)
(-1.37802916548695e+17 0 0)
(-1.35153991299731e+17 0 0)
(-1.32566551057839e+17 0 0)
(-1.30035288564385e+17 0 0)
(-1.27561033234367e+17 0 0)
(-1.25142226810938e+17 0 0)
(-1.22777211031863e+17 0 0)
(-1.20464154718598e+17 0 0)
(-1.18192796107456e+17 0 0)
(-1.15963551178831e+17 0 0)
(-1.13848594499794e+17 0 0)
(-1.11747473076356e+17 0 0)
(-1.09697881059103e+17 0 0)
(-1.07698652567824e+17 0 0)
(-1.05713014424695e+17 0 0)
(-1.03842297090147e+17 0 0)
(-1.02022082617814e+17 0 0)
(-1.0023621015926e+17 0 0)
(-9.84423203416726e+16 0 0)
(-9.68510157066446e+16 0 0)
(-9.52061195510897e+16 0 0)
(-9.36925842275785e+16 0 0)
(-9.22264990041074e+16 0 0)
(-9.09806468317178e+16 0 0)
(-8.97688653493977e+16 0 0)
(-8.86796075324743e+16 0 0)
(-8.70859791467232e+16 0 0)
)
;

boundaryField
{
    electrode
    {
        type            calculated;
        value           uniform (-9.09540694887221e+18 0 0);
    }
    ground
    {
        type            calculated;
        value           uniform (-8.68394738199849e+16 0 0);
    }
    otherfaces
    {
        type            empty;
    }
}


// ************************************************************************* //
