/*--------------------------------*- C++ -*----------------------------------*\
| =========                 |                                                 |
| \\      /  F ield         | foam-extend: Open Source CFD                    |
|  \\    /   O peration     | Version:     4.0                                |
|   \\  /    A nd           | Web:         http://www.foam-extend.org         |
|    \\/     M anipulation  |                                                 |
\*---------------------------------------------------------------------------*/
FoamFile
{
    version     2.0;
    format      ascii;
    class       volScalarField;
    location    "2e-07";
    object      N_electronMean;
}
// * * * * * * * * * * * * * * * * * * * * * * * * * * * * * * * * * * * * * //

dimensions      [0 0 0 1 0 0 0];

internalField   nonuniform List<scalar> 
300
(
5.97333223189229e+16
5.97448462727891e+16
5.97581876203708e+16
5.97688465994773e+16
5.97766897059653e+16
5.97810469564983e+16
5.97813871890498e+16
5.97773586097504e+16
5.97686880008695e+16
5.97551673879343e+16
5.97366460179639e+16
5.97130239482568e+16
5.96842435621335e+16
5.96502824205487e+16
5.96111476768048e+16
5.95668708457111e+16
5.95175033400857e+16
5.94631127142459e+16
5.940377931158e+16
5.9339593350586e+16
5.92706525619111e+16
5.91970602226869e+16
5.91189234989679e+16
5.90363520197851e+16
5.89494571595773e+16
5.88583517488067e+16
5.87631491502695e+16
5.86639624684852e+16
5.85609041583435e+16
5.8454085288613e+16
5.83436156452467e+16
5.82296047889707e+16
5.81121616828372e+16
5.79913932233029e+16
5.78674035780104e+16
5.774029402445e+16
5.76101628591248e+16
5.74771054217371e+16
5.73412139760029e+16
5.72025775739442e+16
5.70612822021403e+16
5.691741087061e+16
5.67710434069395e+16
5.66222563544321e+16
5.64711230598608e+16
5.63177137862569e+16
5.61620958916051e+16
5.60043341301451e+16
5.58444911845676e+16
5.56826284734532e+16
5.55188075380074e+16
5.53530914121048e+16
5.51855450282082e+16
5.50162347335263e+16
5.48452270307462e+16
5.46725872202009e+16
5.44983783889614e+16
5.43226608702763e+16
5.41454920780317e+16
5.39669263859256e+16
5.37870151251879e+16
5.36058066105552e+16
5.34233460833722e+16
5.32396766256391e+16
5.3054841033457e+16
5.28688817070411e+16
5.26818387422989e+16
5.2493749094128e+16
5.23046466569223e+16
5.21145623390384e+16
5.19235240997451e+16
5.173155752102e+16
5.15386872099499e+16
5.13449371836157e+16
5.11503302291387e+16
5.0954888831511e+16
5.07586366968382e+16
5.05615987810937e+16
5.03637999565191e+16
5.01652645316503e+16
4.99660167707384e+16
4.97660794822837e+16
4.95654726497104e+16
4.93642134189812e+16
4.91623166466441e+16
4.89597960231714e+16
4.87566638048905e+16
4.85529294885931e+16
4.83485995946791e+16
4.81436782030918e+16
4.7938166921496e+16
4.77320661279434e+16
4.75253763187795e+16
4.73180961893366e+16
4.71102208007712e+16
4.69017414527626e+16
4.66926456197855e+16
4.64829168529127e+16
4.62725346776981e+16
4.60614748213801e+16
4.58497092987858e+16
4.56372058668604e+16
4.54239285102678e+16
4.52098383974544e+16
4.49948929968107e+16
4.47790455119748e+16
4.4562244943879e+16
4.43444358359219e+16
4.41255584129615e+16
4.39055478036799e+16
4.36843329166086e+16
4.34618359879676e+16
4.32379725338895e+16
4.30126517459113e+16
4.27857762550601e+16
4.25572419650495e+16
4.23269392955017e+16
4.20947533284612e+16
4.18605618315546e+16
4.16242335055544e+16
4.13856280024119e+16
4.11445965046833e+16
4.09009820631879e+16
4.06546199866013e+16
4.04053360769767e+16
4.01529435221576e+16
3.98972417078203e+16
3.96380157127599e+16
3.93750345676846e+16
3.91080497098974e+16
3.88367941718333e+16
3.85609816220954e+16
3.82803048523983e+16
3.79944341935339e+16
3.77030179373219e+16
3.7405683068564e+16
3.71020324605104e+16
3.67916414047394e+16
3.64740568294699e+16
3.61487963741131e+16
3.58153452304221e+16
3.54731530695798e+16
3.51216321313348e+16
3.47601560869633e+16
3.43880603252676e+16
3.40046412775947e+16
3.36091530269174e+16
3.3200803389239e+16
3.27787501319112e+16
3.23420998745993e+16
3.18899089239498e+16
3.14211811675696e+16
3.0934866991275e+16
3.04298635221656e+16
2.99050124566132e+16
2.93590996984059e+16
2.87908576283363e+16
2.81989668417046e+16
2.75820553976606e+16
2.6938698419148e+16
2.62674185561906e+16
2.55666772164284e+16
2.4834857296353e+16
2.40702394133308e+16
2.32709196564971e+16
2.24346275808761e+16
2.15586400949423e+16
2.06399805444671e+16
1.96756688315863e+16
1.86628876968846e+16
1.75993398354527e+16
1.64838989233588e+16
1.53173020867829e+16
1.41027749405415e+16
1.28467347394071e+16
1.15594614479964e+16
1.02555194059562e+16
8.95380862663222e+15
7.67704923721925e+15
6.4505369899937e+15
5.30019125932164e+15
4.2500968770861e+15
3.31987910223206e+15
2.52239697675557e+15
1.86228618135864e+15
1.33578738170686e+15
931816619134476
633921458641699
422832585081522
279029513683394
184699319190609
124911999073131
88060143762102.5
65744989285645.5
52145397933712.5
43655332383323.9
38098426025044.3
34308357255277.5
31669304364184.1
29749030097592.6
28233084918230.1
26939520600599.6
25780002099019.4
24712717193773.8
23716348056014.7
22778607516161.1
21891549177241
21049647200269.2
20248683633356.9
19485208354625.7
18756314942231.8
18059487564424.7
17392535382822.3
16753535271877.8
16140766879715.8
15552672814342.9
14987847993904.1
14445022306491.9
13923025543229.3
13420802160907.1
12937369514201.9
12471811755247.5
12023284300669
11591014894663.1
11174276645213.1
10772391489441.4
10384730531822.9
10010696674937.7
9649735050748.64
9301320434883.72
8964949760542.35
8640160146123.95
8326501741789.77
8023548445344.67
7730904469235.7
7448189006638.65
7175032884828.19
6911096718170.15
6656045874522.87
6409560748849.45
6171346012153.53
5941112015879.4
5718593713298.52
5503534084229.98
5295685487636.05
5094816634001.94
4900699111765.08
4713115723006.59
4531851468186.34
4356701076300.99
4187467932370.78
4023956675713.26
3865980306951.24
3713353449019.63
3565901947219.34
3423465098935.68
3285886864326.61
3153019199286.13
3024723115915.12
2900860434452.07
2781301136601.69
2665912581864.43
2554566483181.93
2447131194129.38
2343479161456.31
2243493566528.59
2147062921277.35
2054084068067.1
1964454817521.56
1878080516155.34
1794863638216.19
1714707006947.51
1637512837620.15
1563192883374.23
1491662079660.18
1422839453883.53
1356645350073.16
1292997760882.32
1231819412284.74
1173038163981.38
1116582987578.96
1062374208923.67
1010339743686.62
960418779342.381
912544634868.832
866653896744.166
822692098518.16
780599027434.758
740316785671.651
701795136755.11
664980268530.207
629815546441.176
596254389649.002
564257754897.296
533797479061.158
504850029962.236
477398487890.165
451343308139.972
427048008753.908
404177449522.04
)
;

boundaryField
{
    electrode
    {
        type            calculated;
        value           uniform 5.97333223248147e+16;
    }
    ground
    {
        type            calculated;
        value           uniform 393728973443.982;
    }
    otherfaces
    {
        type            empty;
    }
}


// ************************************************************************* //
