/*--------------------------------*- C++ -*----------------------------------*\
| =========                 |                                                 |
| \\      /  F ield         | foam-extend: Open Source CFD                    |
|  \\    /   O peration     | Version:     4.0                                |
|   \\  /    A nd           | Web:         http://www.foam-extend.org         |
|    \\/     M anipulation  |                                                 |
\*---------------------------------------------------------------------------*/
FoamFile
{
    version     2.0;
    format      ascii;
    class       volScalarField;
    location    "2e-07";
    object      Phi;
}
// * * * * * * * * * * * * * * * * * * * * * * * * * * * * * * * * * * * * * //

dimensions      [0 0 0 1 0 0 0];

internalField   nonuniform List<scalar> 
300
(
699.999961592656
699.999902207622
699.999423670933
699.998789396016
699.997963743628
699.99688849225
699.995565633214
699.993985770108
699.992133273632
699.98999325824
699.987551370471
699.984793956858
699.981708160405
699.978282279243
699.974505945718
699.970370233726
699.965867728766
699.960992557844
699.955740364826
699.950108251808
699.944094701566
699.937699472954
699.930923490411
699.923768723224
699.916238031697
699.908335098288
699.900064259999
699.891430400927
699.882438874068
699.873095391709
699.863405895577
699.853376548639
699.843013646146
699.832323523167
699.821312537095
699.809987023074
699.798353247855
699.786417392348
699.774185528464
699.761663594648
699.748857387609
699.735772564747
699.722414623479
699.70878890706
699.694900605138
699.680754755519
699.666356246029
699.651709821613
699.636820087674
699.621691521991
699.606328449443
699.590735103822
699.574915564449
699.558873819862
699.54261371768
699.526138997466
699.509453269833
699.492560022627
699.475462621235
699.458164298088
699.440668152025
699.422977154448
699.40509415687
699.387021823391
699.368762707384
699.350319257757
699.331693743031
699.312888298951
699.293904929841
699.27474550584
699.255411775166
699.235905323911
699.21622761489
699.196380030106
699.176363785163
699.156179954612
699.135829521969
699.115313330075
699.094632137021
699.073786450516
699.052776756869
699.031603343228
699.010266326309
698.988765686537
698.967101173273
698.945272373344
698.92327868372
698.901119257669
698.878792989716
698.856298561908
698.833634393085
698.810798506226
698.787788761591
698.764602627428
698.741237207823
698.717689252624
698.693955109087
698.670030718283
698.645911558745
698.621592633569
698.59706846675
698.572333063871
698.547379787129
698.522201514044
698.496790444952
698.47113809284
698.445235326007
698.419072192066
698.392637996699
698.365921196306
698.338909330378
698.311589002877
698.28394577102
698.255964117616
698.22762741195
698.198917709251
698.169815749372
698.14030090576
698.110351001891
698.0799422189
698.04904892688
698.017643681416
697.985696873189
697.953176747856
697.920049183965
697.886277433118
697.851821888748
697.816639997978
697.780685886365
697.743910127215
697.706259442899
697.667676412864
697.628099159333
697.587460951263
697.545689695599
697.502707788098
697.458431543843
697.412770616803
697.365627510816
697.316897172466
697.266466264609
697.214212523464
697.16000413515
697.103698891571
697.04514383846
696.984173660173
696.920609523415
696.854258899342
696.784913472092
696.712347386654
696.636316463371
696.556556373013
696.472780397251
696.384677893122
696.291911472841
696.194114215084
696.090886345502
695.981791519523
695.866352532194
695.744045185309
695.614292136793
695.47645627723
695.329828705557
695.173612273773
695.006931930442
694.828844536535
694.638142829794
694.433158750271
694.211955013092
693.972351180995
693.711543125215
693.425915643618
693.111296230214
692.762968328102
692.375179369567
691.941375657354
691.454047782585
690.904673494498
690.283839897318
689.581397751303
688.786823185877
687.889101467828
686.877600884714
685.742468195466
684.475599163896
683.068887146721
681.515228794777
679.813210208935
677.961851622042
675.957553842682
673.799810306308
671.493414865811
669.042435479436
666.44780177521
663.710934779054
660.835950282881
657.826825670724
654.687447830205
651.421972667169
648.033075912591
644.522113728266
640.891262480938
637.143822968541
633.283339940909
629.313072534626
625.236131989327
621.055653433931
616.774224074355
612.394198079106
607.918100567803
603.348048643318
598.686101485887
593.934718175254
589.096398852704
584.173576115976
579.168646437493
574.083963549276
568.921810566779
563.684367575955
558.373695138384
552.991739349218
547.540339370775
542.021254398533
536.436176859702
530.78674820739
525.074575386509
519.301218460341
513.468218154446
507.577080798933
501.629278885124
495.626260908025
489.569445439784
483.460267953272
477.300167459825
471.09054595036
464.832765964178
458.528149150576
452.177975831052
445.783487976991
439.345894218999
432.866369653974
426.346053074097
419.786049569548
413.187429327882
406.551232196896
399.878466968429
393.170112891468
386.427118297207
379.650400021364
372.840843387783
365.999303030328
359.12660596333
352.223551708456
345.290915550057
338.329448153324
331.339878248669
324.322911896773
317.279235278906
310.209514190307
303.114394988281
295.994505190395
288.850453526173
281.682830935095
274.492209380001
267.279143007723
260.044168396686
252.787805103006
245.510556093793
238.212907931358
230.895330771625
223.558278895615
216.202190978865
208.827491931328
201.434592943337
194.023891116759
186.595770576424
179.150603090962
171.688746745599
164.210547893316
156.716340258217
149.206444847137
141.681168819834
134.140811902129
126.585654942437
119.015980277236
111.43204277524
103.834114768133
96.2224223166669
88.5972238314254
80.9587195877861
73.3071523188206
65.6427027522499
57.9655997676351
50.2760014699328
42.5741264946484
34.8601109872762
27.1341621997572
19.3963961463093
11.6470111694804
3.88610260229329
)
;

boundaryField
{
    electrode
    {
        type            fixedValue;
        value           uniform 700;
    }
    ground
    {
        type            fixedValue;
        value           uniform 0;
    }
    otherfaces
    {
        type            empty;
    }
}


// ************************************************************************* //
