/*--------------------------------*- C++ -*----------------------------------*\
| =========                 |                                                 |
| \\      /  F ield         | foam-extend: Open Source CFD                    |
|  \\    /   O peration     | Version:     4.0                                |
|   \\  /    A nd           | Web:         http://www.foam-extend.org         |
|    \\/     M anipulation  |                                                 |
\*---------------------------------------------------------------------------*/
FoamFile
{
    version     2.0;
    format      ascii;
    class       volScalarField;
    location    "2e-07";
    object      PhiMean;
}
// * * * * * * * * * * * * * * * * * * * * * * * * * * * * * * * * * * * * * //

dimensions      [0 0 0 1 0 0 0];

internalField   nonuniform List<scalar> 
300
(
699.633566149165
699.602510103192
699.571014708263
699.539129504905
699.506927690718
699.4743184966
699.441265434761
699.407744811268
699.373737297418
699.339228812085
699.30420965732
699.268674357527
699.232620514982
699.196048366284
699.158960323759
699.121360536006
699.083254526015
699.044648930481
699.00555122471
698.96596948038
698.925912201582
698.885388176843
698.844406358344
698.80297574957
698.761105318202
698.718804186345
698.676081407361
698.632945923805
698.589406606285
698.545472111627
698.501150831017
698.456451288978
698.411382035494
698.36595133698
698.320167173435
698.274037235522
698.22756890656
698.180769306242
698.133645265408
698.086203284497
698.038449572034
697.990390083139
697.942030442831
697.893375947476
697.844431572148
697.795201976593
697.745691511773
697.695904253878
697.645844041983
697.595514602662
697.544919670539
697.494063348639
697.442949993106
697.391584320938
697.339971080625
697.288114958354
697.236020373879
697.183691453513
697.131132026664
697.078345598231
697.025335363252
696.972104204312
696.918654657347
696.864988922399
696.811109414361
696.75701872183
696.702719070259
696.648212315931
696.593499971617
696.538583208052
696.483462841248
696.428139322364
696.372613070768
696.316884571367
696.260954006401
696.204821509215
696.148487540979
696.091952752513
696.035217889516
695.978283353964
695.921149957926
695.86381818748
695.806288113184
695.748559461327
695.690631549793
695.632503728184
695.574175238961
695.515644873188
695.456910954051
695.397971566827
695.338824422889
695.279466886854
695.219896891675
695.160111938783
695.10010896238
695.03988437188
694.979434011312
694.918753187215
694.85783656389
694.796678267651
694.735271923389
694.673610475051
694.611686093597
694.54949083539
694.487016000024
694.424252158014
694.361189314286
694.297816549993
694.234122402937
694.170094516257
694.105719406116
694.040982444897
693.975867736661
693.910358282103
693.844435915347
693.778080986301
693.711272871827
693.643990079944
693.576209585888
693.50790651573
693.439054042917
693.369623806777
693.299585475928
693.228907337583
693.157555681331
693.085494026382
693.012682880499
692.939079956655
692.864639388011
692.789311500836
692.713042527818
692.63577438371
692.557444181113
692.477983606981
692.39731874285
692.31537066921
692.232054120776
692.147276341518
692.060936803026
691.972926948036
691.883128705369
691.791413375831
691.697640645458
691.601657499177
691.503297550494
691.402380298265
691.298708669893
691.192067142289
691.082218963057
690.968903740035
690.851836369429
690.73070304918
690.605157669355
690.474819248163
690.339265641628
690.198028705546
690.050588499859
689.896366404723
689.73471570992
689.564909841786
689.386130951479
689.19745160754
688.997809053172
688.785979138411
688.560534045836
688.31973843402
688.061417621395
687.782949380912
687.481237404865
687.152551788695
686.792425525586
686.395635663797
685.956191102118
685.467195896648
684.920821541645
684.308352422896
683.620206239704
682.846112980151
681.975334412268
680.997001441461
679.900461629526
678.675764772045
677.314077715853
675.808119240693
674.152298331103
672.342787107461
670.37799272595
668.25806240506
665.984085456402
663.558430296382
660.984796973445
658.267309980606
655.409937362742
652.416826557748
649.292391222557
646.040987595476
642.666629328666
639.173100365928
635.56393261463
631.842492836277
628.012241326233
624.07672773337
620.039398186673
615.903486479391
611.672021688267
607.347879081235
602.933766894555
598.432266691384
593.845935506445
589.177272825745
584.428728457492
579.602754327982
574.701753763278
569.728026757711
564.683772795871
559.571095814585
554.392007590927
549.14843322561
543.842217785782
538.475134166483
533.04889141166
527.565141167172
522.025484128988
516.431472963615
510.784616601966
505.086380727531
499.338190280656
493.541431197071
487.697449036503
481.80755296743
475.873014032074
469.895067704283
463.87493500382
457.813823965351
451.712905030172
445.573309314346
439.396128325293
433.182415882374
426.93318969652
420.649432492697
414.332093425463
407.982088970303
401.600304603017
395.187595715652
388.744788966619
382.272683088102
375.772050190246
369.243635998295
362.688161753692
356.10632426494
349.498797799237
342.866234215275
336.209264366548
329.528498309959
322.824526459604
316.097919657051
309.349230236424
302.578992163605
295.787721761266
288.975918239708
282.144063950178
275.292625096031
268.422051656064
261.532778362053
254.625224488498
247.699794931146
240.756879888332
233.796855950541
226.820085819644
219.826919400987
212.817693706532
205.792733625114
198.752351948397
191.69684969437
184.626516459324
177.541630526892
170.442459433949
163.329259972176
156.202278911024
149.061752716156
141.90790826516
134.740962754347
127.561124495479
120.368592305595
113.163557544953
105.946201031332
98.7166983220793
91.4752120557377
84.2219039269614
76.9569183503652
69.6804046996407
62.392489575748
55.0933108146517
47.7829773016786
40.4616166404418
33.1293196445663
25.7862048303957
18.4323446667468
11.0678494889655
3.69277751844695
)
;

boundaryField
{
    electrode
    {
        type            calculated;
        value           uniform 699.999999999991;
    }
    ground
    {
        type            calculated;
        value           uniform 0;
    }
    otherfaces
    {
        type            empty;
    }
}


// ************************************************************************* //
