/*--------------------------------*- C++ -*----------------------------------*\
| =========                 |                                                 |
| \\      /  F ield         | foam-extend: Open Source CFD                    |
|  \\    /   O peration     | Version:     4.0                                |
|   \\  /    A nd           | Web:         http://www.foam-extend.org         |
|    \\/     M anipulation  |                                                 |
\*---------------------------------------------------------------------------*/
FoamFile
{
    version     2.0;
    format      ascii;
    class       volScalarField;
    location    "2e-07";
    object      Sy_electron;
}
// * * * * * * * * * * * * * * * * * * * * * * * * * * * * * * * * * * * * * //

dimensions      [1 -3 -1 0 0 0 0];

internalField   nonuniform List<scalar> 
300
(
2.74766954430336e-10
2.74810352074187e-10
2.74747616554978e-10
2.74647164024574e-10
2.74546279531151e-10
2.74402865866076e-10
2.74224771913374e-10
2.7401578037538e-10
2.73773451266696e-10
2.73496538064769e-10
2.73184270424492e-10
2.72835934181125e-10
2.72450868389381e-10
2.72028505539722e-10
2.71568403832177e-10
2.7107023393929e-10
2.7053378164915e-10
2.69958948804898e-10
2.69345746712408e-10
2.68694287535994e-10
2.68004777025171e-10
2.67277504531088e-10
2.66512837413033e-10
2.65711206297776e-10
2.64873093991063e-10
2.63999038770231e-10
2.63089615865394e-10
2.62145426791969e-10
2.61167108957532e-10
2.6015531871617e-10
2.59110716320612e-10
2.5803398217059e-10
2.56925809354568e-10
2.55786886001999e-10
2.54617903600478e-10
2.53419556469943e-10
2.52192534459839e-10
2.50937525110674e-10
2.496552130566e-10
2.4834627546566e-10
2.47011384197269e-10
2.45651207683093e-10
2.44266406979424e-10
2.42857636389723e-10
2.4142554533347e-10
2.39970777270369e-10
2.38493969954559e-10
2.36995755250018e-10
2.35476762394816e-10
2.33937613521775e-10
2.32378924596565e-10
2.30801310552261e-10
2.29167280034348e-10
2.27475419326527e-10
2.25765960262492e-10
2.24039542930832e-10
2.22296802706363e-10
2.20538368779263e-10
2.18764866316178e-10
2.16976913050331e-10
2.15175118097833e-10
2.13360090257906e-10
2.1153243232555e-10
2.09692726490003e-10
2.07841556044673e-10
2.05979508105315e-10
2.04107151354974e-10
2.02225045598566e-10
2.00333747388312e-10
1.9843380854286e-10
1.96525775473595e-10
1.9461017823058e-10
1.92687544054495e-10
1.90758406328758e-10
1.88823281070017e-10
1.86882673366155e-10
1.84937087679866e-10
1.82987030810087e-10
1.81032998745543e-10
1.79075466609166e-10
1.77114920771758e-10
1.75151838821182e-10
1.73186683385114e-10
1.71219916840042e-10
1.69251984823883e-10
1.67283329226827e-10
1.65314391394495e-10
1.6334559529801e-10
1.61377350457419e-10
1.59410072464145e-10
1.57444159336621e-10
1.55479985090549e-10
1.53517935703088e-10
1.5155838307328e-10
1.4960167680657e-10
1.47648161759816e-10
1.45698172028342e-10
1.43752031252059e-10
1.41810048432474e-10
1.39872518455419e-10
1.37939733282743e-10
1.36011967571489e-10
1.34089474784258e-10
1.32172510813046e-10
1.30261313976234e-10
1.28356105210048e-10
1.26457100289775e-10
1.24564494737433e-10
1.22678475452034e-10
1.20799218630012e-10
1.18926883480031e-10
1.17061618230674e-10
1.15203553116901e-10
1.13352808930609e-10
1.11509498525977e-10
1.09673709629098e-10
1.07845516627746e-10
1.06024989105161e-10
1.04212181432716e-10
1.02407126393415e-10
1.00609843556722e-10
9.88203423486136e-11
9.70386070603571e-11
9.52646103710583e-11
9.34983181755983e-11
9.17396690072625e-11
8.9988579924886e-11
8.82449589026916e-11
8.65086945216356e-11
8.47796527176779e-11
8.30576803971689e-11
8.13426060646845e-11
7.96342462056921e-11
7.79323923257814e-11
7.62368066919888e-11
7.45472468917632e-11
7.28634600357467e-11
7.11851631007654e-11
6.9512055235331e-11
6.78438319143127e-11
6.61801753420761e-11
6.45207545106175e-11
6.28652390262515e-11
6.12132829293947e-11
5.95648246442986e-11
5.79194111271827e-11
5.62763614061197e-11
5.46355540956637e-11
5.29968293743429e-11
5.13598982313037e-11
4.97245233323832e-11
4.80905077903117e-11
4.64576881875953e-11
4.48259753972516e-11
4.31953553535406e-11
4.15658881883799e-11
3.99377231244389e-11
3.83111270286289e-11
3.6686501308169e-11
3.50643514166615e-11
3.34453360916134e-11
3.1830375143032e-11
3.0220360682686e-11
2.86158585951132e-11
2.70197162628984e-11
2.54387823292887e-11
2.38761374119806e-11
2.23273044893859e-11
2.07912631014842e-11
1.9273330595283e-11
1.77733421728946e-11
1.62842045816703e-11
1.4804454487547e-11
1.33376690007452e-11
1.18854135098817e-11
1.0452358951282e-11
9.02669156786771e-12
7.56757860707905e-12
6.18954067584306e-12
4.91796776662711e-12
3.78025786677949e-12
2.79951794858985e-12
1.99119863375428e-12
1.3599435202162e-12
8.95443113487313e-13
5.71639321455559e-13
3.57609776220653e-13
2.2508051180533e-13
1.48057123771902e-13
1.06500627171902e-13
9.05305871972409e-14
1.0386317079781e-13
1.60339690907529e-13
4.45231937604145e-13
6.75240146279856e-12
8.32362062727629e-11
3.53870076659629e-10
7.30867571796463e-10
8.41189636875847e-10
6.71767061127554e-10
4.74609313642204e-10
3.38890471302632e-10
2.58567585654417e-10
2.15731984963796e-10
1.9410307856829e-10
1.8399970564694e-10
1.80497304929211e-10
1.80131615975864e-10
1.81833064993832e-10
1.84747769430815e-10
1.88241634820655e-10
1.91682195777482e-10
1.94917080160337e-10
1.9792059607464e-10
2.00582619944873e-10
2.02835986086658e-10
2.04642665791126e-10
2.05984548992824e-10
2.06850705387724e-10
2.07255125372181e-10
2.07239893992476e-10
2.06809593013294e-10
2.05987364568872e-10
2.04800014523301e-10
2.03276749349324e-10
2.01447572326048e-10
1.99342635942901e-10
1.96991710778648e-10
1.94423788525868e-10
1.91666776366811e-10
1.8874728324615e-10
1.85690484681959e-10
1.82520054155041e-10
1.79258066457207e-10
1.75924896020788e-10
1.72539187823803e-10
1.6911795071809e-10
1.65676654080498e-10
1.62228698050748e-10
1.58785847834256e-10
1.55358967968242e-10
1.51957763439496e-10
1.48590422422184e-10
1.45263994063375e-10
1.41984459676242e-10
1.3875684127945e-10
1.3558528695747e-10
1.32473153429461e-10
1.29423084406925e-10
1.264370863712e-10
1.23516601776026e-10
1.20662578322873e-10
1.17875532553601e-10
1.1515560802793e-10
1.12502628031488e-10
1.09916142812914e-10
1.07395472520523e-10
1.04939746075046e-10
1.02547935062403e-10
1.00218883925153e-10
9.79513373349377e-11
9.57439640922258e-11
9.35953778306394e-11
9.15041552596814e-11
8.94688528470577e-11
8.74880216285785e-11
8.55602202003968e-11
8.36840257316349e-11
8.18580438478281e-11
8.00809104238963e-11
7.83513034256739e-11
7.65914363283086e-11
7.48744927024522e-11
7.31971556038734e-11
7.15552124650825e-11
6.99487389227257e-11
6.83779111167613e-11
6.68431067212283e-11
6.5344663266816e-11
6.3882894015965e-11
6.24580231148863e-11
6.10700334873237e-11
5.96511872645247e-11
5.81728709465751e-11
5.67215084579865e-11
5.53001930826218e-11
5.39119953699946e-11
5.25599888830106e-11
5.11584795010877e-11
4.96071257333957e-11
4.80909023300884e-11
4.66175910050782e-11
4.49750166116157e-11
4.31805387377453e-11
4.14458300451444e-11
3.92042456137226e-11
3.68889305945413e-11
3.40405307963227e-11
3.03573191737564e-11
2.507482359644e-11
)
;

boundaryField
{
    electrode
    {
        type            zeroGradient;
    }
    ground
    {
        type            zeroGradient;
    }
    otherfaces
    {
        type            empty;
    }
}


// ************************************************************************* //
