/*--------------------------------*- C++ -*----------------------------------*\
| =========                 |                                                 |
| \\      /  F ield         | foam-extend: Open Source CFD                    |
|  \\    /   O peration     | Version:     4.0                                |
|   \\  /    A nd           | Web:         http://www.foam-extend.org         |
|    \\/     M anipulation  |                                                 |
\*---------------------------------------------------------------------------*/
FoamFile
{
    version     2.0;
    format      ascii;
    class       volScalarField;
    location    "2e-07";
    object      Te;
}
// * * * * * * * * * * * * * * * * * * * * * * * * * * * * * * * * * * * * * //

dimensions      [0 0 0 1 0 0 0];

internalField   nonuniform List<scalar> 
300
(
36834.41526351
36834.6772781452
36834.4335345179
36834.0491746734
36833.7183800043
36833.2239831947
36832.6120270855
36831.905446101
36831.0947245759
36830.1769067008
36829.1514055717
36828.017658528
36826.7750408238
36825.4230101669
36823.9612221899
36822.3894243321
36820.7074504957
36818.9152206335
36817.0127134226
36814.9999388053
36812.8769256544
36810.6437008237
36808.3002962621
36805.8467096508
36803.282884717
36800.6087685758
36797.8242513783
36794.9291447954
36791.9232686928
36788.8063915723
36785.5781763728
36782.2382940739
36778.7864061073
36775.2220872163
36771.5448884796
36767.75434869
36763.8499655887
36759.8312180939
36755.6975714705
36751.4484579756
36747.0832939564
36742.6014945591
36738.0024538818
36733.2855504055
36728.4501589671
36723.4956449971
36718.4213662088
36713.2266711325
36707.9109188394
36702.4734516768
36696.9136004028
36691.2307150548
36685.4241313793
36679.4931929403
36673.4372399117
36667.2556072129
36660.9476299943
36654.5126359869
36647.9499598086
36641.2589239543
36634.4388319347
36627.4890202351
36620.4088263545
36613.1974975475
36605.8543238241
36598.3786575889
36590.7697744589
36583.0269326534
36575.1494080161
36567.1364844424
36558.9874506028
36550.7015253244
36542.2779452783
36533.7160276985
36525.0150113978
36516.1740981199
36507.1925225866
36498.0695763705
36488.8045175509
36479.3964962583
36469.8447875281
36460.1486498148
36450.3072799407
36440.3199259388
36430.1857625719
36419.9039907649
36409.473867637
36398.894577523
36388.1652534066
36377.28514582
36366.2534353946
36355.0691753179
36343.7315920727
36332.2398743905
36320.5931016653
36308.7903953796
36296.8308678661
36284.7136270316
36272.4377392327
36260.0022316345
36247.4061983806
36234.6486680154
36221.728561204
36208.644918164
36195.396707055
36181.9828220943
36168.4022067541
36154.6536983774
36140.7361455011
36126.6483877695
36112.3891875377
36097.957293811
36083.3513612908
36068.5700432615
36053.6120128363
36038.4757608551
36023.1597257526
36007.6623958754
35991.9821883508
35976.1173662536
35960.0661388815
35943.8267015705
35927.3970359344
35910.7750799775
35893.9587997669
35876.9459046546
35859.7339148542
35842.3203302644
35824.7024776521
35806.8774472637
35788.8421283961
35770.5931968659
35752.1271994226
35733.4403204251
35714.5282591289
35695.3865951617
35676.0106606892
35656.3951350502
35636.5341763235
35616.4216009628
35596.0506173371
35575.4137107553
35554.5028020785
35533.3087079696
35511.8290717002
35490.0492956519
35467.9500291052
35445.525000443
35422.7620581712
35399.64521865
35376.1572644167
35352.2791614019
35327.9893912292
35303.2645457016
35278.0788467861
35252.4035178781
35226.2065267122
35199.4527561127
35172.1038654734
35144.1163669568
35115.4423353005
35086.0329680956
35055.8259427121
35024.7271345744
34992.7301762364
34960.0448069434
34926.7533091871
34892.5398609993
34857.2284761568
34821.0330303432
34783.845996105
34744.9489499232
34703.7863034524
34659.9703406938
34612.5814793449
34560.4405040776
34502.1580825147
34435.8531582073
34359.2847264054
34270.2519253129
34166.7979085768
34047.180663002
33910.7500594799
33759.8921060273
33601.3932223117
33443.7343827714
33300.3976479065
33201.0057467878
33187.4511705256
33309.3062801218
33650.1544850714
34351.3213884884
35641.6041099708
37901.5191814576
41761.0625075964
48680.1451581873
60931.2021953706
80556.0317899995
112837.461369439
159894.462192125
227355.054960813
311874.461233043
403805.125503609
491893.702977963
569361.811820516
634325.691615641
687747.376697682
731639.185939343
767930.830020128
798090.873561723
823257.601071696
844402.004421224
862311.089555628
877608.905201373
890776.067183922
902190.282232917
912149.886437242
920896.897653623
928630.966007403
935495.76136077
941594.808484381
947034.183693022
951907.811019643
956284.579155087
960221.526125151
963765.070828742
966953.340178468
969817.511135829
972382.938444555
974670.039139987
976695.03258073
978470.552109896
980006.231548406
981309.125226063
982383.998513259
983233.585278988
983858.926442666
984258.468504831
984429.005736698
984375.460205106
984089.343276621
983566.626477556
982801.867854631
981789.350146318
980522.81172427
978995.587947634
977200.647335136
975130.658768478
972778.036654111
970134.979079678
967193.503514173
963945.474835812
960382.626201212
956496.573847466
952278.830550846
947720.799530728
942813.784736576
937548.983131646
931917.473293978
925910.206632713
919517.98539201
912731.444639513
905541.024743699
897936.944394768
889909.169138612
881447.370367627
872540.889065745
863178.687156608
853349.313542668
843040.81750339
832240.930013177
820936.470348254
809118.182380144
796767.350552065
783864.387970598
770397.383447997
756345.630833037
741687.583240494
726399.804301986
710457.402480098
693833.877076256
676502.960702307
658441.139361985
639612.214339244
619976.741655668
599496.411286057
578117.922400029
555792.119479703
532460.577358533
508050.523159375
482480.272068238
455661.543091119
427476.203496188
397784.522590681
366416.638310115
333144.243475356
297645.548672024
259503.858656987
218126.997888402
172678.060281061
)
;

boundaryField
{
    electrode
    {
        type            electronTemperature;
        seec            0.05;
        Tse             1000;
        Edepend         1;
        TFN             1000;
        field_emission  0;
        field_enhancement_factor 55;
        work_function   5;
        value           uniform 36834.41526351;
    }
    ground
    {
        type            electronTemperature;
        seec            0.05;
        Tse             1000;
        Edepend         1;
        TFN             1000;
        field_emission  0;
        field_enhancement_factor 55;
        work_function   5;
        value           uniform 147011.744706031;
    }
    otherfaces
    {
        type            empty;
    }
}


// ************************************************************************* //
