/*--------------------------------*- C++ -*----------------------------------*\
| =========                 |                                                 |
| \\      /  F ield         | foam-extend: Open Source CFD                    |
|  \\    /   O peration     | Version:     4.0                                |
|   \\  /    A nd           | Web:         http://www.foam-extend.org         |
|    \\/     M anipulation  |                                                 |
\*---------------------------------------------------------------------------*/
FoamFile
{
    version     2.0;
    format      ascii;
    class       volScalarField;
    location    "2e-07";
    object      TeMean;
}
// * * * * * * * * * * * * * * * * * * * * * * * * * * * * * * * * * * * * * //

dimensions      [0 0 0 1 0 0 0];

internalField   nonuniform List<scalar> 
300
(
52871.9277259487
52874.2744208874
52874.2458251081
52871.973907218
52869.009507102
52865.2450856268
52860.7025859798
52855.4303440839
52849.4506520792
52842.7821670606
52835.4430687774
52827.4515920909
52818.8251162012
52809.5799330924
52799.7316954168
52789.2953893103
52778.2852881481
52766.7150983517
52754.5979517793
52741.9464052769
52728.7725294026
52715.0878512574
52700.9034228611
52686.2298121535
52671.077104102
52655.4552232598
52639.373727559
52622.8417392065
52605.8681790371
52588.4614190791
52570.6292704949
52552.3797186491
52533.7208535932
52514.6602768349
52495.2052481869
52475.3625555833
52455.1387854073
52434.540592448
52413.5744169489
52392.2463489226
52370.5621851724
52348.5277842132
52326.1488105865
52303.4306378341
52280.3784520636
52256.9972434852
52233.2917860599
52209.2666069301
52184.9258673234
52160.2733694491
52135.3125615817
52110.046988805
52084.4805737853
52058.6170117229
52032.4599252326
52006.0130517958
51979.2797304756
51952.2629667099
51924.9658313627
51897.3912585786
51869.5420003057
51841.4208885866
51813.0300573745
51784.3713152406
51755.4472176017
51726.2605714493
51696.8138955602
51667.1094457825
51637.1493211316
51606.9356222916
51576.4701693752
51545.7542529675
51514.7894302412
51483.5773597837
51452.1191787727
51420.4155513352
51388.4675351426
51356.2768006366
51323.8444143146
51291.1710764039
51258.2580945742
51225.1067911184
51191.7178149421
51158.0912997925
51124.2272366863
51090.1261469277
51055.7889037367
51021.2158856081
50986.4070418897
50951.3624120799
50916.0814801336
50880.563581073
50844.8092771922
50808.818482109
50772.5906040316
50736.1255485286
50699.4228090247
50662.4817731385
50625.3015392932
50587.8811900947
50550.2201900641
50512.3169625925
50474.1697412291
50435.7776432382
50397.1394926835
50358.2537642542
50319.1185748081
50279.7319948325
50240.0923341483
50200.1976503728
50160.0458753587
50119.6346782302
50078.9613069898
50038.0234868613
49996.8183771452
49955.3425440275
49913.5922022141
49871.5639984282
49829.2550483477
49786.6609874054
49743.7769746725
49700.5982523737
49657.1196436966
49613.3362129539
49569.2433861053
49524.8357399307
49480.1067033404
49435.0498581155
49389.6588487019
49343.9261137459
49297.8434180722
49251.4025873489
49204.5951835423
49157.4107381367
49109.8377266449
49061.8659533452
49013.4845246775
48964.6805622959
48915.4407593539
48865.7516762671
48815.598807748
48764.9660138119
48713.8353667026
48662.1871444559
48610.0008779736
48557.2557515558
48503.9297508723
48449.9995209578
48395.4377694332
48340.214579377
48284.3000061476
48227.6604814706
48170.2593838023
48112.0588831722
48053.0162199616
47993.0841880099
47932.212470966
47870.3477314669
47807.4325529597
47743.4041983298
47678.2004636475
47611.7599416354
47544.0207519236
47474.9540800663
47404.5966688813
47332.9390498711
47259.7958023137
47184.9306874481
47108.1468911472
47029.0955858232
46947.1488366519
46861.5181883239
46771.2991866099
46675.2773449391
46571.8818767742
46459.2542211267
46335.2416079657
46197.5446860874
46044.0191087696
45873.068121575
45684.1893024041
45478.76334839
45261.0529034492
45039.4155141995
44827.3816032521
44645.2967847926
44523.686887989
44506.2877054545
44655.6970659739
45065.2740442028
45879.712923148
47332.1764061805
49816.1560382
54113.7277747122
61379.2970639561
73169.0015580724
93129.7763028395
124201.097802313
171555.691849335
237131.447681135
317979.964012199
405043.302584393
488513.361129412
562165.501000445
624103.122127728
675141.042247307
717036.836031697
751523.296271756
780009.130914101
803631.78718707
823325.525193336
839857.702636778
853838.995587638
865743.399747307
875943.241661887
884732.518725245
892346.934174033
898981.525593286
904785.781673521
909864.067630735
914311.310846792
918217.388240001
921652.686309769
924673.081996011
927324.230730634
929643.769562072
931662.377359086
933405.205829422
934892.849612755
936141.660179834
937164.613450005
937972.138866169
938571.95571356
938969.609887651
939169.041554881
939172.348527928
938980.236144399
938592.314749871
938007.560503518
937223.233176379
936235.925358882
935041.744617985
933636.247208927
932014.325097523
930170.606597407
928099.286565586
925794.212348903
923248.899846299
920456.727326225
917410.852356011
914104.079049909
910529.257585311
906678.992627974
902545.763955615
898121.851427452
893399.488159271
888370.781625991
883027.642202474
877361.823892751
871364.994028165
865028.640061406
858343.96266221
851302.080647432
843893.64212616
836109.374446752
827939.415440325
819373.437125125
810400.638089307
801009.935129887
791189.475122879
780926.800232918
770208.619277206
759020.387268003
747346.292073704
735170.253784599
722474.434119081
709239.757912803
695445.884483813
681072.171244544
666096.753151352
650495.531827239
634242.95210407
617308.804997216
599658.665258545
581254.945660758
562056.368576922
542018.249329252
521090.241814433
499212.775085131
476317.480922783
452328.584105495
427152.84268129
400678.984693234
372776.535539197
343274.553988665
311955.743985145
278513.813205063
242548.787569267
203503.842446382
160599.088095094
)
;

boundaryField
{
    electrode
    {
        type            calculated;
        value           uniform 52871.9277260104;
    }
    ground
    {
        type            calculated;
        value           uniform 136362.187669689;
    }
    otherfaces
    {
        type            empty;
    }
}


// ************************************************************************* //
