/*--------------------------------*- C++ -*----------------------------------*\
| =========                 |                                                 |
| \\      /  F ield         | foam-extend: Open Source CFD                    |
|  \\    /   O peration     | Version:     4.0                                |
|   \\  /    A nd           | Web:         http://www.foam-extend.org         |
|    \\/     M anipulation  |                                                 |
\*---------------------------------------------------------------------------*/
FoamFile
{
    version     2.0;
    format      ascii;
    class       volScalarField;
    location    "2.4e-06";
    object      Arm;
}
// * * * * * * * * * * * * * * * * * * * * * * * * * * * * * * * * * * * * * //

dimensions      [0 0 0 1 0 0 0];

internalField   nonuniform List<scalar> 
300
(
3.57415426234371e+15
3.57603334110506e+15
3.57798286047045e+15
3.57928868426064e+15
3.58010485406252e+15
3.58048333124238e+15
3.58046832854802e+15
3.58009127642447e+15
3.57937783095584e+15
3.57834997941265e+15
3.5770234905201e+15
3.57541245085539e+15
3.57352891304722e+15
3.57138347940633e+15
3.56898560670923e+15
3.56634384342871e+15
3.56346300333681e+15
3.56035167828725e+15
3.55701821189723e+15
3.55346908167984e+15
3.54971048910184e+15
3.54574835587403e+15
3.54158837202102e+15
3.53723600515978e+15
3.53268052309656e+15
3.52793971757674e+15
3.52301727622222e+15
3.51791519752545e+15
3.51264710007196e+15
3.50721787775139e+15
3.50161371573112e+15
3.49584601196437e+15
3.4899328981109e+15
3.48387974144488e+15
3.47769162823198e+15
3.47137336562665e+15
3.46492511346771e+15
3.45835339543632e+15
3.4516652858301e+15
3.44486431559451e+15
3.43795398612266e+15
3.4309395777344e+15
3.42382496979926e+15
3.41661385394891e+15
3.40930973044634e+15
3.40191586569614e+15
3.39443320073212e+15
3.38686319628165e+15
3.37919806890962e+15
3.3714364311076e+15
3.36356563282921e+15
3.35559823472459e+15
3.34752879058268e+15
3.33937506175162e+15
3.33114515865611e+15
3.32285547984303e+15
3.31450930988054e+15
3.30610956492261e+15
3.29765881937108e+15
3.28915748337482e+15
3.28060988029442e+15
3.27201812546542e+15
3.26337888578011e+15
3.25467415060784e+15
3.24590789867717e+15
3.23710577476918e+15
3.22826984198716e+15
3.21940194009225e+15
3.2105036548955e+15
3.20157634853978e+15
3.19261918085894e+15
3.18362498493033e+15
3.17459221943636e+15
3.16552836982555e+15
3.15641984647441e+15
3.14726772044949e+15
3.13807835619694e+15
3.12884757767378e+15
3.11959546397667e+15
3.11029130071051e+15
3.10096980482178e+15
3.09163306626706e+15
3.08227798686876e+15
3.07290685707732e+15
3.06350480440514e+15
3.05407959556474e+15
3.0446429566822e+15
3.03519520921477e+15
3.02572439993772e+15
3.01623832785198e+15
3.00673101195048e+15
2.99715721054887e+15
2.987572402935e+15
2.97797815777718e+15
2.96837450192457e+15
2.95876146181615e+15
2.94913881911121e+15
2.93950615498846e+15
2.92985250459074e+15
2.92017781294908e+15
2.91048835841532e+15
2.90078545853806e+15
2.89103722143903e+15
2.88127300819782e+15
2.87148354777972e+15
2.86165946202172e+15
2.85181585378422e+15
2.84193302252537e+15
2.83202143991103e+15
2.82208656079361e+15
2.81212650574757e+15
2.80213899507208e+15
2.79211627336672e+15
2.78205613583864e+15
2.77195638265616e+15
2.7617993424057e+15
2.75156606771264e+15
2.74128144989706e+15
2.73094634202141e+15
2.72055267701554e+15
2.71007398830802e+15
2.69952334816528e+15
2.68887165797451e+15
2.67812936385237e+15
2.66730791662844e+15
2.65640513213002e+15
2.64539280226327e+15
2.63428846188592e+15
2.62308123317856e+15
2.6117691053172e+15
2.60033640073064e+15
2.58877926683791e+15
2.5770927326358e+15
2.56525069660433e+15
2.55321660599455e+15
2.54100941084307e+15
2.52863305338927e+15
2.51606244301803e+15
2.50327869197126e+15
2.49029099297824e+15
2.47708332610251e+15
2.46363905615207e+15
2.44992601695331e+15
2.43591209972868e+15
2.4215726417925e+15
2.4069275498926e+15
2.39196191194287e+15
2.37665938108709e+15
2.36098942561414e+15
2.34490304796184e+15
2.32841281046283e+15
2.31149396529966e+15
2.29408411172747e+15
2.27618216723342e+15
2.25776989469664e+15
2.23879751367112e+15
2.21922172474874e+15
2.19904205885585e+15
2.17823938009679e+15
2.15676868083042e+15
2.1345943396423e+15
2.111701324131e+15
2.08805128202675e+15
2.06365685962458e+15
2.03850508383246e+15
2.01254122775306e+15
1.98578618220138e+15
1.95828456914958e+15
1.93006531795708e+15
1.9011703795485e+15
1.87166843941914e+15
1.84159269749166e+15
1.81103550984279e+15
1.78016846432546e+15
1.74918557155931e+15
1.71825663466114e+15
1.68756082656116e+15
1.65729711912323e+15
1.62770447929723e+15
1.59893836317229e+15
1.57115304852263e+15
1.54449564418917e+15
1.51904736550996e+15
1.49492316281691e+15
1.47212277297059e+15
1.45055550248426e+15
1.4302610246534e+15
1.41118764313944e+15
1.39324631924289e+15
1.37634770875059e+15
1.36036989410678e+15
1.34526579083672e+15
1.331048073248e+15
1.31987890358072e+15
1.32946906771409e+15
1.36284303332735e+15
1.39400109752798e+15
1.40136592417084e+15
1.39326652398509e+15
1.37832795705057e+15
1.36023611340056e+15
1.34262816421054e+15
1.32756202181971e+15
1.31544580600687e+15
1.30578745590202e+15
1.29807878960028e+15
1.29115917741964e+15
1.28529210909289e+15
1.28017965221017e+15
1.27547732566144e+15
1.2706043452622e+15
1.26571362970927e+15
1.26091977479664e+15
1.25613431523463e+15
1.25134879880783e+15
1.24652012298676e+15
1.24161178337452e+15
1.23664784104421e+15
1.23160941059247e+15
1.22649611756994e+15
1.2213244145897e+15
1.21608801778572e+15
1.21079583385648e+15
1.2053936358047e+15
1.1998815547636e+15
1.19437225598907e+15
1.18889021077277e+15
1.18343696870906e+15
1.17802827120455e+15
1.17268477168417e+15
1.16740370559408e+15
1.16219766240244e+15
1.15708365936106e+15
1.15206152349187e+15
1.14713424350375e+15
1.14232123472151e+15
1.13760850455378e+15
1.13301645500336e+15
1.12853443350274e+15
1.12417307237893e+15
1.11993237479418e+15
1.11580367596243e+15
1.11180061566705e+15
1.10790748702799e+15
1.10412859007672e+15
1.10047725674391e+15
1.09693718745205e+15
1.09351352512892e+15
1.09020624474367e+15
1.08700500018597e+15
1.0839144832679e+15
1.08092822222397e+15
1.07804128438662e+15
1.07525702872446e+15
1.0725672333258e+15
1.06996977474764e+15
1.06746384762165e+15
1.06503458020649e+15
1.06269165407355e+15
1.06042800794317e+15
1.05825037004023e+15
1.0561471453047e+15
1.05412233285795e+15
1.05216885547426e+15
1.05028572334612e+15
1.04847047684502e+15
1.04671716449993e+15
1.04502454204037e+15
1.04338355147429e+15
1.04180166338571e+15
1.04027261751055e+15
1.03880318534912e+15
1.03738148980108e+15
1.03601447669064e+15
1.03469108677629e+15
1.03341086317036e+15
1.03217296694883e+15
1.03097820396646e+15
1.0298292743537e+15
1.02872040545476e+15
1.02765101342658e+15
1.02661329127382e+15
1.02555088844955e+15
1.02449725723614e+15
1.02347956724086e+15
1.02248770991686e+15
1.02152844317289e+15
1.02060201331207e+15
1.0197010979227e+15
1.018728784867e+15
1.01773836376405e+15
1.0167770016213e+15
1.01584425334885e+15
1.01478966919267e+15
1.01372142448713e+15
1.01262224333646e+15
1.01137221031939e+15
1.01000142981767e+15
1.00843282371914e+15
1.00653313120705e+15
)
;

boundaryField
{
    electrode
    {
        type            zeroGradient;
    }
    ground
    {
        type            zeroGradient;
    }
    otherfaces
    {
        type            empty;
    }
}


// ************************************************************************* //
