/*--------------------------------*- C++ -*----------------------------------*\
| =========                 |                                                 |
| \\      /  F ield         | foam-extend: Open Source CFD                    |
|  \\    /   O peration     | Version:     4.0                                |
|   \\  /    A nd           | Web:         http://www.foam-extend.org         |
|    \\/     M anipulation  |                                                 |
\*---------------------------------------------------------------------------*/
FoamFile
{
    version     2.0;
    format      ascii;
    class       volVectorField;
    location    "2.4e-06";
    object      E;
}
// * * * * * * * * * * * * * * * * * * * * * * * * * * * * * * * * * * * * * //

dimensions      [0 0 0 1 0 0 0];

internalField   nonuniform List<vector> 
300
(
(4.47801317693397 -0 -0)
(9.55838126565076 -0 -0)
(16.4942109345812 -0 -0)
(23.2078804882077 -0 -0)
(29.7959966949473 -0 -0)
(36.4077661851873 -0 -0)
(43.0163950584932 -0 -0)
(49.6189666146497 -0 -0)
(56.2172742649143 -0 -0)
(62.8102937036418 -0 -0)
(69.3972553339459 -0 -0)
(75.977560276553 -0 -0)
(82.5505679355473 -0 -0)
(89.1156475862891 -0 -0)
(95.6721866396402 -0 -0)
(102.219587327924 -0 -0)
(108.757268911517 -0 -0)
(115.284669939543 -0 -0)
(121.801250194121 -0 -0)
(128.306492709615 -0 -0)
(134.799905962547 -0 -0)
(141.281026190544 -0 -0)
(147.749419807106 -0 -0)
(154.204685841321 -0 -0)
(160.64645863151 -0 -0)
(167.074410523101 -0 -0)
(173.488254745504 -0 -0)
(179.887748430476 -0 -0)
(186.272695684715 -0 -0)
(192.642950833102 -0 -0)
(198.998421849249 -0 -0)
(205.339073815161 -0 -0)
(211.664932502096 -0 -0)
(217.976088250105 -0 -0)
(224.272699748906 -0 -0)
(230.554998093015 -0 -0)
(236.823290965273 -0 -0)
(243.077966909039 -0 -0)
(249.319499683069 -0 -0)
(255.548452848834 -0 -0)
(261.765484425805 -0 -0)
(267.971351704283 -0 -0)
(274.166916099132 -0 -0)
(280.353148229773 -0 -0)
(286.531133036921 -0 -0)
(292.702075135907 -0 -0)
(298.867304179768 -0 -0)
(305.028280346594 -0 -0)
(311.186600009148 -0 -0)
(317.344001481082 -0 -0)
(323.502370883111 -0 -0)
(329.663748108198 -0 -0)
(335.830332913389 -0 -0)
(342.004491127347 -0 -0)
(348.188760981894 -0 -0)
(354.385859470327 -0 -0)
(360.59868892966 -0 -0)
(366.830343738503 -0 -0)
(373.084116987647 -0 -0)
(379.363507370426 -0 -0)
(385.672226188609 -0 -0)
(392.014204447709 -0 -0)
(398.393600034618 -0 -0)
(404.814805135584 -0 -0)
(411.282453648049 -0 -0)
(417.801428770389 -0 -0)
(424.376870761294 -0 -0)
(431.014184742919 -0 -0)
(437.719048873616 -0 -0)
(444.497422419407 -0 -0)
(451.355554065191 -0 -0)
(458.299990524542 -0 -0)
(465.33758525651 -0 -0)
(472.475507351427 -0 -0)
(479.721250736025 -0 -0)
(487.082643552173 -0 -0)
(494.567857721359 -0 -0)
(502.185419061543 -0 -0)
(509.944217440322 -0 -0)
(517.853517413462 -0 -0)
(525.922969141282 -0 -0)
(534.162619823862 -0 -0)
(542.582925538885 -0 -0)
(551.194763573402 -0 -0)
(560.009445266295 -0 -0)
(569.038729428144 -0 -0)
(578.294836496637 -0 -0)
(587.79046340224 -0 -0)
(597.538799086574 -0 -0)
(607.553541005838 -0 -0)
(617.848912577775 -0 -0)
(628.439681518589 -0 -0)
(639.341179510595 -0 -0)
(650.569323008895 -0 -0)
(662.140635450261 -0 -0)
(674.072270846825 -0 -0)
(686.382039209808 -0 -0)
(699.088433579598 -0 -0)
(712.210659160953 -0 -0)
(725.768664616781 -0 -0)
(739.783175543316 -0 -0)
(754.275730699499 -0 -0)
(769.268721123666 -0 -0)
(784.785432139509 -0 -0)
(800.850088915417 -0 -0)
(817.487905860413 -0 -0)
(834.725139833697 -0 -0)
(852.589148077422 -0 -0)
(871.108451039411 -0 -0)
(890.312800624724 -0 -0)
(910.233254399014 -0 -0)
(930.902256321531 -0 -0)
(952.353724797764 -0 -0)
(974.623148727966 -0 -0)
(997.747692282992 -0 -0)
(1021.76630950281 -0 -0)
(1046.71986950894 -0 -0)
(1072.65129386256 -0 -0)
(1099.60570707618 -0 -0)
(1127.63060166899 -0 -0)
(1156.77601977711 -0 -0)
(1187.09475288834 -0 -0)
(1218.64256182056 -0 -0)
(1251.47841945354 -0 -0)
(1285.66477895472 -0 -0)
(1321.26787028439 -0 -0)
(1358.35802883716 -0 -0)
(1397.01006011656 -0 -0)
(1437.30364492737 -0 -0)
(1479.32379058624 -0 -0)
(1523.16133403937 -0 -0)
(1568.91350393414 -0 -0)
(1616.68454999478 -0 -0)
(1666.58644862838 -0 -0)
(1718.73969617034 -0 -0)
(1773.27420223957 -0 -0)
(1830.33029806203 -0 -0)
(1890.05987725775 -0 -0)
(1952.62768968884 -0 -0)
(2018.21281222939 -0 -0)
(2087.01032505827 -0 -0)
(2159.23322730873 -0 -0)
(2235.11463201775 -0 -0)
(2314.91028848005 -0 -0)
(2398.90148885391 -0 -0)
(2487.39842750123 -0 -0)
(2580.74409596769 -0 -0)
(2679.31881266944 -0 -0)
(2783.54550743935 -0 -0)
(2893.89590707067 -0 -0)
(3010.89779936209 -0 -0)
(3135.14359225681 -0 -0)
(3267.30043208353 -0 -0)
(3408.12220515109 -0 -0)
(3558.46382395428 -0 -0)
(3719.29827387606 -0 -0)
(3891.73703960915 -0 -0)
(4077.05472664975 -0 -0)
(4276.71852808497 -0 -0)
(4492.4236778312 -0 -0)
(4726.14176027135 -0 -0)
(4980.17373736415 -0 -0)
(5257.19375221637 -0 -0)
(5560.49660585972 -0 -0)
(5894.70968236287 -0 -0)
(6267.02651642577 -0 -0)
(6686.06652774327 -0 -0)
(7159.44782202162 -0 -0)
(7695.13580896547 -0 -0)
(8304.4531435384 -0 -0)
(9002.09894313732 -0 -0)
(9802.85267019299 -0 -0)
(10718.7724858646 -0 -0)
(11764.3981098368 -0 -0)
(12958.4525666885 -0 -0)
(14308.6200530771 -0 -0)
(15825.3771726002 -0 -0)
(17526.5080402419 -0 -0)
(19411.9110374291 -0 -0)
(21480.2533657942 -0 -0)
(23726.8902081448 -0 -0)
(26137.4182436332 -0 -0)
(28704.854387101 -0 -0)
(31400.7963467676 -0 -0)
(34194.8968434053 -0 -0)
(37073.5183840602 -0 -0)
(40007.2503577635 -0 -0)
(42961.8536092392 -0 -0)
(45922.7725340054 -0 -0)
(48882.8129570201 -0 -0)
(51817.8465108753 -0 -0)
(54710.0181106065 -0 -0)
(57555.9365552289 -0 -0)
(60365.7300366612 -0 -0)
(63153.3454473654 -0 -0)
(65926.969966962 -0 -0)
(68703.0889637117 -0 -0)
(71488.0914542391 -0 -0)
(74276.4338304541 -0 -0)
(77063.2669613286 -0 -0)
(79842.9038070853 -0 -0)
(82610.3851326894 -0 -0)
(85355.8074699856 -0 -0)
(88071.7703106937 -0 -0)
(90759.6771783113 -0 -0)
(93421.776932475 -0 -0)
(96060.6270879025 -0 -0)
(98678.7228549529 -0 -0)
(101278.48233105 -0 -0)
(103862.314976855 -0 -0)
(106432.534582516 -0 -0)
(108988.004041052 -0 -0)
(111525.114427376 -0 -0)
(114043.468438257 -0 -0)
(116544.965358888 -0 -0)
(119031.295232087 -0 -0)
(121503.934830399 -0 -0)
(123964.226336738 -0 -0)
(126413.377811978 -0 -0)
(128852.502714601 -0 -0)
(131282.643033014 -0 -0)
(133704.784614997 -0 -0)
(136119.870039206 -0 -0)
(138528.80905898 -0 -0)
(140930.540914378 -0 -0)
(143321.860054768 -0 -0)
(145701.476015399 -0 -0)
(148070.056915804 -0 -0)
(150428.247116809 -0 -0)
(152776.603854271 -0 -0)
(155115.698163417 -0 -0)
(157446.048721374 -0 -0)
(159768.167442267 -0 -0)
(162082.547244272 -0 -0)
(164389.648589643 -0 -0)
(166689.887913459 -0 -0)
(168983.710758976 -0 -0)
(171271.50020568 -0 -0)
(173553.691304415 -0 -0)
(175830.658321804 -0 -0)
(178102.772450955 -0 -0)
(180370.416587097 -0 -0)
(182632.808713244 -0 -0)
(184887.512885042 -0 -0)
(187133.25733799 -0 -0)
(189370.296217263 -0 -0)
(191598.96517291 -0 -0)
(193819.481822897 -0 -0)
(196032.1201812 -0 -0)
(198237.096098922 -0 -0)
(200434.647233984 -0 -0)
(202625.022461588 -0 -0)
(204808.449116125 -0 -0)
(206985.143079118 -0 -0)
(209155.349977377 -0 -0)
(211319.248717921 -0 -0)
(213477.10598061 -0 -0)
(215629.087459065 -0 -0)
(217775.455921876 -0 -0)
(219916.379933239 -0 -0)
(222052.111246759 -0 -0)
(224182.836062255 -0 -0)
(226308.792889036 -0 -0)
(228430.164770862 -0 -0)
(230547.158830678 -0 -0)
(232659.929960836 -0 -0)
(234768.622952391 -0 -0)
(236872.770652754 -0 -0)
(238970.695293578 -0 -0)
(241061.189859425 -0 -0)
(243144.430969743 -0 -0)
(245220.579178141 -0 -0)
(247289.800532272 -0 -0)
(249352.298520065 -0 -0)
(251408.240351715 -0 -0)
(253457.839945551 -0 -0)
(255501.30264146 -0 -0)
(257538.820334325 -0 -0)
(259570.600068011 -0 -0)
(261596.814619856 -0 -0)
(263617.60933055 -0 -0)
(265633.084216072 -0 -0)
(267643.352238499 -0 -0)
(269648.438838383 -0 -0)
(271648.445830271 -0 -0)
(273643.405253676 -0 -0)
(275633.436305161 -0 -0)
(277618.623864032 -0 -0)
(279599.120883463 -0 -0)
(281575.085659302 -0 -0)
(283546.668893541 -0 -0)
(285514.021081413 -0 -0)
(287477.250652134 -0 -0)
(289436.451733863 -0 -0)
(291391.676069862 -0 -0)
(293342.976605735 -0 -0)
(295290.37564689 -0 -0)
(297233.891142031 -0 -0)
(299173.51595179 -0 -0)
(301108.525680956 -0 -0)
)
;

boundaryField
{
    electrode
    {
        type            calculated;
        value           uniform (2.90256250991661 -0 -0);
    }
    ground
    {
        type            calculated;
        value           uniform (302074.373862531 -0 -0);
    }
    otherfaces
    {
        type            empty;
    }
}


// ************************************************************************* //
