/*--------------------------------*- C++ -*----------------------------------*\
| =========                 |                                                 |
| \\      /  F ield         | foam-extend: Open Source CFD                    |
|  \\    /   O peration     | Version:     4.0                                |
|   \\  /    A nd           | Web:         http://www.foam-extend.org         |
|    \\/     M anipulation  |                                                 |
\*---------------------------------------------------------------------------*/
FoamFile
{
    version     2.0;
    format      ascii;
    class       volScalarField;
    location    "2.4e-06";
    object      electron;
}
// * * * * * * * * * * * * * * * * * * * * * * * * * * * * * * * * * * * * * //

dimensions      [0 0 0 1 0 0 0];

internalField   nonuniform List<scalar> 
300
(
5.96400117221359e+16
5.96379199122414e+16
5.96329907877204e+16
5.96248848975749e+16
5.96136345756643e+16
5.95992442000126e+16
5.95817137597648e+16
5.95610483611283e+16
5.95372535915647e+16
5.95103356469313e+16
5.94803016043222e+16
5.94471593374273e+16
5.94109175009465e+16
5.93715855282683e+16
5.93291736201972e+16
5.9283692733033e+16
5.92351545660413e+16
5.91835715476341e+16
5.9128956820334e+16
5.90713242245458e+16
5.90106882811091e+16
5.89470641725919e+16
5.88804677232945e+16
5.88109153779632e+16
5.87384241791755e+16
5.86630117433728e+16
5.85846962355275e+16
5.85034963424079e+16
5.84194312444328e+16
5.83325205861003e+16
5.82427844449566e+16
5.81502432990959e+16
5.80549179932003e+16
5.7956829703078e+16
5.78559998987042e+16
5.77524503057733e+16
5.76462028657343e+16
5.75372796943164e+16
5.74257030385634e+16
5.73114952323717e+16
5.71946786505322e+16
5.70752756612937e+16
5.69533085774707e+16
5.6828799606112e+16
5.67017707967467e+16
5.65722439882285e+16
5.64402407542044e+16
5.63057823472575e+16
5.61688896417467e+16
5.60295830753765e+16
5.58878825895442e+16
5.57438075685112e+16
5.55973767774477e+16
5.54486082993978e+16
5.52975194712179e+16
5.51441268185596e+16
5.49884459899545e+16
5.48304916900434e+16
5.46702776120445e+16
5.4507816369537e+16
5.4343119427617e+16
5.41761970335077e+16
5.40070581467196e+16
5.38357103688286e+16
5.36621598729658e+16
5.34864113331258e+16
5.3308467853373e+16
5.31283308970578e+16
5.29460002161252e+16
5.27614737806261e+16
5.2574747708575e+16
5.23858161962339e+16
5.21946714489319e+16
5.20013036125636e+16
5.18057007058777e+16
5.16078485536794e+16
5.14077307211e+16
5.12053284490368e+16
5.10006205909008e+16
5.07935835508349e+16
5.05841912235388e+16
5.03724149358424e+16
5.01582233901706e+16
4.99415826100566e+16
4.97224558878667e+16
4.95008037349002e+16
4.92765838340177e+16
4.90497509949465e+16
4.88202571124557e+16
4.85880511275689e+16
4.83530789919697e+16
4.81152836357956e+16
4.7874604938992e+16
4.76309797063904e+16
4.73843416467032e+16
4.71346213556308e+16
4.68817463032522e+16
4.66256408258864e+16
4.63662261226205e+16
4.61034202566708e+16
4.58371381617961e+16
4.55672916539526e+16
4.52937894483506e+16
4.50165371821272e+16
4.47354374428358e+16
4.44503898029067e+16
4.41612908602933e+16
4.38680342854992e+16
4.35705108751459e+16
4.32686086122705e+16
4.29622127335362e+16
4.26512058035346e+16
4.23354677963482e+16
4.20148761845201e+16
4.1689306035599e+16
4.1358630116406e+16
4.10227190051719e+16
4.06814412116651e+16
4.0334663305407e+16
3.99822500521065e+16
3.96240645583921e+16
3.92599684248908e+16
3.88898219077213e+16
3.8513484088426e+16
3.81308130523246e+16
3.77416660752753e+16
3.7345899818792e+16
3.69433705334085e+16
3.65339342701677e+16
3.61174471000639e+16
3.56937653412162e+16
3.52627457935215e+16
3.48242459804514e+16
3.43781243976279e+16
3.39242407677532e+16
3.34624563013815e+16
3.29926339629897e+16
3.25146387417371e+16
3.20283379262198e+16
3.15336013824989e+16
3.10303018346515e+16
3.05183151470673e+16
2.99975206077378e+16
2.94678012118574e+16
2.89290439451941e+16
2.83811400669867e+16
2.78239853924866e+16
2.72574805758769e+16
2.66815313952693e+16
2.60960490428131e+16
2.55009504248541e+16
2.48961584798211e+16
2.42816025254096e+16
2.36572186521107e+16
2.30229501873785e+16
2.2378748265651e+16
2.17245725533309e+16
2.10603921910777e+16
2.03861870398644e+16
1.97019493533232e+16
1.90076857304302e+16
1.8303418969992e+16
1.75891903495434e+16
1.68650511815952e+16
1.61310183322236e+16
1.53869665246672e+16
1.4632573736704e+16
1.38674831203195e+16
1.30915198017661e+16
1.23047316601823e+16
1.1507373215467e+16
1.07000850126022e+16
9.88429733791353e+15
9.06251308247258e+15
8.23833438623464e+15
7.41682025037702e+15
6.60467900980559e+15
5.80984419815667e+15
5.0413892204151e+15
4.30926128014838e+15
3.62347705823781e+15
2.99334284032824e+15
2.42650712607338e+15
1.9282734993585e+15
1.50113972238078e+15
1.14446846426401e+15
854392966352340
624693471553916
447888967687865
315546966326722
219161832441667
150774013671828
103336994421555
71075878023547
48267728244305.2
32009346678645.5
20638759637416.8
12866603623053.7
8028101481769.89
5219114034776.38
3643225329115.32
2756837224279.37
2247848509284.34
1948047428516.64
1767895363164.99
1658741244180.78
1592804813274.83
1553510199590.45
1530681581368.79
1517939381236.38
1511037515363.89
1507041921767.57
1503996950912.28
1500658102559.39
1496189064706.71
1490052281986.08
1481919848581.37
1471616940815.13
1459080754429.81
1444329133078.39
1427440837673.95
1408508673743.92
1387646500555.44
1365022934090.42
1340834109249.56
1315286996979.69
1288590735740.63
1260949689456.91
1232559569220.24
1203605244941.2
1174259279798.16
1144681006418.26
1115016027928.77
1085396045944.36
1055938968482.51
1026749240445.27
997918324651.267
969525319070.59
941637663504.581
914311912305.292
887594572197.843
861522951781.928
836126228018.645
811426742962.928
787440681883.581
764178162425.745
741643434575.727
719835696068.994
698746213960.339
678359451030.917
658662371459.829
639644158464.78
621291878765.184
603590932707.623
586525183242.932
570077769135.585
554231875467.306
538966628278.611
524258968171.431
510090489595
496443478599.562
483298452995.348
470636218302.846
458437826901.341
446684760280.802
435358694413.952
424440992489.63
413906998214.592
403734156119.615
393907783046.227
384414266705.561
375241090199.894
366376440212.605
357809218788.815
349529038607.607
341526243007.753
333791926045.858
326317961448.708
319097042881.26
312122669639.714
305389265117.219
298890978098.732
292622532885.618
286552157562.376
280652692422.944
274931325856.901
269399099068.293
264068840756.898
258953212028.876
254027159005.271
249267301460.706
244704417799.308
240383494987.894
236298274882.966
232487034634.231
229039804984.836
226099636900.71
223954334836.854
223057793137.429
224248789657.86
)
;

boundaryField
{
    electrode
    {
        type            driftDiffusionElectronDensity;
        seec            0.05;
        Edepend         1;
        field_emission  0;
        field_enhancement_factor 55;
        work_function   5;
        value           uniform 5.96400117221359e+16;
    }
    ground
    {
        type            driftDiffusionElectronDensity;
        seec            0.05;
        Edepend         1;
        field_emission  0;
        field_enhancement_factor 55;
        work_function   5;
        value           uniform 226482010286.546;
    }
    otherfaces
    {
        type            empty;
    }
}


// ************************************************************************* //
