/*--------------------------------*- C++ -*----------------------------------*\
| =========                 |                                                 |
| \\      /  F ield         | foam-extend: Open Source CFD                    |
|  \\    /   O peration     | Version:     4.0                                |
|   \\  /    A nd           | Web:         http://www.foam-extend.org         |
|    \\/     M anipulation  |                                                 |
\*---------------------------------------------------------------------------*/
FoamFile
{
    version     2.0;
    format      ascii;
    class       volVectorField;
    location    "2.4e-06";
    object      J_Arp1;
}
// * * * * * * * * * * * * * * * * * * * * * * * * * * * * * * * * * * * * * //

dimensions      [1 -1 -1 0 0 0 0];

internalField   nonuniform List<vector> 
300
(
(1.70778333740665e+16 -0 -0)
(5.69442300982031e+16 -0 -0)
(9.96128052121818e+16 -0 -0)
(1.3908340617377e+17 -0 -0)
(1.78512699740358e+17 -0 -0)
(2.18094255205988e+17 -0 -0)
(2.57581341123302e+17 -0 -0)
(2.96985892933558e+17 -0 -0)
(3.36309753410249e+17 -0 -0)
(3.75538591965239e+17 -0 -0)
(4.14662375265664e+17 -0 -0)
(4.53671539727152e+17 -0 -0)
(4.92556253002306e+17 -0 -0)
(5.3130686260868e+17 -0 -0)
(5.69913882308393e+17 -0 -0)
(6.08367978627684e+17 -0 -0)
(6.46659992054259e+17 -0 -0)
(6.84780952741641e+17 -0 -0)
(7.22722094943492e+17 -0 -0)
(7.60474871895481e+17 -0 -0)
(7.98030971251444e+17 -0 -0)
(8.35382330984127e+17 -0 -0)
(8.72521155531132e+17 -0 -0)
(9.09439931668172e+17 -0 -0)
(9.46131445474427e+17 -0 -0)
(9.82588798939553e+17 -0 -0)
(1.01880542715066e+18 -0 -0)
(1.05477511581524e+18 -0 -0)
(1.0904920185799e+18 -0 -0)
(1.12595067485628e+18 -0 -0)
(1.1611460281583e+18 -0 -0)
(1.19607344397949e+18 -0 -0)
(1.2307287277937e+18 -0 -0)
(1.26510814412537e+18 -0 -0)
(1.29920843434689e+18 -0 -0)
(1.33302683535183e+18 -0 -0)
(1.36656109825958e+18 -0 -0)
(1.39980950682447e+18 -0 -0)
(1.43277089547131e+18 -0 -0)
(1.46544466788301e+18 -0 -0)
(1.4978308151402e+18 -0 -0)
(1.52992993376613e+18 -0 -0)
(1.56174324309477e+18 -0 -0)
(1.59327260301279e+18 -0 -0)
(1.62452053085808e+18 -0 -0)
(1.65549021864271e+18 -0 -0)
(1.68618554930581e+18 -0 -0)
(1.71661111245585e+18 -0 -0)
(1.74677222008688e+18 -0 -0)
(1.77667492164186e+18 -0 -0)
(1.8063260183524e+18 -0 -0)
(1.83573307699965e+18 -0 -0)
(1.86490444313771e+18 -0 -0)
(1.89384925358501e+18 -0 -0)
(1.92257744827948e+18 -0 -0)
(1.95109978083378e+18 -0 -0)
(1.97942782898288e+18 -0 -0)
(2.00757400413825e+18 -0 -0)
(2.03555155922442e+18 -0 -0)
(2.06337459618757e+18 -0 -0)
(2.09105807250137e+18 -0 -0)
(2.11861780648968e+18 -0 -0)
(2.14607048130654e+18 -0 -0)
(2.17343364841084e+18 -0 -0)
(2.20072572923744e+18 -0 -0)
(2.22796601576957e+18 -0 -0)
(2.25517466995251e+18 -0 -0)
(2.28237272147803e+18 -0 -0)
(2.30958206516989e+18 -0 -0)
(2.33682545542969e+18 -0 -0)
(2.36412649987708e+18 -0 -0)
(2.39150965190218e+18 -0 -0)
(2.41900020105142e+18 -0 -0)
(2.44662426183835e+18 -0 -0)
(2.47440876116718e+18 -0 -0)
(2.50238142355462e+18 -0 -0)
(2.53057075438802e+18 -0 -0)
(2.55900602256307e+18 -0 -0)
(2.58771723965421e+18 -0 -0)
(2.61673513802495e+18 -0 -0)
(2.64609114638418e+18 -0 -0)
(2.67581736365477e+18 -0 -0)
(2.70594653067682e+18 -0 -0)
(2.73651199965673e+18 -0 -0)
(2.76754770101051e+18 -0 -0)
(2.79908810807486e+18 -0 -0)
(2.83116819987635e+18 -0 -0)
(2.86382342120408e+18 -0 -0)
(2.89708963976077e+18 -0 -0)
(2.93100310144804e+18 -0 -0)
(2.96560038284538e+18 -0 -0)
(3.00091834047518e+18 -0 -0)
(3.03699405842522e+18 -0 -0)
(3.0738647925197e+18 -0 -0)
(3.11156791192808e+18 -0 -0)
(3.15014083751303e+18 -0 -0)
(3.1896209780606e+18 -0 -0)
(3.23004566268595e+18 -0 -0)
(3.27145207102754e+18 -0 -0)
(3.31387716024517e+18 -0 -0)
(3.35735758807202e+18 -0 -0)
(3.401929633798e+18 -0 -0)
(3.44762911603801e+18 -0 -0)
(3.49449130629779e+18 -0 -0)
(3.5425508402186e+18 -0 -0)
(3.59184162572273e+18 -0 -0)
(3.64239674663424e+18 -0 -0)
(3.69424836406124e+18 -0 -0)
(3.7474276140231e+18 -0 -0)
(3.80196450182582e+18 -0 -0)
(3.8578877927847e+18 -0 -0)
(3.91522489927228e+18 -0 -0)
(3.97400176500868e+18 -0 -0)
(4.03424274555049e+18 -0 -0)
(4.09597048505147e+18 -0 -0)
(4.15920579015766e+18 -0 -0)
(4.22396749942936e+18 -0 -0)
(4.29027235057952e+18 -0 -0)
(4.35813484390593e+18 -0 -0)
(4.42756710135124e+18 -0 -0)
(4.49857872371819e+18 -0 -0)
(4.57117664405386e+18 -0 -0)
(4.64536497711946e+18 -0 -0)
(4.72114486672316e+18 -0 -0)
(4.79851433000152e+18 -0 -0)
(4.87746809759909e+18 -0 -0)
(4.95799745226361e+18 -0 -0)
(5.04009006432217e+18 -0 -0)
(5.12372982414158e+18 -0 -0)
(5.20889667304682e+18 -0 -0)
(5.29556643122068e+18 -0 -0)
(5.38371062378211e+18 -0 -0)
(5.47329630568339e+18 -0 -0)
(5.56428588370626e+18 -0 -0)
(5.65663693837789e+18 -0 -0)
(5.75030204436874e+18 -0 -0)
(5.84522858955864e+18 -0 -0)
(5.94135859439648e+18 -0 -0)
(6.03862853113506e+18 -0 -0)
(6.13696914278175e+18 -0 -0)
(6.2363052631765e+18 -0 -0)
(6.33655563780991e+18 -0 -0)
(6.43763274616617e+18 -0 -0)
(6.53944262648215e+18 -0 -0)
(6.64188470191475e+18 -0 -0)
(6.74485160923403e+18 -0 -0)
(6.8482290316464e+18 -0 -0)
(6.95189553412505e+18 -0 -0)
(7.05572240158766e+18 -0 -0)
(7.15957348135247e+18 -0 -0)
(7.2633050288168e+18 -0 -0)
(7.36676555693771e+18 -0 -0)
(7.46979568938082e+18 -0 -0)
(7.57222800692364e+18 -0 -0)
(7.67388693919204e+18 -0 -0)
(7.77458856353364e+18 -0 -0)
(7.87414047781074e+18 -0 -0)
(7.97234205992133e+18 -0 -0)
(8.0689841218243e+18 -0 -0)
(8.16384330182627e+18 -0 -0)
(8.25670520171509e+18 -0 -0)
(8.34737123121558e+18 -0 -0)
(8.43535938656773e+18 -0 -0)
(8.52072200325509e+18 -0 -0)
(8.60476378950646e+18 -0 -0)
(8.68011263012426e+18 -0 -0)
(8.75329890521866e+18 -0 -0)
(8.82405720193672e+18 -0 -0)
(8.8906669535807e+18 -0 -0)
(8.9519095819756e+18 -0 -0)
(9.01086003933012e+18 -0 -0)
(9.05838320966134e+18 -0 -0)
(9.10693713435315e+18 -0 -0)
(9.15873937378413e+18 -0 -0)
(9.19414382628667e+18 -0 -0)
(9.22421150625483e+18 -0 -0)
(9.26328015742564e+18 -0 -0)
(9.28796672604288e+18 -0 -0)
(9.32420907162847e+18 -0 -0)
(9.33788934112522e+18 -0 -0)
(9.35376252180346e+18 -0 -0)
(9.37576251302288e+18 -0 -0)
(9.38869161767147e+18 -0 -0)
(9.39157045510703e+18 -0 -0)
(9.41832948272159e+18 -0 -0)
(9.4115160034606e+18 -0 -0)
(9.43117511506072e+18 -0 -0)
(9.42992382149177e+18 -0 -0)
(9.44929578601991e+18 -0 -0)
(9.4465040286339e+18 -0 -0)
(9.45802319221246e+18 -0 -0)
(9.46253062517538e+18 -0 -0)
(9.47531268147227e+18 -0 -0)
(9.50272771550231e+18 -0 -0)
(9.59484596087553e+18 -0 -0)
(9.77525258673002e+18 -0 -0)
(1.0010842830705e+19 -0 -0)
(1.02405700144468e+19 -0 -0)
(1.0433995175437e+19 -0 -0)
(1.05963328824954e+19 -0 -0)
(1.07239327370221e+19 -0 -0)
(1.08200899195586e+19 -0 -0)
(1.09066949561942e+19 -0 -0)
(1.09824942512432e+19 -0 -0)
(1.10523861441489e+19 -0 -0)
(1.1117931324335e+19 -0 -0)
(1.1182379337733e+19 -0 -0)
(1.1244118413082e+19 -0 -0)
(1.13060994657851e+19 -0 -0)
(1.13670150879382e+19 -0 -0)
(1.14290222310141e+19 -0 -0)
(1.14906480498981e+19 -0 -0)
(1.15548893356175e+19 -0 -0)
(1.16183320064907e+19 -0 -0)
(1.16836999296194e+19 -0 -0)
(1.17476358512231e+19 -0 -0)
(1.181260686697e+19 -0 -0)
(1.18757707185765e+19 -0 -0)
(1.19395246047636e+19 -0 -0)
(1.20012447972691e+19 -0 -0)
(1.20635125425622e+19 -0 -0)
(1.21237329376625e+19 -0 -0)
(1.21846034297212e+19 -0 -0)
(1.22435883470489e+19 -0 -0)
(1.23031486132912e+19 -0 -0)
(1.2360773708111e+19 -0 -0)
(1.24192767556576e+19 -0 -0)
(1.24746734157598e+19 -0 -0)
(1.25312250271966e+19 -0 -0)
(1.2584098483341e+19 -0 -0)
(1.26386741148598e+19 -0 -0)
(1.2689298459262e+19 -0 -0)
(1.27419052751589e+19 -0 -0)
(1.27905983541855e+19 -0 -0)
(1.2841227980648e+19 -0 -0)
(1.28876561124456e+19 -0 -0)
(1.29366175501926e+19 -0 -0)
(1.29808434535763e+19 -0 -0)
(1.30284375864527e+19 -0 -0)
(1.30707450395241e+19 -0 -0)
(1.3116605290415e+19 -0 -0)
(1.31574562394605e+19 -0 -0)
(1.32014202623967e+19 -0 -0)
(1.32403776858349e+19 -0 -0)
(1.32832070598655e+19 -0 -0)
(1.33196428256874e+19 -0 -0)
(1.33612118987618e+19 -0 -0)
(1.33950667357019e+19 -0 -0)
(1.34349707030202e+19 -0 -0)
(1.34665178928645e+19 -0 -0)
(1.35046072673412e+19 -0 -0)
(1.35345273500747e+19 -0 -0)
(1.35709427681626e+19 -0 -0)
(1.35990879789237e+19 -0 -0)
(1.36343041243909e+19 -0 -0)
(1.36604443097326e+19 -0 -0)
(1.36949579639076e+19 -0 -0)
(1.37191390609312e+19 -0 -0)
(1.37531211442511e+19 -0 -0)
(1.37755687812827e+19 -0 -0)
(1.38090840870975e+19 -0 -0)
(1.38302088852374e+19 -0 -0)
(1.38632713057583e+19 -0 -0)
(1.38832038364359e+19 -0 -0)
(1.39155700989668e+19 -0 -0)
(1.3934093193872e+19 -0 -0)
(1.39650920483935e+19 -0 -0)
(1.39814240562154e+19 -0 -0)
(1.40113717364562e+19 -0 -0)
(1.40253808631263e+19 -0 -0)
(1.40544744166995e+19 -0 -0)
(1.40673717440915e+19 -0 -0)
(1.40956655758e+19 -0 -0)
(1.41082083655896e+19 -0 -0)
(1.41358841302292e+19 -0 -0)
(1.41483923282808e+19 -0 -0)
(1.41761396587735e+19 -0 -0)
(1.41884804479059e+19 -0 -0)
(1.42164844608393e+19 -0 -0)
(1.42285468405673e+19 -0 -0)
(1.42560851824249e+19 -0 -0)
(1.42669727196095e+19 -0 -0)
(1.42936987999483e+19 -0 -0)
(1.43024445002942e+19 -0 -0)
(1.43282903593712e+19 -0 -0)
(1.43350642386768e+19 -0 -0)
(1.43603635098424e+19 -0 -0)
(1.43660093407301e+19 -0 -0)
(1.43913477678225e+19 -0 -0)
(1.43970275293621e+19 -0 -0)
(1.44224761040986e+19 -0 -0)
(1.44281839199002e+19 -0 -0)
(1.44532152138734e+19 -0 -0)
(1.44582114496557e+19 -0 -0)
(1.44820626019052e+19 -0 -0)
(1.44858057967062e+19 -0 -0)
(1.45080995955135e+19 -0 -0)
(1.45101263145453e+19 -0 -0)
(1.4530405565934e+19 -0 -0)
(1.45195757385401e+19 -0 -0)
)
;

boundaryField
{
    electrode
    {
        type            calculated;
        value           uniform (141327410211.999 -0 -0);
    }
    ground
    {
        type            calculated;
        value           uniform (1.45386404197599e+19 -0 -0);
    }
    otherfaces
    {
        type            empty;
    }
}


// ************************************************************************* //
