/*--------------------------------*- C++ -*----------------------------------*\
| =========                 |                                                 |
| \\      /  F ield         | foam-extend: Open Source CFD                    |
|  \\    /   O peration     | Version:     4.0                                |
|   \\  /    A nd           | Web:         http://www.foam-extend.org         |
|    \\/     M anipulation  |                                                 |
\*---------------------------------------------------------------------------*/
FoamFile
{
    version     2.0;
    format      ascii;
    class       volVectorField;
    location    "2.4e-06";
    object      J_electron;
}
// * * * * * * * * * * * * * * * * * * * * * * * * * * * * * * * * * * * * * //

dimensions      [1 -1 -1 0 0 0 0];

internalField   nonuniform List<vector> 
300
(
(-1.27163307247931e+19 0 0)
(-1.2760128474212e+19 0 0)
(-1.48434010511226e+19 0 0)
(-1.4701011360074e+19 0 0)
(-1.46110417854387e+19 0 0)
(-1.4596870290892e+19 0 0)
(-1.45587128735519e+19 0 0)
(-1.45194793327282e+19 0 0)
(-1.4482175475795e+19 0 0)
(-1.44446094883298e+19 0 0)
(-1.4407050060612e+19 0 0)
(-1.4369624325623e+19 0 0)
(-1.43322975132362e+19 0 0)
(-1.42950756867373e+19 0 0)
(-1.4257968895713e+19 0 0)
(-1.42209831447056e+19 0 0)
(-1.41841244187678e+19 0 0)
(-1.41473986863369e+19 0 0)
(-1.41108117032335e+19 0 0)
(-1.40743688361876e+19 0 0)
(-1.4038075122005e+19 0 0)
(-1.40019352776488e+19 0 0)
(-1.39659537805649e+19 0 0)
(-1.39301345742936e+19 0 0)
(-1.38944813515802e+19 0 0)
(-1.38589973591228e+19 0 0)
(-1.38236854136389e+19 0 0)
(-1.37885479833001e+19 0 0)
(-1.3753587048003e+19 0 0)
(-1.3718804070079e+19 0 0)
(-1.3684200157705e+19 0 0)
(-1.36497759523872e+19 0 0)
(-1.36155314080635e+19 0 0)
(-1.35814662396324e+19 0 0)
(-1.35475794699538e+19 0 0)
(-1.35138695929878e+19 0 0)
(-1.34803346005933e+19 0 0)
(-1.34469719928474e+19 0 0)
(-1.34137785836144e+19 0 0)
(-1.3380750671121e+19 0 0)
(-1.33478839253527e+19 0 0)
(-1.33151735186734e+19 0 0)
(-1.32826138719866e+19 0 0)
(-1.32501989160145e+19 0 0)
(-1.32179218055446e+19 0 0)
(-1.3185775173459e+19 0 0)
(-1.31537510024822e+19 0 0)
(-1.31218405360211e+19 0 0)
(-1.30900344128508e+19 0 0)
(-1.30583225930039e+19 0 0)
(-1.30266943537679e+19 0 0)
(-1.29951382792973e+19 0 0)
(-1.29636422750419e+19 0 0)
(-1.29321935242068e+19 0 0)
(-1.29007785872709e+19 0 0)
(-1.28693832043969e+19 0 0)
(-1.28379924147997e+19 0 0)
(-1.28065906864365e+19 0 0)
(-1.27751616576852e+19 0 0)
(-1.27436882697338e+19 0 0)
(-1.27121527623272e+19 0 0)
(-1.26805367029356e+19 0 0)
(-1.26488208253174e+19 0 0)
(-1.26169852927612e+19 0 0)
(-1.2585009515847e+19 0 0)
(-1.25528721768191e+19 0 0)
(-1.25205513654428e+19 0 0)
(-1.24880242450505e+19 0 0)
(-1.24552675816906e+19 0 0)
(-1.24222573941136e+19 0 0)
(-1.23889689219553e+19 0 0)
(-1.23553768319809e+19 0 0)
(-1.23214552099146e+19 0 0)
(-1.22871774211175e+19 0 0)
(-1.22525162688972e+19 0 0)
(-1.22174440569299e+19 0 0)
(-1.21819322478814e+19 0 0)
(-1.21459520275436e+19 0 0)
(-1.21094738724992e+19 0 0)
(-1.20724678607818e+19 0 0)
(-1.2034903444679e+19 0 0)
(-1.19967496562441e+19 0 0)
(-1.19579750756904e+19 0 0)
(-1.19185478698221e+19 0 0)
(-1.18784358214772e+19 0 0)
(-1.18376062535525e+19 0 0)
(-1.17960261212554e+19 0 0)
(-1.17536622054154e+19 0 0)
(-1.17104808623368e+19 0 0)
(-1.16664481718406e+19 0 0)
(-1.16215301270028e+19 0 0)
(-1.15756923147749e+19 0 0)
(-1.15289002695973e+19 0 0)
(-1.14811193203192e+19 0 0)
(-1.14323147970325e+19 0 0)
(-1.13824517589445e+19 0 0)
(-1.13314954000277e+19 0 0)
(-1.12794107683028e+19 0 0)
(-1.12261629032168e+19 0 0)
(-1.11717170552216e+19 0 0)
(-1.11160383880508e+19 0 0)
(-1.10590921023029e+19 0 0)
(-1.10008437273537e+19 0 0)
(-1.09412587853022e+19 0 0)
(-1.08803028622697e+19 0 0)
(-1.08179419813663e+19 0 0)
(-1.07541421354653e+19 0 0)
(-1.06888695742978e+19 0 0)
(-1.06220907202195e+19 0 0)
(-1.05537721908808e+19 0 0)
(-1.04838808169538e+19 0 0)
(-1.04123835056768e+19 0 0)
(-1.03392472658959e+19 0 0)
(-1.02644392391837e+19 0 0)
(-1.01879264832683e+19 0 0)
(-1.01096761214978e+19 0 0)
(-1.0029654934433e+19 0 0)
(-9.94782946695158e+18 0 0)
(-9.86416594266515e+18 0 0)
(-9.77862983696777e+18 0 0)
(-9.69118589455958e+18 0 0)
(-9.60179784414711e+18 0 0)
(-9.51042805914193e+18 0 0)
(-9.41703721286107e+18 0 0)
(-9.32158411181654e+18 0 0)
(-9.22402498951407e+18 0 0)
(-9.12431310213585e+18 0 0)
(-9.02239821397544e+18 0 0)
(-8.91822575400989e+18 0 0)
(-8.81173617597219e+18 0 0)
(-8.70286402334281e+18 0 0)
(-8.59153670502875e+18 0 0)
(-8.47767362640701e+18 0 0)
(-8.36118446845565e+18 0 0)
(-8.2419677825566e+18 0 0)
(-8.11990912820209e+18 0 0)
(-7.99487895822297e+18 0 0)
(-7.86673009823633e+18 0 0)
(-7.7352951020834e+18 0 0)
(-7.60038300390733e+18 0 0)
(-7.46177558610549e+18 0 0)
(-7.31922326762186e+18 0 0)
(-7.17244010794897e+18 0 0)
(-7.02109847640343e+18 0 0)
(-6.86482276747418e+18 0 0)
(-6.70318198929437e+18 0 0)
(-6.53568188009991e+18 0 0)
(-6.36175582190318e+18 0 0)
(-6.18075456277892e+18 0 0)
(-5.991934992179e+18 0 0)
(-5.79444788775354e+18 0 0)
(-5.58732511978979e+18 0 0)
(-5.3694663885901e+18 0 0)
(-5.13962419970638e+18 0 0)
(-4.89639606643851e+18 0 0)
(-4.6382081019132e+18 0 0)
(-4.36328181580851e+18 0 0)
(-4.0696480697963e+18 0 0)
(-3.75514630528277e+18 0 0)
(-3.41575952696764e+18 0 0)
(-3.04563427338827e+18 0 0)
(-2.64140700259136e+18 0 0)
(-2.13487322817416e+18 0 0)
(-1.37802310716018e+18 0 0)
(-1.38187790718337e+17 0 0)
(1.14230345710698e+18 0 0)
(1.79775391193367e+18 0 0)
(2.19382505378991e+18 0 0)
(2.93307168737198e+18 0 0)
(3.81711536008829e+18 0 0)
(4.09880434253601e+18 0 0)
(3.33883509357989e+18 0 0)
(2.53624206235795e+18 0 0)
(2.06670275130425e+18 0 0)
(-1.69703596219171e+17 0 0)
(-1.64064161986878e+18 0 0)
(-1.73001286794871e+18 0 0)
(-2.8998045010074e+18 0 0)
(-2.51549985178806e+18 0 0)
(-6.80210527739183e+17 0 0)
(2.22816866903943e+18 0 0)
(7.06281516818969e+18 0 0)
(1.17509237469222e+19 0 0)
(1.68873323383635e+19 0 0)
(2.15603854601916e+19 0 0)
(2.60071990268144e+19 0 0)
(2.6375914246927e+19 0 0)
(2.47335920552428e+19 0 0)
(2.32082661873067e+19 0 0)
(1.86008455888868e+19 0 0)
(1.4526373664911e+19 0 0)
(9.80045191847123e+18 0 0)
(5.42177247820481e+18 0 0)
(6.66058337171653e+18 0 0)
(-3.32436494336288e+18 0 0)
(-5.62536547921052e+17 0 0)
(-3.52023977295432e+18 0 0)
(-2.99066177189345e+18 0 0)
(-3.01116908191354e+18 0 0)
(-3.16647566593105e+18 0 0)
(-3.39081646519638e+18 0 0)
(-3.55108492400255e+18 0 0)
(-3.62100537064924e+18 0 0)
(-3.64186537654478e+18 0 0)
(-3.62361224440065e+18 0 0)
(-3.58830543822064e+18 0 0)
(-3.54142120159624e+18 0 0)
(-3.49125764962472e+18 0 0)
(-3.43552473695617e+18 0 0)
(-3.37767040134232e+18 0 0)
(-3.31774485562839e+18 0 0)
(-3.25816728518852e+18 0 0)
(-3.19668597320188e+18 0 0)
(-3.13483412349093e+18 0 0)
(-3.0725608183959e+18 0 0)
(-3.01011621259383e+18 0 0)
(-2.94764129784181e+18 0 0)
(-2.88528984133262e+18 0 0)
(-2.82317841382954e+18 0 0)
(-2.76149176058252e+18 0 0)
(-2.69998602308327e+18 0 0)
(-2.63959042215278e+18 0 0)
(-2.579837495005e+18 0 0)
(-2.52079247093515e+18 0 0)
(-2.46267414928479e+18 0 0)
(-2.40554570283169e+18 0 0)
(-2.34948017992286e+18 0 0)
(-2.29453689133719e+18 0 0)
(-2.24075860223732e+18 0 0)
(-2.18817835967718e+18 0 0)
(-2.13682122081119e+18 0 0)
(-2.08670420089222e+18 0 0)
(-2.0378376049436e+18 0 0)
(-1.99022539440693e+18 0 0)
(-1.94386589694212e+18 0 0)
(-1.89875211249912e+18 0 0)
(-1.85487314285021e+18 0 0)
(-1.81221355993084e+18 0 0)
(-1.77075530135834e+18 0 0)
(-1.73047705684201e+18 0 0)
(-1.69135522028516e+18 0 0)
(-1.65336663626449e+18 0 0)
(-1.61648474236481e+18 0 0)
(-1.58067443435829e+18 0 0)
(-1.54590686432906e+18 0 0)
(-1.51215312374961e+18 0 0)
(-1.47938914361577e+18 0 0)
(-1.44753732465449e+18 0 0)
(-1.41665723156043e+18 0 0)
(-1.38672568049027e+18 0 0)
(-1.35760267876956e+18 0 0)
(-1.3293211363199e+18 0 0)
(-1.30184622963134e+18 0 0)
(-1.27515347975275e+18 0 0)
(-1.24922095017548e+18 0 0)
(-1.22401744389951e+18 0 0)
(-1.19946633668043e+18 0 0)
(-1.17565993269704e+18 0 0)
(-1.15251851280818e+18 0 0)
(-1.12995116908979e+18 0 0)
(-1.1080179569532e+18 0 0)
(-1.0866685904879e+18 0 0)
(-1.0658869491453e+18 0 0)
(-1.04565134562985e+18 0 0)
(-1.02593980844645e+18 0 0)
(-1.00673375517125e+18 0 0)
(-9.8795703358699e+17 0 0)
(-9.69805385170047e+17 0 0)
(-9.52030371797222e+17 0 0)
(-9.34704685987559e+17 0 0)
(-9.17804191075606e+17 0 0)
(-9.01320341951681e+17 0 0)
(-8.85239405984637e+17 0 0)
(-8.69549097150287e+17 0 0)
(-8.54237081945751e+17 0 0)
(-8.39291668026185e+17 0 0)
(-8.24701432097817e+17 0 0)
(-8.10455451503398e+17 0 0)
(-7.96542317387745e+17 0 0)
(-7.82953611357328e+17 0 0)
(-7.69664184875825e+17 0 0)
(-7.56699121896463e+17 0 0)
(-7.43755805691324e+17 0 0)
(-7.31703289281914e+17 0 0)
(-7.19644966670016e+17 0 0)
(-7.07891661535687e+17 0 0)
(-6.96390406266622e+17 0 0)
(-6.85180594872066e+17 0 0)
(-6.73920444012924e+17 0 0)
(-6.63566885426611e+17 0 0)
(-6.53306492794955e+17 0 0)
(-6.43207967997376e+17 0 0)
(-6.33054839667707e+17 0 0)
(-6.24178215374463e+17 0 0)
(-6.14713433388219e+17 0 0)
(-6.06436274990301e+17 0 0)
(-5.98116593161225e+17 0 0)
(-5.91495791535282e+17 0 0)
(-5.85252834047834e+17 0 0)
(-5.75103935925933e+17 0 0)
)
;

boundaryField
{
    electrode
    {
        type            calculated;
        value           uniform (-1.48049138991247e+19 0 0);
    }
    ground
    {
        type            calculated;
        value           uniform (-5.72498741151504e+17 0 0);
    }
    otherfaces
    {
        type            empty;
    }
}


// ************************************************************************* //
