/*--------------------------------*- C++ -*----------------------------------*\
| =========                 |                                                 |
| \\      /  F ield         | foam-extend: Open Source CFD                    |
|  \\    /   O peration     | Version:     4.0                                |
|   \\  /    A nd           | Web:         http://www.foam-extend.org         |
|    \\/     M anipulation  |                                                 |
\*---------------------------------------------------------------------------*/
FoamFile
{
    version     2.0;
    format      ascii;
    class       volScalarField;
    location    "2.4e-06";
    object      N_electronMean;
}
// * * * * * * * * * * * * * * * * * * * * * * * * * * * * * * * * * * * * * //

dimensions      [0 0 0 1 0 0 0];

internalField   nonuniform List<scalar> 
300
(
6.05588153299422e+16
6.05575852508011e+16
6.0553697933801e+16
6.05465155554811e+16
6.05360478895242e+16
6.05222277956464e+16
6.05050081049397e+16
6.04843564940041e+16
6.04602448779434e+16
6.04326513965538e+16
6.04015594862207e+16
6.03669574265801e+16
6.03288379283105e+16
6.0287197747608e+16
6.02420374186927e+16
6.01933609874358e+16
6.01411757891853e+16
6.00854922608925e+16
6.00263237599579e+16
5.99636863948334e+16
5.98975988784429e+16
5.98280823915075e+16
5.97551604523927e+16
5.96788587843132e+16
5.95992052254848e+16
5.95162296647145e+16
5.9429963903945e+16
5.93404415226111e+16
5.92476977727501e+16
5.91517694290162e+16
5.90526947024174e+16
5.89505132391533e+16
5.88452659891921e+16
5.87369949769765e+16
5.862574314638e+16
5.85115542440041e+16
5.83944727057295e+16
5.82745435565588e+16
5.81518122987333e+16
5.80263247983232e+16
5.78981271991971e+16
5.77672658341727e+16
5.76337871116e+16
5.7497737414157e+16
5.73591630161969e+16
5.72181100043246e+16
5.7074624205991e+16
5.69287511302304e+16
5.67805359309177e+16
5.66300233921113e+16
5.64772579651864e+16
5.63222838079758e+16
5.61651447412281e+16
5.60058841353497e+16
5.58445447321037e+16
5.56811684596931e+16
5.5515796278471e+16
5.53484680662443e+16
5.51792225372136e+16
5.500809716392e+16
5.48351281102997e+16
5.46603501715873e+16
5.44837967038912e+16
5.43054996313813e+16
5.4125489546623e+16
5.39437956409521e+16
5.37604454755192e+16
5.35754648526458e+16
5.33888777633311e+16
5.32007063314146e+16
5.30109707551409e+16
5.28196892887091e+16
5.2626878301109e+16
5.24325522492162e+16
5.22367235520132e+16
5.20394026045905e+16
5.1840597843035e+16
5.16403156811482e+16
5.14385603258784e+16
5.12353336622874e+16
5.1030635237518e+16
5.0824462063204e+16
5.0616808422825e+16
5.04076658003313e+16
5.01970228414445e+16
4.99848653719745e+16
4.97711762967141e+16
4.95559353994339e+16
4.93391192406112e+16
4.91207011261236e+16
4.89006510091232e+16
4.86789355012457e+16
4.84555179120554e+16
4.823035798987e+16
4.80034116731021e+16
4.7774630996256e+16
4.75439639910323e+16
4.73113545862329e+16
4.70767425056308e+16
4.68400631945898e+16
4.66012477412695e+16
4.6360222734096e+16
4.611691020859e+16
4.58712276494009e+16
4.56230878200385e+16
4.53723986275115e+16
4.51190630492538e+16
4.48629790218409e+16
4.46040393770035e+16
4.43421316991337e+16
4.40771381533531e+16
4.38089353799702e+16
4.35373944200481e+16
4.32623806898322e+16
4.29837539058045e+16
4.2701368009252e+16
4.24150712291062e+16
4.21247060610321e+16
4.18301090656977e+16
4.15311106938393e+16
4.12275352766941e+16
4.09192010719687e+16
4.06059202875671e+16
4.02874991362612e+16
3.99637377218432e+16
3.96344298083315e+16
3.92993627768805e+16
3.89583176629788e+16
3.86110690923553e+16
3.82573852522405e+16
3.7897027947952e+16
3.75297526643135e+16
3.71553086060343e+16
3.67734387411552e+16
3.6383880035146e+16
3.59863637570659e+16
3.55806154983352e+16
3.51663551432094e+16
3.47432971091534e+16
3.4311150608935e+16
3.38696197328166e+16
3.34184035640926e+16
3.29571964293115e+16
3.2485688223126e+16
3.20035648806521e+16
3.15105088076475e+16
3.10061990883273e+16
3.04903116739251e+16
2.99625195923488e+16
2.9422493382644e+16
2.8869901750525e+16
2.83044119664257e+16
2.77256903367401e+16
2.71334028496674e+16
2.65272156188459e+16
2.59067954935292e+16
2.52718109468026e+16
2.46219330088117e+16
2.39568361198637e+16
2.32761991353055e+16
2.25797066918193e+16
2.18670502469201e+16
2.11379287062401e+16
2.03920480793711e+16
1.96291167425932e+16
1.88488260401013e+16
1.80508158236108e+16
1.72346569439618e+16
1.63998691443881e+16
1.5545962104544e+16
1.46724892840596e+16
1.37791324323124e+16
1.28659207185736e+16
1.19336002810755e+16
1.09840099258883e+16
1.00204337669457e+16
9.04803466328584e+15
8.07425173944634e+15
7.10894276719132e+15
6.1642698945866e+15
5.25421978678777e+15
4.39374497397618e+15
3.59757323920451e+15
2.87875221979514e+15
2.24723654333316e+15
1.70872333042567e+15
1.26400243340149e+15
908996487061980
635465399529884
432247007343162
286710433552027
186191790304865
119139888385593
75890931162855.3
48283639204517.3
30700412836865.2
19591858065882.3
12713546835534.1
8610885134135.02
6218257009951.5
4851185113875.61
4080134572431.64
3631653740134.58
3351614033991.26
3162204625025.01
3024322188402.81
2917415552923.29
2829924376309.66
2754957914510.56
2688160841983.55
2626757538156.73
2568902880479.87
2513356230306.63
2459258821899.42
2406024303999.12
2353251339335.31
2300678135626.38
2248144914555.35
2195565760243.6
2142911560937.19
2090194937777.54
2037436730623.07
1984682720935.46
1932014595639.21
1879529148107.92
1827330778446.52
1775526197176.94
1724218889745.86
1673507640161.43
1623484246692.64
1574232123764.77
1525827384090.82
1478336419204.03
1431816762632.05
1386317939611.06
1341880673937.52
1298537037585.01
1256312503608.74
1215224454174.91
1175283661824.22
1136495704028.59
1098860095347.59
1062372743756.95
1027025330814.25
992805614678.782
959698081805.036
927681929001.019
896733608726.682
866828322685.204
837941345754.516
810048187735.553
783123020443.25
757139271103.564
732069294109.769
707885487946.491
684560676792.891
662068667011.977
640381846854.897
619471065271.455
599310396227.225
579875728675.491
561141582131.8
543083090943.606
525675384454.419
508894345949.901
492717191364.499
477122028089.706
462087439854.042
447591303518.695
433611427011.858
420125971219.053
407115574147.848
394563169905.142
382453650603.404
370772776781.033
359507194944.704
348644202306.17
338171446593.748
328077527707.2
318352021394.972
308985148326.548
299966506215.994
291286215834.648
282926026249.194
274861416518.303
267082486898.378
259591941079.42
252393544734.193
245491249598.265
238872555368.046
232517242700.287
226433108293.616
220650522911.259
215166727282.61
210002582827.699
205223087314.716
200927320024.852
197318345790.774
194729690095.66
193758584645.148
)
;

boundaryField
{
    electrode
    {
        type            calculated;
        value           uniform 6.05588153304335e+16;
    }
    ground
    {
        type            calculated;
        value           uniform 194515255350.411;
    }
    otherfaces
    {
        type            empty;
    }
}


// ************************************************************************* //
