/*--------------------------------*- C++ -*----------------------------------*\
| =========                 |                                                 |
| \\      /  F ield         | foam-extend: Open Source CFD                    |
|  \\    /   O peration     | Version:     4.0                                |
|   \\  /    A nd           | Web:         http://www.foam-extend.org         |
|    \\/     M anipulation  |                                                 |
\*---------------------------------------------------------------------------*/
FoamFile
{
    version     2.0;
    format      ascii;
    class       volScalarField;
    location    "2.4e-06";
    object      Phi;
}
// * * * * * * * * * * * * * * * * * * * * * * * * * * * * * * * * * * * * * //

dimensions      [0 0 0 1 0 0 0];

internalField   nonuniform List<scalar> 
300
(
699.999951623958
699.99974984183
699.99931439854
699.998650227768
699.997767206508
699.996663827988
699.995340022095
699.993796068318
699.992032090988
699.990048250033
699.987844738074
699.985421766345
699.982779567389
699.979918395149
699.976838524217
699.973540249373
699.970023885062
699.966289764779
699.962338240399
699.958169681432
699.953784474218
699.949183021035
699.944365739139
699.939333059715
699.934085426749
699.928623295806
699.922947132714
699.917057412156
699.910954616152
699.904639232444
699.898111752763
699.891372670987
699.884422481176
699.877261675487
699.869890741959
699.86231016217
699.854520408753
699.846521942773
699.838315210959
699.829900642794
699.821278647436
699.812449610498
699.803413890656
699.794171816092
699.784723680774
699.775069740556
699.765210209098
699.755145253611
699.744874990408
699.734399480277
699.723718723643
699.712832655551
699.701741140436
699.69044396669
699.678940841027
699.667231382625
699.655315117063
699.643191470029
699.630859760813
699.618319195564
699.605568860322
699.592607713818
699.579434580026
699.566048140482
699.55244692635
699.538629310239
699.524593497765
699.510337518855
699.495859218782
699.48115624893
699.466226057288
699.451065878659
699.435672724586
699.420043372975
699.404174357429
699.388061956259
699.371702181193
699.355090765744
699.338223153255
699.321094484582
699.303699585428
699.286032953306
699.268088744106
699.24986075827
699.231342426534
699.212526795252
699.19340651124
699.173973806152
699.154220480346
699.134137886213
699.113716910945
699.092947958708
699.071820932178
699.050325213407
699.028449643977
699.006182504378
698.983511492587
698.960423701764
698.936905597015
698.912942991153
698.888521019374
698.863624112783
698.83823597066
698.812339531375
698.785916941851
698.758949525447
698.731417748127
698.703301182791
698.674578471589
698.645227286056
698.615224284881
698.584545069096
698.553164134459
698.521054820776
698.488189257877
698.454538307957
698.420071503911
698.384756983323
698.348561417653
698.311449936185
698.273386044208
698.234331534866
698.194246394016
698.153088697411
698.110814499385
698.067377712148
698.0227299747
697.976820510225
697.929595970692
697.88100026723
697.830974384653
697.779456178294
697.726380151057
697.671677208295
697.615274387815
697.557094561884
697.497056107666
697.435072542013
697.371052115849
697.3048973627
697.236504595033
697.165763341029
697.092555713213
697.016755698895
696.938228360647
696.856828932971
696.772401798814
696.684779326574
696.593780544636
696.499209626078
696.400854150832
696.29848310612
696.191844578015
696.080663077314
695.964636431004
695.843432155717
695.716683212746
695.583983019743
695.444879564302
695.298868451205
695.145384652447
694.983792333853
694.813373069956
694.633312750372
694.442673296232
694.240332104881
694.02487152847
693.794594336365
693.547575007002
693.281585282434
692.993944797433
692.681445352892
692.340421286087
691.966860520501
691.556128078764
691.102963682721
690.602220075226
690.047938537881
689.433786205876
688.753811135386
688.001769314824
687.172018454843
686.259274765248
685.258361495703
684.16588834213
682.978701706143
681.69432044986
680.311551682292
678.83019687591
677.250033513358
675.571342678775
673.795510412633
671.924008138068
669.958447975618
667.899626135624
665.748224945794
663.504494804493
661.168019014879
658.738622040878
656.216256759516
653.601070910122
650.89339650571
648.093711901276
645.203009341044
642.22226054723
639.152364195823
635.994142085065
632.748322389963
629.415560561402
625.996423567893
622.491406229611
618.900921262391
615.225539293541
611.465913633901
607.622641397657
603.696249276642
599.687221715519
595.595986954615
591.422939959736
587.168428433817
582.832773112096
578.416252231615
573.91912080443
569.341594229001
564.683866867164
559.946224834709
555.129076196847
550.232793100349
545.257739069127
540.204243292562
535.072632145508
529.863196748335
524.576228897416
519.211985585516
513.770725747799
508.252675679539
502.658066553568
496.987094962275
491.239966539856
485.416848875313
479.517922651736
473.543330711917
467.493228212596
461.367810131034
455.167394020259
448.892259641834
442.542707605777
436.118995296972
429.621408817583
423.050187284893
416.405602410989
409.687877469294
402.897267580216
396.033980861553
389.098258041608
382.09029086306
375.01030812708
367.858483797685
360.63503562981
353.34012006956
345.973943634259
338.536645986445
331.028421230109
323.449393127175
315.799743578719
308.079582538464
300.289081581329
292.428341008304
284.497563537813
276.496961322065
268.426817547184
260.287332590749
252.078778935307
243.801345888595
235.455292367302
227.040796531816
218.5581030376
210.007376355719
201.388848348646
192.702669684519
183.949060707322
175.128162395814
166.240188426251
157.285272246582
148.263625837024
139.175375857898
130.020732153446
120.799813437553
111.512823895845
102.159872045321
92.7411515185556
83.2567607857536
73.706883446463
64.091610742277
54.4111199975397
44.6654990042878
34.8549215571572
24.979473961161
15.0393288143532
5.03457289770725
)
;

boundaryField
{
    electrode
    {
        type            fixedValue;
        value           uniform 700;
    }
    ground
    {
        type            fixedValue;
        value           uniform 0;
    }
    otherfaces
    {
        type            empty;
    }
}


// ************************************************************************* //
