/*--------------------------------*- C++ -*----------------------------------*\
| =========                 |                                                 |
| \\      /  F ield         | foam-extend: Open Source CFD                    |
|  \\    /   O peration     | Version:     4.0                                |
|   \\  /    A nd           | Web:         http://www.foam-extend.org         |
|    \\/     M anipulation  |                                                 |
\*---------------------------------------------------------------------------*/
FoamFile
{
    version     2.0;
    format      ascii;
    class       volScalarField;
    location    "2.4e-06";
    object      Sy_electron;
}
// * * * * * * * * * * * * * * * * * * * * * * * * * * * * * * * * * * * * * //

dimensions      [1 -3 -1 0 0 0 0];

internalField   nonuniform List<scalar> 
300
(
5.44579199992765e-13
5.44695717805505e-13
5.44753115631169e-13
5.44751865741422e-13
5.44749997575486e-13
5.44744222853431e-13
5.44733216994983e-13
5.44717712013601e-13
5.4469774668311e-13
5.44673335624877e-13
5.44644539687493e-13
5.44611412072696e-13
5.44574005586858e-13
5.44532376916674e-13
5.44486585910308e-13
5.44436695932579e-13
5.44382768725433e-13
5.4432487803186e-13
5.44263102132512e-13
5.44197520798846e-13
5.44128218090743e-13
5.44055282235986e-13
5.43978805589559e-13
5.43898884518873e-13
5.4381559034885e-13
5.43729050218141e-13
5.43639369649031e-13
5.43546654910043e-13
5.43451036796679e-13
5.43352633725196e-13
5.43251533731011e-13
5.43147873159792e-13
5.4304180303323e-13
5.42933453891995e-13
5.42822957956514e-13
5.42710448856335e-13
5.42596053584546e-13
5.42479911769186e-13
5.42362164964064e-13
5.42242949073542e-13
5.42122400240643e-13
5.42000657651832e-13
5.41877857535079e-13
5.41754134899937e-13
5.41629623111081e-13
5.41504453370423e-13
5.41378750622301e-13
5.41252638053136e-13
5.41126219683815e-13
5.4099960704403e-13
5.40872888086681e-13
5.40746189548624e-13
5.40619601761629e-13
5.40493248920171e-13
5.40367231912487e-13
5.40241658412862e-13
5.40116605714105e-13
5.39992141906542e-13
5.39868325229203e-13
5.39745200289339e-13
5.39622807579542e-13
5.39501172367752e-13
5.39380298547135e-13
5.3926015256578e-13
5.39140723887574e-13
5.39022023119139e-13
5.38904005828682e-13
5.38786610703543e-13
5.38669758590154e-13
5.38553351610124e-13
5.38437268976448e-13
5.38321359340022e-13
5.3820545936749e-13
5.38089398108272e-13
5.3797294707298e-13
5.37855877265619e-13
5.37737942704142e-13
5.37618853814379e-13
5.37498332144568e-13
5.37375989084569e-13
5.37251510508829e-13
5.37124498749411e-13
5.36994515485926e-13
5.3686109728843e-13
5.36723718854648e-13
5.36581854424121e-13
5.36434946819583e-13
5.36282382161163e-13
5.36123487478364e-13
5.35957579149733e-13
5.35783909430815e-13
5.35601626304706e-13
5.35409987270576e-13
5.3520811961106e-13
5.34995099919399e-13
5.34769955049875e-13
5.34531660307036e-13
5.34279138066891e-13
5.34011240792508e-13
5.33726781905867e-13
5.33424527209222e-13
5.3310317645045e-13
5.32761320104719e-13
5.32397578091715e-13
5.32010449809887e-13
5.3159837003368e-13
5.31159743284624e-13
5.30692855367841e-13
5.3019596694155e-13
5.29667260314484e-13
5.29104834657105e-13
5.28506714554446e-13
5.27870841166164e-13
5.27195086474915e-13
5.26477243656855e-13
5.25715003563973e-13
5.24905973503619e-13
5.24047738976644e-13
5.23137765908637e-13
5.22173420671506e-13
5.21151955470725e-13
5.2007058722987e-13
5.18926382243617e-13
5.17716367650831e-13
5.16437475886223e-13
5.15086522875428e-13
5.13660189732844e-13
5.12155118383435e-13
5.10567808620236e-13
5.08894666705351e-13
5.07131972936587e-13
5.05275913597507e-13
5.03322561160743e-13
5.01267845541062e-13
4.99107566093379e-13
4.96837475016447e-13
4.94453181344246e-13
4.91950130189947e-13
4.89323645490574e-13
4.86568954107154e-13
4.83681113384865e-13
4.80655038845943e-13
4.77485480978284e-13
4.74167040360093e-13
4.70694171559432e-13
4.67061222934264e-13
4.63262331503394e-13
4.59291458206531e-13
4.55142365330408e-13
4.50808604193782e-13
4.46283603057551e-13
4.41560538536098e-13
4.36632327211814e-13
4.31491732641591e-13
4.26131260945048e-13
4.20543133676995e-13
4.14719322517227e-13
4.08651580213397e-13
4.02331359503064e-13
3.95749895871097e-13
3.88898445393982e-13
3.81768240071417e-13
3.74354308040694e-13
3.66664940042046e-13
3.58732731642366e-13
3.50575534994539e-13
3.42130930814392e-13
3.33306679860936e-13
3.24075980247528e-13
3.14445259283075e-13
3.04351781819707e-13
2.93635989064688e-13
2.82180888017207e-13
2.70002371054781e-13
2.56991855730856e-13
2.43089514447091e-13
2.28597545923092e-13
2.13715237508814e-13
1.9870732957385e-13
1.84254533288385e-13
1.7116751160113e-13
1.60609625057904e-13
1.54136312721848e-13
1.54089134230889e-13
1.57023181629503e-13
1.66557427017423e-13
1.99812982917652e-13
2.87624285595023e-13
5.05729924030278e-13
1.1113944740008e-12
3.73641986498289e-12
5.54540683471224e-11
3.97305834077689e-10
1.47017083700462e-09
3.59597156948351e-09
5.44104870795602e-09
6.31207607964669e-09
5.83012017700598e-09
4.82844132470218e-09
3.85419774853535e-09
3.08302010706861e-09
2.56178937878505e-09
2.22567828599251e-09
2.01550281004657e-09
1.87880127078702e-09
1.80220292280212e-09
1.75638526088453e-09
1.73040324254127e-09
1.7201122038528e-09
1.71914397008453e-09
1.72263370033785e-09
1.72389037326798e-09
1.72564220452033e-09
1.7265657277787e-09
1.72577268973536e-09
1.72269845277381e-09
1.71700567702657e-09
1.70852383681477e-09
1.6972048678141e-09
1.68308884508941e-09
1.66628354542963e-09
1.64690815845958e-09
1.62510320097608e-09
1.60067945345443e-09
1.57342881215064e-09
1.54451489840317e-09
1.51418513370645e-09
1.48268116234937e-09
1.45023438222521e-09
1.4170634340999e-09
1.38337251297452e-09
1.34935030388984e-09
1.31516940717079e-09
1.28098614081053e-09
1.24694066640215e-09
1.21315737362532e-09
1.17974543762855e-09
1.14679953588349e-09
1.11440066824342e-09
1.08261705454454e-09
1.05150510907904e-09
1.02111042603651e-09
9.91469025082079e-10
9.62608885902257e-10
9.34550739057832e-10
9.07308147451979e-10
8.80887720093911e-10
8.55290132052451e-10
8.30506558015798e-10
8.06519928760371e-10
7.83316300890908e-10
7.60884429663969e-10
7.39210436563175e-10
7.18278426456847e-10
6.98070619376086e-10
6.78568325975988e-10
6.59752731696699e-10
6.41600106332262e-10
6.24085105504891e-10
6.07186428468208e-10
5.90884156839334e-10
5.75156131516173e-10
5.59980515871232e-10
5.45335707583169e-10
5.31200566469583e-10
5.17554134009417e-10
5.04375113101968e-10
4.91634827547593e-10
4.79307089205147e-10
4.67375204405009e-10
4.55823587060228e-10
4.44637909949752e-10
4.33804624178211e-10
4.23310979228633e-10
4.13145014219426e-10
4.03295579772974e-10
3.93752357619845e-10
3.84505890529808e-10
3.7554762440065e-10
3.66869881855062e-10
3.58466010676235e-10
3.50237203135276e-10
3.417757202407e-10
3.33528959492427e-10
3.25464549918229e-10
3.17590777388221e-10
3.09919120606791e-10
3.02462562338425e-10
2.95233948672259e-10
2.87145149518529e-10
2.79099452836153e-10
2.71243410447584e-10
2.63619698668583e-10
2.54417703114892e-10
2.45236649698257e-10
2.35277114791485e-10
2.23678507511702e-10
2.09836650050247e-10
1.92532608417051e-10
1.68309806080891e-10
)
;

boundaryField
{
    electrode
    {
        type            zeroGradient;
    }
    ground
    {
        type            zeroGradient;
    }
    otherfaces
    {
        type            empty;
    }
}


// ************************************************************************* //
