/*--------------------------------*- C++ -*----------------------------------*\
| =========                 |                                                 |
| \\      /  F ield         | foam-extend: Open Source CFD                    |
|  \\    /   O peration     | Version:     4.0                                |
|   \\  /    A nd           | Web:         http://www.foam-extend.org         |
|    \\/     M anipulation  |                                                 |
\*---------------------------------------------------------------------------*/
FoamFile
{
    version     2.0;
    format      ascii;
    class       volScalarField;
    location    "2.4e-06";
    object      Te;
}
// * * * * * * * * * * * * * * * * * * * * * * * * * * * * * * * * * * * * * //

dimensions      [0 0 0 1 0 0 0];

internalField   nonuniform List<scalar> 
300
(
30365.0009892241
30365.1903648105
30365.3317000037
30365.4320056089
30365.5736720168
30365.751814332
30365.9644474618
30366.2125075763
30366.4959517724
30366.8147103194
30367.16879068
30367.5581894339
30367.9829037825
30368.442936142
30368.9382924268
30369.4689820408
30370.03501802
30370.6364170206
30371.2731993172
30371.9453888138
30372.6530130585
30373.3961032576
30374.1746942852
30374.9888247024
30375.8385367752
30376.7238764919
30377.644893587
30378.6016415615
30379.5941777072
30380.6225631368
30381.6868628114
30382.7871455666
30383.923484152
30385.095955264
30386.3046395806
30387.5496218076
30388.8309907201
30390.1488392053
30391.5032643135
30392.894367313
30394.3222537447
30395.7870334796
30397.2888207832
30398.8277343836
30400.4038975444
30402.0174381411
30403.6684887385
30405.3571866793
30407.0836741769
30408.8480984107
30410.6506116293
30412.4913712598
30414.3705400241
30416.2882860623
30418.2447830611
30420.2402103921
30422.2747532633
30424.348602868
30426.4619565473
30428.6150179679
30430.807997304
30433.0411114293
30435.3145841251
30437.6286462968
30439.9835361987
30442.3794996796
30444.8167904357
30447.2956702851
30449.816409451
30452.379286855
30454.9845904415
30457.6326175147
30460.3236750865
30463.0580802514
30465.8361605812
30468.6582545344
30471.5247119004
30474.4358942615
30477.3921754738
30480.3939421832
30483.4415943672
30486.5355459095
30489.6762252002
30492.8640757711
30496.0995569652
30499.3831446473
30502.7153319558
30506.096630086
30509.5275691232
30513.0086989278
30516.5405900599
30520.1238347634
30523.7590480087
30527.4468685885
30531.1879602766
30534.9830130615
30538.8327444479
30542.7379008341
30546.6992589788
30550.7176275442
30554.7938487389
30558.9288000726
30563.1233962025
30567.378590901
30571.6953791611
30576.0747994205
30580.5179359336
30585.0259213128
30589.5999392283
30594.2412272937
30598.9510801487
30603.7308527608
30608.5819639637
30613.5059002446
30618.504219811
30623.5785569589
30628.7306267753
30633.9622302079
30639.275259516
30644.6717041687
30650.1536572255
30655.7233222336
30661.3830207136
30667.1352002951
30672.9824435545
30678.9274776466
30684.9731848246
30691.1226139317
30697.3789929908
30703.7457430203
30710.226493217
30716.825097694
30723.5456539492
30730.3925232986
30737.3703535439
30744.4841041552
30751.739074331
30759.1409343497
30766.695760673
30774.4100753601
30782.2908904562
30790.3457581177
30798.5828273929
30807.0109087318
30815.6395474969
30824.4791080367
30833.5408701453
30842.8371400802
30852.3813788073
30862.188350666
30872.2742963003
30882.6571345063
30893.3566986271
30904.395014556
30915.7966283313
30927.5889939674
30939.8029374395
30952.4732108332
30965.6391542246
30979.3456865186
30993.6447082429
31008.596273854
31024.2782100104
31040.8094221286
31058.3821575168
31077.191527831
31097.2936999796
31118.7023822304
31141.6029425121
31166.2990726074
31192.9773167386
31221.6090670636
31252.2670386229
31285.3792776305
31321.0258816722
31359.3529561015
31401.6030416007
31448.8061097518
31502.3227950524
31565.4067587659
31642.6621665618
31741.4595917991
31872.4736911904
32050.7417720837
32299.6656367631
32655.3066169374
33166.3353371932
33896.0650525014
34954.104964629
36505.5099289439
38792.8876270732
42221.8822923645
47414.4222256772
55628.2946142047
67373.6556289297
82853.1916536066
105367.248091456
134363.861134719
172398.173265495
219193.966100448
272621.773679995
328857.713787057
384196.440620547
436008.006429626
482918.199704379
524598.191456947
561268.172876883
593404.291346033
621596.823136763
646465.351082293
668542.054029774
688262.751536977
706006.310830442
722111.262351715
736847.910599495
750440.433965089
763073.372654113
774899.504566667
786045.694502512
796617.121881152
806704.279387567
816376.528229773
825688.038517265
834691.565258006
843430.734045359
851939.73228892
860246.177083986
868371.843087167
876333.519881264
884143.718427627
891811.194567679
899341.386176941
906736.785985283
913997.257197169
921120.309836261
928101.346772749
934933.875897642
941609.703984288
948119.110757983
954451.002385689
960593.06182617
966531.842096933
972252.874308914
977740.943080283
982980.229321312
987954.286341683
992646.021661869
997038.709720023
1001114.26221269
1004852.10235644
1008233.89996144
1011242.54052021
1013859.4580627
1016065.98179764
1017843.08724255
1019171.60150197
1020029.78176008
1020394.88895334
1020264.31346127
1019607.95698376
1018407.17858999
1016641.5865674
1014291.33062203
1011336.25441834
1007756.08589305
1003530.3448227
998640.23066288
993062.266270031
986772.942442513
979752.741602363
971978.595997483
963426.820496213
954072.640434837
943890.253594848
932852.673971663
920931.590118202
908097.185911312
894317.940399364
879560.427236105
863788.967231391
846965.950443465
829049.98890948
810008.03343287
789788.750399456
768334.819976438
745597.54563552
721507.462922891
695987.395595961
668965.11745726
640349.9897859
610029.429552745
577882.558705269
543767.882450867
507498.041461793
468849.705468547
427538.124470332
383164.138144585
335178.93611839
282774.990184201
224896.122780306
)
;

boundaryField
{
    electrode
    {
        type            electronTemperature;
        seec            0.05;
        Tse             1000;
        Edepend         1;
        TFN             1000;
        field_emission  0;
        field_enhancement_factor 55;
        work_function   5;
        value           uniform 30365.0009892241;
    }
    ground
    {
        type            electronTemperature;
        seec            0.05;
        Tse             1000;
        Edepend         1;
        TFN             1000;
        field_emission  0;
        field_enhancement_factor 55;
        work_function   5;
        value           uniform 192028.610956077;
    }
    otherfaces
    {
        type            empty;
    }
}


// ************************************************************************* //
