/*--------------------------------*- C++ -*----------------------------------*\
| =========                 |                                                 |
| \\      /  F ield         | foam-extend: Open Source CFD                    |
|  \\    /   O peration     | Version:     4.0                                |
|   \\  /    A nd           | Web:         http://www.foam-extend.org         |
|    \\/     M anipulation  |                                                 |
\*---------------------------------------------------------------------------*/
FoamFile
{
    version     2.0;
    format      ascii;
    class       volScalarField;
    location    "2.4e-06";
    object      TeMean;
}
// * * * * * * * * * * * * * * * * * * * * * * * * * * * * * * * * * * * * * //

dimensions      [0 0 0 1 0 0 0];

internalField   nonuniform List<scalar> 
300
(
29528.5888713501
29528.8950946844
29528.9309590472
29528.7236424854
29528.4609760264
29528.1248044633
29527.7191330176
29527.2484724019
29526.7139656316
29526.1171955528
29525.4596421585
29524.7427405109
29523.9678698456
29523.1363205891
29522.2493345298
29521.3081001274
29520.3137495626
29519.2673712332
29518.1700084845
29517.0226590793
29515.8262825457
29514.5817945011
29513.2900729802
29511.9519564097
29510.5682424689
29509.1397173201
29507.6671360666
29506.1512156063
29504.5926574543
29502.9921166512
29501.3501982127
29499.6675223794
29497.9447179609
29496.1823699458
29494.3810342849
29492.5412270423
29490.6634456331
29488.7481922734
29486.7959506289
29484.8071737105
29482.7822891986
29480.7217296283
29478.6259103613
29476.4952217962
29474.3300384894
29472.1307182323
29469.8976005831
29467.6310041126
29465.3312175269
29462.9984993028
29460.6330782152
29458.235192349
29455.8051109904
29453.3430853997
29450.8493613357
29448.3241947206
29445.7678092384
29443.1804013301
29440.5621742866
29437.9133209676
29435.2340193003
29432.5244561676
29429.7847625519
29427.0150405935
29424.2154574629
29421.3862053758
29418.5274515567
29415.6393431913
29412.72201704
29409.7756119037
29406.8002464248
29403.7959952121
29400.7629576009
29397.701247201
29394.6109342984
29391.4920519175
29388.3446695321
29385.16891253
29381.9648592741
29378.7325565303
29375.4721102738
29372.1836307143
29368.8671732317
29365.5227575971
29362.150393076
29358.7501380367
29355.3220872486
29351.8662971069
29348.3827905464
29344.8716080427
29341.3327478438
29337.7661955812
29334.1720517681
29330.5503675904
29326.9011544312
29323.2244740209
29319.5203596356
29315.7888427974
29312.0299373802
29308.2436612892
29304.4300748555
29300.589158351
29296.7208796556
29292.8252940845
29288.9024388388
29284.9523280495
29280.9749587988
29276.970329808
29272.9384704433
29268.8793997288
29264.793134033
29260.6796798899
29256.5390169257
29252.3711758185
29248.1761547042
29243.9539091787
29239.7043768915
29235.4275470842
29231.1234605611
29226.7920447464
29222.4332008816
29218.0468547898
29213.6329067114
29209.1912920724
29204.7219976484
29200.2249510524
29195.699998212
29191.1470200521
29186.5659207328
29181.9565215359
29177.3186091407
29172.6519961119
29167.95650139
29163.2318004481
29158.4775013233
29153.6933600108
29148.8791154676
29144.0343729218
29139.1587426814
29134.2518805396
29129.3134099064
29124.34287824
29119.3397641249
29114.3034815317
29109.2334774809
29104.1292947201
29098.9905129496
29093.8167672145
29088.6075646638
29083.3624067657
29078.0810786026
29072.763404237
29067.4093287396
29062.0191812747
29056.5934611288
29051.1329859187
29045.639147794
29040.1141023124
29034.560933854
29028.9837930659
29023.3887108274
29017.7842342416
29012.1825062281
29006.6026753432
29001.0799966496
28995.6705048136
28990.4331045983
28985.4161159528
28980.6690707254
28976.2555497724
28972.2450230599
28968.6393331193
28965.3240571681
28962.1558902299
28958.9905764252
28955.5536434463
28951.4987480569
28946.605844098
28940.8452941896
28934.6998615598
28929.5187357044
28928.0477624571
28935.5010297885
28960.5849406433
29017.3435684702
29127.9025414481
29326.1763513256
29664.1282143601
30221.8825048325
31125.4589031632
32576.3731241283
34906.5603515898
38672.6598631916
44984.5842615121
55051.3281255305
69663.266570602
91259.064482932
120770.815431111
160316.922789641
209479.245390133
266572.241723946
328196.248887116
390697.508169586
450413.692991442
504750.594468014
552540.441786796
593801.638205278
629169.180791385
659550.134695951
685836.475158658
708757.745585059
728902.622736515
746768.377815577
762764.561128431
777220.783136186
790403.493530797
802528.516376474
813771.75837001
824276.657778784
834157.523216696
843508.439455975
852407.091360602
860917.521764301
869094.980151296
876983.989334307
884620.134037554
892031.978335066
899242.033018073
906267.645461546
913121.710671879
919813.266795593
926347.998717665
932728.65489557
938955.199644156
945025.227287147
950934.385911141
956676.445561626
962243.538253288
967626.327254269
972814.188263953
977795.336622133
982556.941022741
987085.33043148
991366.167466369
995384.528723911
999125.145685757
1002571.68792224
1005707.32921556
1008515.42524404
1010979.29531338
1013082.47211609
1014808.14076722
1016139.30583634
1017058.87400528
1017549.70253409
1017594.30489101
1017175.66260381
1016270.334406
1014875.32543204
1012965.95372878
1010525.33955273
1007535.71883697
1003979.72985435
999839.807320908
995098.271717601
989737.199986627
983738.633899863
977084.35240216
969755.681799645
961733.333273972
952997.152687529
943526.812767657
933301.569231758
922299.255252452
910496.346232346
897868.006077
884387.999216646
870028.485764618
854759.917160796
838550.714791783
821367.144521561
803172.76308926
783932.029914786
763603.629906937
742137.103805371
719481.818212167
695579.800653299
670361.342849567
643754.944056133
615678.161942354
586029.350902958
554692.136792493
521535.494137604
486386.356691539
449033.663972
409210.61024781
366538.30402718
320503.38215309
270359.21923895
215106.342528484
)
;

boundaryField
{
    electrode
    {
        type            calculated;
        value           uniform 29528.5888713551;
    }
    ground
    {
        type            calculated;
        value           uniform 183815.18967936;
    }
    otherfaces
    {
        type            empty;
    }
}


// ************************************************************************* //
