/*--------------------------------*- C++ -*----------------------------------*\
| =========                 |                                                 |
| \\      /  F ield         | foam-extend: Open Source CFD                    |
|  \\    /   O peration     | Version:     4.0                                |
|   \\  /    A nd           | Web:         http://www.foam-extend.org         |
|    \\/     M anipulation  |                                                 |
\*---------------------------------------------------------------------------*/
FoamFile
{
    version     2.0;
    format      ascii;
    class       volScalarField;
    location    "7.7e-06";
    object      Arp1;
}
// * * * * * * * * * * * * * * * * * * * * * * * * * * * * * * * * * * * * * //

dimensions      [0 0 0 1 0 0 0];

internalField   nonuniform List<scalar> 
300
(
6.59054934809299e+16
6.59481370408632e+16
6.59214405169001e+16
6.59159894468346e+16
6.59058530511099e+16
6.58915313847562e+16
6.58746715066424e+16
6.58545823879523e+16
6.58313647879281e+16
6.58050328999548e+16
6.57755685892065e+16
6.57429725646902e+16
6.57072412113525e+16
6.56683706401877e+16
6.56263571241046e+16
6.55811966078602e+16
6.55328848474001e+16
6.54814174008789e+16
6.54267896218989e+16
6.53689966640687e+16
6.53080334808966e+16
6.52438948273081e+16
6.51765752608332e+16
6.51060691425253e+16
6.50323706386385e+16
6.49554737222205e+16
6.48753721740969e+16
6.47920595850291e+16
6.47055293574242e+16
6.46157747068935e+16
6.45227886642747e+16
6.44265640780949e+16
6.43270936161852e+16
6.422436976812e+16
6.41183848479728e+16
6.40091309962064e+16
6.38966001826299e+16
6.37807842093318e+16
6.36616747129465e+16
6.35392631680216e+16
6.34135408902755e+16
6.32844990392317e+16
6.31521286219916e+16
6.30164204967516e+16
6.28773653759382e+16
6.27349538302753e+16
6.25891762927501e+16
6.24400230620402e+16
6.22874843070328e+16
6.21315500711692e+16
6.19722102761735e+16
6.18094547271071e+16
6.16432731168897e+16
6.14736550306794e+16
6.13005899509603e+16
6.11240672626988e+16
6.09440762580815e+16
6.07606061417869e+16
6.05736460367293e+16
6.0383184988873e+16
6.01892119731643e+16
5.99917158993789e+16
5.97906856173718e+16
5.95861099233167e+16
5.93779775658237e+16
5.9166277251525e+16
5.89509976516074e+16
5.87321274081854e+16
5.85096551401851e+16
5.8283569450045e+16
5.80538589304051e+16
5.78205121701841e+16
5.75835177615044e+16
5.73428643065224e+16
5.70985404236452e+16
5.68505347547362e+16
5.65988359719124e+16
5.63434327840833e+16
5.60843139439563e+16
5.58214682551195e+16
5.55548845785557e+16
5.52845518398487e+16
5.50104590362446e+16
5.473259524256e+16
5.44509496181504e+16
5.41655114126469e+16
5.38762699802955e+16
5.35832147951461e+16
5.32863354230106e+16
5.29856214555529e+16
5.26810625995728e+16
5.23726491702943e+16
5.20603722555985e+16
5.17442212880971e+16
5.14241802895971e+16
5.11002358595805e+16
5.0772404021473e+16
5.04406937429024e+16
5.01050491874341e+16
4.97654640148762e+16
4.942192739209e+16
4.90744270359861e+16
4.87229508001139e+16
4.83674867532362e+16
4.80080232311162e+16
4.76445488513982e+16
4.72770525178247e+16
4.6905523421618e+16
4.65299510423447e+16
4.61503251492404e+16
4.57666358017766e+16
4.53788733505721e+16
4.49870284388079e+16
4.45910920030894e+16
4.41910552746896e+16
4.37869097813691e+16
4.33786473488339e+16
4.29662601026735e+16
4.25497404710352e+16
4.21290811870221e+16
4.17042752921754e+16
4.12753161404616e+16
4.08421974027396e+16
4.04049130724007e+16
3.99634574722103e+16
3.95178252620246e+16
3.906801144833e+16
3.86140113958227e+16
3.81558208406151e+16
3.76934359065421e+16
3.72268531244626e+16
3.67560694549838e+16
3.62810823157538e+16
3.58018896140071e+16
3.53184897849239e+16
3.4830881837557e+16
3.43390654094418e+16
3.38430408312776e+16
3.33428092041129e+16
3.28383724913676e+16
3.23297336277057e+16
3.18168966502038e+16
3.12998668527493e+16
3.07786509714004e+16
3.02532574140201e+16
2.97236964985147e+16
2.9189980838493e+16
2.8652125577809e+16
2.81101492050115e+16
2.75640732275032e+16
2.70139247527613e+16
2.64597340426192e+16
2.5901539697224e+16
2.53393850176134e+16
2.47733277215221e+16
2.42034235075086e+16
2.36297504483561e+16
2.30524449188387e+16
2.2471460795185e+16
2.1887249364758e+16
2.12994485425055e+16
2.07094007327684e+16
2.0114804850522e+16
1.95207920138144e+16
1.89183927716862e+16
1.83221666114724e+16
1.77378303055387e+16
1.71434396282202e+16
1.65467548150259e+16
1.59505344619089e+16
1.53572269347375e+16
1.47767009203545e+16
1.41972876892464e+16
1.36380246341742e+16
1.30823832962838e+16
1.25019572762109e+16
1.19641540170634e+16
1.14577609626406e+16
1.09212855979151e+16
1.0420323227664e+16
9.96931520176966e+15
9.48905180182748e+15
9.05023401361778e+15
8.67129870401373e+15
8.25085644436194e+15
7.89143919341433e+15
7.58247022163494e+15
7.23870389698012e+15
6.94563318740465e+15
6.70626555370333e+15
6.44621920911737e+15
6.21525086527976e+15
6.01725800785312e+15
5.86697152469171e+15
5.67070107739073e+15
5.52401987454807e+15
5.38582783102508e+15
5.29948462969544e+15
5.20840224420203e+15
5.13988606486167e+15
5.08535537148031e+15
5.08629455687213e+15
5.0987344974162e+15
5.13627401385107e+15
5.13538459977231e+15
5.11818292387115e+15
5.0806518064014e+15
5.03261802414359e+15
4.98246453288171e+15
4.93326627755643e+15
4.88714827004962e+15
4.84496657633508e+15
4.80746725650621e+15
4.75723672672595e+15
4.70435851019306e+15
4.65544261690019e+15
4.61143074098286e+15
4.57083244972493e+15
4.53460881173341e+15
4.50124425837289e+15
4.47175874374423e+15
4.44463343543237e+15
4.42091880309323e+15
4.39913478197674e+15
4.38040830417586e+15
4.3484914003064e+15
4.31834588380918e+15
4.2890932915054e+15
4.2628608228561e+15
4.23720367614107e+15
4.2143238951012e+15
4.19175563358089e+15
4.17177174963119e+15
4.15188004507696e+15
4.13442309058629e+15
4.11687272806888e+15
4.10164251715418e+15
4.0861621769339e+15
4.07291543550843e+15
4.05928893708907e+15
4.04783123480371e+15
4.0331230611543e+15
4.0126682060505e+15
3.99181491348807e+15
3.97292510454585e+15
3.95354062105222e+15
3.93606028910028e+15
3.91800311564689e+15
3.9018050217059e+15
3.88495943327869e+15
3.86993953002883e+15
3.85420883655783e+15
3.84027926571218e+15
3.82558184887652e+15
3.8126657138597e+15
3.79892837993531e+15
3.78695626781963e+15
3.77411903746582e+15
3.76303476059696e+15
3.75104943592793e+15
3.74080983298624e+15
3.72963816029671e+15
3.72020651109788e+15
3.70981242742857e+15
3.70115560343953e+15
3.68635318123064e+15
3.67168941821034e+15
3.655928091364e+15
3.64203092648184e+15
3.62700155517295e+15
3.61382748034548e+15
3.59949127035325e+15
3.58700316608571e+15
3.57332351680855e+15
3.56148643898409e+15
3.54842517797144e+15
3.53720654601123e+15
3.5247235968103e+15
3.51409771851358e+15
3.50215203075618e+15
3.49210622378659e+15
3.4806562477415e+15
3.47118334569192e+15
3.46019673374272e+15
3.45126935864688e+15
3.44071970429955e+15
3.43230355293496e+15
3.42217332266433e+15
3.41424990093775e+15
3.40451114099608e+15
3.39706489788649e+15
3.38767978784216e+15
3.38066889179563e+15
3.37161977597988e+15
3.36501875065484e+15
3.35625077353904e+15
3.35002633760536e+15
3.34148048491584e+15
3.33512591093142e+15
3.31741473592192e+15
)
;

boundaryField
{
    electrode
    {
        type            driftDiffusionPositiveIonDensity;
        seec            0;
        fieldName       Arp1;
        value           uniform 6.57226628323659e+16;
    }
    ground
    {
        type            driftDiffusionPositiveIonDensity;
        seec            0;
        fieldName       Arp1;
        value           uniform 3.31741473592192e+15;
    }
    otherfaces
    {
        type            empty;
    }
}


// ************************************************************************* //
