/*--------------------------------*- C++ -*----------------------------------*\
| =========                 |                                                 |
| \\      /  F ield         | foam-extend: Open Source CFD                    |
|  \\    /   O peration     | Version:     4.0                                |
|   \\  /    A nd           | Web:         http://www.foam-extend.org         |
|    \\/     M anipulation  |                                                 |
\*---------------------------------------------------------------------------*/
FoamFile
{
    version     2.0;
    format      ascii;
    class       volVectorField;
    location    "7.7e-06";
    object      E;
}
// * * * * * * * * * * * * * * * * * * * * * * * * * * * * * * * * * * * * * //

dimensions      [0 0 0 1 0 0 0];

internalField   nonuniform List<vector> 
300
(
(5.42610917864118 -0 -0)
(10.9620074267846 -0 -0)
(19.3186508207211 -0 -0)
(27.0567511978517 -0 -0)
(34.7498791866678 -0 -0)
(42.5106248078126 -0 -0)
(50.264837704595 -0 -0)
(58.0340600866968 -0 -0)
(65.8191609381749 -0 -0)
(73.620497027805 -0 -0)
(81.4403030555117 -0 -0)
(89.2801839083588 -0 -0)
(97.1418290307567 -0 -0)
(105.026964175579 -0 -0)
(112.937311169682 -0 -0)
(120.874607618949 -0 -0)
(128.840604268762 -0 -0)
(136.837065632668 -0 -0)
(144.865771166404 -0 -0)
(152.92851605064 -0 -0)
(161.027112065283 -0 -0)
(169.163388522021 -0 -0)
(177.339193171974 -0 -0)
(185.556393138277 -0 -0)
(193.816875852795 -0 -0)
(202.122550059521 -0 -0)
(210.47534678881 -0 -0)
(218.877220410643 -0 -0)
(227.330149617228 -0 -0)
(235.8361385596 -0 -0)
(244.397217888407 -0 -0)
(253.015445927878 -0 -0)
(261.692909771264 -0 -0)
(270.431726541482 -0 -0)
(279.234044557541 -0 -0)
(288.102044604418 -0 -0)
(297.03794127703 -0 -0)
(306.043984221675 -0 -0)
(315.122459622374 -0 -0)
(324.27569159058 -0 -0)
(333.506043614861 -0 -0)
(342.815920093034 -0 -0)
(352.207767963276 -0 -0)
(361.684078303766 -0 -0)
(371.247388027165 -0 -0)
(380.900281682402 -0 -0)
(390.645393245824 -0 -0)
(400.485408048917 -0 -0)
(410.423064754792 -0 -0)
(420.461157420087 -0 -0)
(430.602537634983 -0 -0)
(440.850116778566 -0 -0)
(451.206868318142 -0 -0)
(461.675830269783 -0 -0)
(472.260107724267 -0 -0)
(482.962875479514 -0 -0)
(493.787380834213 -0 -0)
(504.736946496715 -0 -0)
(515.814973542259 -0 -0)
(527.024944627137 -0 -0)
(538.370427342946 -0 -0)
(549.855077598582 -0 -0)
(561.482643317352 -0 -0)
(573.256968257385 -0 -0)
(585.181995930876 -0 -0)
(597.261773908955 -0 -0)
(609.500458141691 -0 -0)
(621.902317630859 -0 -0)
(634.471739251244 -0 -0)
(647.213232882254 -0 -0)
(660.13143675118 -0 -0)
(673.231123116199 -0 -0)
(686.517204172355 -0 -0)
(699.994738310864 -0 -0)
(713.668936705508 -0 -0)
(727.54517027186 -0 -0)
(741.628976963367 -0 -0)
(755.926069490113 -0 -0)
(770.442343447994 -0 -0)
(785.183885917811 -0 -0)
(800.156984516553 -0 -0)
(815.368137045774 -0 -0)
(830.82406156493 -0 -0)
(846.531707120262 -0 -0)
(862.498264892015 -0 -0)
(878.731180236999 -0 -0)
(895.23816616126 -0 -0)
(912.027218243161 -0 -0)
(929.106625568811 -0 -0)
(946.484974774601 -0 -0)
(964.171170241099 -0 -0)
(982.174515114041 -0 -0)
(1000.50478531187 -0 -0)
(1019.17197250788 -0 -0)
(1038.18566672666 -0 -0)
(1057.55575859078 -0 -0)
(1077.29626894632 -0 -0)
(1097.42651360883 -0 -0)
(1117.96410091497 -0 -0)
(1138.92258531711 -0 -0)
(1160.31537252097 -0 -0)
(1182.15653593253 -0 -0)
(1204.46079193715 -0 -0)
(1227.24354500839 -0 -0)
(1250.52093149376 -0 -0)
(1274.30986343891 -0 -0)
(1298.62807548263 -0 -0)
(1323.49417511236 -0 -0)
(1348.92769667202 -0 -0)
(1374.9491594145 -0 -0)
(1401.58013003946 -0 -0)
(1428.843290119 -0 -0)
(1456.76250876384 -0 -0)
(1485.36292120264 -0 -0)
(1514.67101360563 -0 -0)
(1544.71471499437 -0 -0)
(1575.52349665818 -0 -0)
(1607.12848009684 -0 -0)
(1639.56255408543 -0 -0)
(1672.86050196825 -0 -0)
(1707.05914007299 -0 -0)
(1742.19746861097 -0 -0)
(1778.31683610837 -0 -0)
(1815.46111910368 -0 -0)
(1853.67691855305 -0 -0)
(1893.01377489258 -0 -0)
(1933.52440387723 -0 -0)
(1975.26495549178 -0 -0)
(2018.29529865603 -0 -0)
(2062.67933476912 -0 -0)
(2108.48534353366 -0 -0)
(2155.78636494231 -0 -0)
(2204.66062213791 -0 -0)
(2255.19198989814 -0 -0)
(2307.47051500361 -0 -0)
(2361.59299503037 -0 -0)
(2417.66362338254 -0 -0)
(2475.79470954467 -0 -0)
(2536.10748495198 -0 -0)
(2598.73300636984 -0 -0)
(2663.81317085307 -0 -0)
(2731.50185853307 -0 -0)
(2801.96622199718 -0 -0)
(2875.38814469805 -0 -0)
(2951.96589470581 -0 -0)
(3031.91600276803 -0 -0)
(3115.47540462091 -0 -0)
(3202.90388395208 -0 -0)
(3294.48688154927 -0 -0)
(3390.53868341242 -0 -0)
(3491.40618577975 -0 -0)
(3597.4731031236 -0 -0)
(3709.16493251001 -0 -0)
(3826.95475046363 -0 -0)
(3951.37016880522 -0 -0)
(4083.00015629956 -0 -0)
(4222.50523665798 -0 -0)
(4370.63148242183 -0 -0)
(4528.20941506717 -0 -0)
(4696.19622541685 -0 -0)
(4875.67120407746 -0 -0)
(5067.91891245247 -0 -0)
(5274.27450144389 -0 -0)
(5496.5273673951 -0 -0)
(5736.26412403502 -0 -0)
(5996.8089076245 -0 -0)
(6284.95817984476 -0 -0)
(6605.15584840977 -0 -0)
(6959.39571365504 -0 -0)
(7351.54443404076 -0 -0)
(7787.56336170586 -0 -0)
(8276.30612829326 -0 -0)
(8827.29502733842 -0 -0)
(9451.9052011864 -0 -0)
(10161.0487254304 -0 -0)
(10957.6775166353 -0 -0)
(11852.8007263764 -0 -0)
(12867.8704395729 -0 -0)
(14009.6915261541 -0 -0)
(15284.5225877356 -0 -0)
(16713.0303109557 -0 -0)
(18300.636236212 -0 -0)
(20048.0304147323 -0 -0)
(21971.4803611959 -0 -0)
(24065.1481265878 -0 -0)
(26319.2415374993 -0 -0)
(28741.2760487756 -0 -0)
(31311.6325728894 -0 -0)
(34006.7842984997 -0 -0)
(36823.6901338611 -0 -0)
(39739.1637636981 -0 -0)
(42722.3788489679 -0 -0)
(45758.0841001356 -0 -0)
(48838.7408152305 -0 -0)
(51937.2755969927 -0 -0)
(55028.9726353676 -0 -0)
(58109.602718762 -0 -0)
(61178.9827757482 -0 -0)
(64238.1416505937 -0 -0)
(67284.5058067797 -0 -0)
(70313.7420060399 -0 -0)
(73340.8780287913 -0 -0)
(76388.3561452459 -0 -0)
(79460.1835266616 -0 -0)
(82547.6448306203 -0 -0)
(85633.5631925575 -0 -0)
(88705.5038356303 -0 -0)
(91753.2281578878 -0 -0)
(94772.1739640761 -0 -0)
(97761.5378044618 -0 -0)
(100722.333205826 -0 -0)
(103656.593126559 -0 -0)
(106566.879124597 -0 -0)
(109450.739431312 -0 -0)
(112303.522436066 -0 -0)
(115125.618419181 -0 -0)
(117919.697071765 -0 -0)
(120688.264356759 -0 -0)
(123433.663113087 -0 -0)
(126158.072445832 -0 -0)
(128863.527667488 -0 -0)
(131551.907943341 -0 -0)
(134224.954251578 -0 -0)
(136884.280421558 -0 -0)
(139531.390576922 -0 -0)
(142163.23000227 -0 -0)
(144776.355913315 -0 -0)
(147371.572808784 -0 -0)
(149950.061816292 -0 -0)
(152512.908237972 -0 -0)
(155061.124103137 -0 -0)
(157595.64181243 -0 -0)
(160117.33548704 -0 -0)
(162627.01301812 -0 -0)
(165125.437090718 -0 -0)
(167613.314336935 -0 -0)
(170091.316760076 -0 -0)
(172560.06898596 -0 -0)
(175020.169482317 -0 -0)
(177472.177636683 -0 -0)
(179916.633118427 -0 -0)
(182353.209746012 -0 -0)
(184779.19423881 -0 -0)
(187192.733338827 -0 -0)
(189594.298966202 -0 -0)
(191984.33400344 -0 -0)
(194363.263399096 -0 -0)
(196731.487288407 -0 -0)
(199089.392184481 -0 -0)
(201437.343267578 -0 -0)
(203775.695626491 -0 -0)
(206104.78524439 -0 -0)
(208424.940680516 -0 -0)
(210736.473285353 -0 -0)
(213039.688365686 -0 -0)
(215334.875363325 -0 -0)
(217622.31844752 -0 -0)
(219902.288800847 -0 -0)
(222175.054114218 -0 -0)
(224440.870823344 -0 -0)
(226699.993441158 -0 -0)
(228952.667057574 -0 -0)
(231199.135064249 -0 -0)
(233439.631696334 -0 -0)
(235674.39035145 -0 -0)
(237902.08127622 -0 -0)
(240120.892626419 -0 -0)
(242330.534964855 -0 -0)
(244531.239250617 -0 -0)
(246723.225996917 -0 -0)
(248906.713031473 -0 -0)
(251081.909213494 -0 -0)
(253249.021234722 -0 -0)
(255408.24686762 -0 -0)
(257559.782284917 -0 -0)
(259703.813829078 -0 -0)
(261840.527836912 -0 -0)
(263970.098553383 -0 -0)
(266092.704586415 -0 -0)
(268208.507805293 -0 -0)
(270317.682999421 -0 -0)
(272420.379533456 -0 -0)
(274516.770003494 -0 -0)
(276606.993991385 -0 -0)
(278691.215949867 -0 -0)
(280769.567497584 -0 -0)
(282842.202667594 -0 -0)
(284909.247930791 -0 -0)
(286970.85168748 -0 -0)
(289027.131824632 -0 -0)
(291078.232250897 -0 -0)
(293124.259390942 -0 -0)
(295165.344381959 -0 -0)
(297201.588498402 -0 -0)
(299233.115045264 -0 -0)
(301260.008490389 -0 -0)
(303282.381623126 -0 -0)
(305300.300742275 -0 -0)
(307313.736127335 -0 -0)
(309319.91103143 -0 -0)
)
;

boundaryField
{
    electrode
    {
        type            calculated;
        value           uniform (4.3149809289389 -0 -0);
    }
    ground
    {
        type            calculated;
        value           uniform (310320.321590496 -0 -0);
    }
    otherfaces
    {
        type            empty;
    }
}


// ************************************************************************* //
