/*--------------------------------*- C++ -*----------------------------------*\
| =========                 |                                                 |
| \\      /  F ield         | foam-extend: Open Source CFD                    |
|  \\    /   O peration     | Version:     4.0                                |
|   \\  /    A nd           | Web:         http://www.foam-extend.org         |
|    \\/     M anipulation  |                                                 |
\*---------------------------------------------------------------------------*/
FoamFile
{
    version     2.0;
    format      ascii;
    class       volScalarField;
    location    "7.7e-06";
    object      electron;
}
// * * * * * * * * * * * * * * * * * * * * * * * * * * * * * * * * * * * * * //

dimensions      [0 0 0 1 0 0 0];

internalField   nonuniform List<scalar> 
300
(
6.59172992969906e+16
6.5915558979312e+16
6.59110552161362e+16
6.59033983242408e+16
6.58926494362238e+16
6.58787843507934e+16
6.58617973804979e+16
6.58416878132317e+16
6.58184524003266e+16
6.57920883445326e+16
6.57625926481439e+16
6.57299620610016e+16
6.56941931442627e+16
6.56552822503138e+16
6.56132255249892e+16
6.55680189091403e+16
6.55196581387936e+16
6.54681387459953e+16
6.54134560596345e+16
6.53556052063388e+16
6.52945811114651e+16
6.52303785001683e+16
6.51629918985533e+16
6.50924156349158e+16
6.50186438410748e+16
6.49416704537948e+16
6.48614892162994e+16
6.47780936798776e+16
6.46914772055906e+16
6.46016329660769e+16
6.45085539474546e+16
6.4412232951328e+16
6.43126625968997e+16
6.42098353231874e+16
6.41037433913448e+16
6.39943788871006e+16
6.38817337232985e+16
6.37657996425583e+16
6.36465682200503e+16
6.35240308663745e+16
6.33981788305663e+16
6.32690032032238e+16
6.31364949197449e+16
6.3000644763683e+16
6.28614433702294e+16
6.27188812298119e+16
6.25729486918137e+16
6.24236359684168e+16
6.22709331385626e+16
6.21148301520332e+16
6.19553168336532e+16
6.17923828876078e+16
6.16260179018806e+16
6.14562113528076e+16
6.12829526097442e+16
6.11062309398477e+16
6.09260355129702e+16
6.0742355406654e+16
6.05551796112382e+16
6.03644970350737e+16
6.01702965098222e+16
5.99725667958585e+16
5.97712965877696e+16
5.95664745199295e+16
5.93580891721678e+16
5.91461290755115e+16
5.89305827179956e+16
5.87114385505443e+16
5.84886849929128e+16
5.82623104396828e+16
5.80323032663069e+16
5.77986518351908e+16
5.75613445018085e+16
5.73203696208465e+16
5.70757155523646e+16
5.68273706679617e+16
5.65753233569411e+16
5.63195620324671e+16
5.60600751377022e+16
5.57968511519122e+16
5.55298785965313e+16
5.52591460411676e+16
5.49846421095411e+16
5.47063554853514e+16
5.44242749180703e+16
5.41383892286375e+16
5.38486873149346e+16
5.3555158156896e+16
5.32577908217598e+16
5.29565744707383e+16
5.26514983658176e+16
5.2342551868427e+16
5.20297244266713e+16
5.17130055907242e+16
5.13923851210226e+16
5.10678530549047e+16
5.07393992102924e+16
5.04070121036064e+16
5.00706786497349e+16
4.97303850784647e+16
4.93861176547544e+16
4.90378628214381e+16
4.8685607231197e+16
4.83293377531044e+16
4.79690414712604e+16
4.76047056811743e+16
4.72363178852441e+16
4.68638657876426e+16
4.6487337288665e+16
4.61067204785223e+16
4.57220036305463e+16
4.53331751937537e+16
4.49402237847229e+16
4.45431381787263e+16
4.41419073000554e+16
4.37365202114735e+16
4.33269661027245e+16
4.29132342780209e+16
4.24953141424221e+16
4.20731951870166e+16
4.16468669728071e+16
4.12163191131881e+16
4.07815412548993e+16
4.03425230573253e+16
3.98992541699982e+16
3.94517242081531e+16
3.89999227261639e+16
3.85438391886708e+16
3.80834629392036e+16
3.76187831660696e+16
3.71497888652652e+16
3.66764688001442e+16
3.61988114575375e+16
3.5716805000005e+16
3.52304372138666e+16
3.47396954526108e+16
3.42445665752589e+16
3.37450368792129e+16
3.32410920270705e+16
3.27327169668511e+16
3.22198958450277e+16
3.17026119117009e+16
3.11808474172157e+16
3.0654583499481e+16
3.01238000611531e+16
2.95884756359538e+16
2.9048587243148e+16
2.85041102295902e+16
2.79550180978076e+16
2.74012823215609e+16
2.68428721445402e+16
2.62797543650179e+16
2.57118931090609e+16
2.51392495882549e+16
2.45617818288137e+16
2.39794444253245e+16
2.33921883256527e+16
2.27999603069604e+16
2.22027031442185e+16
2.16003548159472e+16
2.09928480184657e+16
2.03801069414975e+16
1.97620514330183e+16
1.91385882433463e+16
1.85096120943168e+16
1.78749610897646e+16
1.72342341837221e+16
1.65868228395267e+16
1.59321877074742e+16
1.52699309113863e+16
1.45997047502637e+16
1.39211154231618e+16
1.32337205647933e+16
1.2537113142438e+16
1.18310513519988e+16
1.1115862769918e+16
1.03925597502051e+16
9.66248895509877e+15
8.92762827733661e+15
8.19104481044728e+15
7.45662293137858e+15
6.72905870156901e+15
6.01413269507359e+15
5.31835825620219e+15
4.64876177880483e+15
4.01272663629401e+15
3.41726925547184e+15
2.86861395996609e+15
2.3718904772521e+15
1.93052814768163e+15
1.54600953664286e+15
1.21790624883608e+15
943908754566582
720071533767072
541133255462354
401023276954013
293687286196304
212988988636149
153234044448920
108636136220852
75055890061533.5
50805651471097
33512057441343.1
21150549853622
12829172194847.3
7680035812258.66
4734139235977.42
3123039786882.21
2246852352122
1760688697222.97
1483378805090.94
1321717413909.74
1226429418111.18
1170613818601.19
1139006746392.09
1122396159750.18
1114906456908.03
1112661408371.18
1113124160655.08
1114855942982.26
1116706378781.41
1117814793224.42
1117830981719.53
1116377356538.56
1113261889252.41
1108391196224.28
1101746623006.46
1093361309456.51
1083305142024.93
1071674108169.58
1058582317425.63
1044155808250.16
1028527680772.43
1011834247625.68
994211993491.721
975795160230.626
956713909780.171
937092479864.578
917048549505.005
896684618374.72
876091259414.207
855361294274.217
834586220026.299
813850374406.656
793230117057.354
772793224316.568
752599203114.085
732699676759.068
713138861344.379
693954070473.233
675176236919.207
656830444551.391
638936448053.639
621509289191.879
604559757634.215
588096743114.813
572122836149.242
556634127475.618
541629091236.635
527105319858.389
513056300213.678
499474053835.162
486349357090.522
473672006057.544
461431006810.677
449614932569.86
438212264433.272
427211367405.957
416600386948.117
406367121773.035
396498894991.802
386978664477.462
377781691441.974
368888812605.723
360290174861.645
351976980569.936
343941437838.059
336176319070.969
328675021187.413
321431619361.27
314440910805.025
307698535976.64
301200088801.375
294941227206.405
288896781908.398
283036073081.977
277357806826.231
271876319440.242
266608166463.243
261568968309.043
256723921900.028
252056120279
247622330717.878
243446456868.071
239550099115.746
236025219726.252
233006477435.901
230770727810.043
229816047252.539
230976772724.195
)
;

boundaryField
{
    electrode
    {
        type            driftDiffusionElectronDensity;
        seec            0.05;
        Edepend         1;
        field_emission  0;
        field_enhancement_factor 55;
        work_function   5;
        value           uniform 6.59172992969907e+16;
    }
    ground
    {
        type            driftDiffusionElectronDensity;
        seec            0.05;
        Edepend         1;
        field_emission  0;
        field_enhancement_factor 55;
        work_function   5;
        value           uniform 233217046013.193;
    }
    otherfaces
    {
        type            empty;
    }
}


// ************************************************************************* //
