/*--------------------------------*- C++ -*----------------------------------*\
| =========                 |                                                 |
| \\      /  F ield         | foam-extend: Open Source CFD                    |
|  \\    /   O peration     | Version:     4.0                                |
|   \\  /    A nd           | Web:         http://www.foam-extend.org         |
|    \\/     M anipulation  |                                                 |
\*---------------------------------------------------------------------------*/
FoamFile
{
    version     2.0;
    format      ascii;
    class       volScalarField;
    location    "7.7e-06";
    object      N_electronMean;
}
// * * * * * * * * * * * * * * * * * * * * * * * * * * * * * * * * * * * * * //

dimensions      [0 0 0 1 0 0 0];

internalField   nonuniform List<scalar> 
300
(
6.12610494626517e+16
6.12595315297759e+16
6.12553925346549e+16
6.12481771483229e+16
6.12379266726701e+16
6.12246072060962e+16
6.12082012949127e+16
6.11886996994982e+16
6.1166093190159e+16
6.11403748817154e+16
6.11115396192302e+16
6.10795837847047e+16
6.10445052013753e+16
6.10063029993578e+16
6.09649775281348e+16
6.09205302692905e+16
6.08729637618256e+16
6.08222815381104e+16
6.07684880615707e+16
6.0711588667681e+16
6.06515895117684e+16
6.05884975195681e+16
6.05223203395057e+16
6.04530662938414e+16
6.0380744342899e+16
6.03053640569282e+16
6.0226935564907e+16
6.01454695036115e+16
6.00609769760082e+16
5.99734694952982e+16
5.98829589485675e+16
5.9789457586694e+16
5.96929779733748e+16
5.95935329033922e+16
5.94911353437583e+16
5.93857983865275e+16
5.92775352023543e+16
5.91663589979131e+16
5.90522829693934e+16
5.89353202553046e+16
5.88154838976903e+16
5.86927868026643e+16
5.85672416935909e+16
5.84388610682964e+16
5.8307657162119e+16
5.81736419119376e+16
5.80368269226908e+16
5.78972234375891e+16
5.77548423152017e+16
5.76096940131878e+16
5.74617885880993e+16
5.73111356959566e+16
5.71577445673648e+16
5.70016239611841e+16
5.68427820981987e+16
5.66812265929016e+16
5.65169643950841e+16
5.63500017441288e+16
5.61803441341244e+16
5.60079962801225e+16
5.58329620879117e+16
5.56552446260114e+16
5.54748460946106e+16
5.52917678189931e+16
5.51060102724832e+16
5.49175730471645e+16
5.47264547756275e+16
5.45326530846183e+16
5.43361645730911e+16
5.41369847901029e+16
5.39351082126134e+16
5.37305282362542e+16
5.35232371905897e+16
5.33132263281806e+16
5.31004857834459e+16
5.28850045757309e+16
5.26667706288817e+16
5.24457707515029e+16
5.22219905800529e+16
5.19954145442608e+16
5.17660258641483e+16
5.15338064912307e+16
5.12987370520494e+16
5.10607968303308e+16
5.08199637602581e+16
5.05762144383566e+16
5.0329524099067e+16
5.00798665607848e+16
4.9827214203608e+16
4.95715379700492e+16
4.93128073456601e+16
4.90509903747792e+16
4.87860536861875e+16
4.85179624265954e+16
4.82466801978507e+16
4.79721690423656e+16
4.76943894296523e+16
4.74133002515863e+16
4.71288588254761e+16
4.68410209036774e+16
4.65497406746818e+16
4.62549707417806e+16
4.5956662129805e+16
4.56547643098465e+16
4.53492251711358e+16
4.50399910046934e+16
4.47270065072455e+16
4.44102147740728e+16
4.40895573073903e+16
4.37649740009919e+16
4.34364031164138e+16
4.3103781280429e+16
4.27670434928182e+16
4.24261231498674e+16
4.20809520529194e+16
4.17314604171144e+16
4.13775769235014e+16
4.1019228745209e+16
4.06563415173202e+16
4.02888393150455e+16
3.99166446832621e+16
3.95396786830674e+16
3.91578609309396e+16
3.87711096469232e+16
3.83793416495203e+16
3.79824723131593e+16
3.75804155830001e+16
3.71730840133936e+16
3.67603887731456e+16
3.63422396599277e+16
3.59185451391671e+16
3.54892123819688e+16
3.505414729382e+16
3.46132545408107e+16
3.41664376325216e+16
3.37135990205529e+16
3.32546401061364e+16
3.27894612075349e+16
3.23179615732172e+16
3.18400394269165e+16
3.13555919847321e+16
3.08645154660183e+16
3.03667051228317e+16
2.98620552806208e+16
2.9350459430373e+16
2.88318103068216e+16
2.83059998844268e+16
2.7772919357984e+16
2.723245911947e+16
2.66845087928136e+16
2.61289573295528e+16
2.55656930262745e+16
2.49946035552557e+16
2.44155760583354e+16
2.38284971570143e+16
2.32332530649435e+16
2.26297297255386e+16
2.20178130832881e+16
2.13973890121051e+16
2.07683429780597e+16
2.01305575336798e+16
1.94838988997779e+16
1.88281966919084e+16
1.81632357762632e+16
1.74887556017986e+16
1.68044397550345e+16
1.61099198164186e+16
1.54048177864423e+16
1.46887834860057e+16
1.39615056242379e+16
1.32227432664069e+16
1.24724203102323e+16
1.17107691820717e+16
1.09384968087963e+16
1.0157024333726e+16
9.36871134188295e+15
8.57695243561406e+15
7.78633341214466e+15
7.0027884451386e+15
6.23347961550542e+15
5.48652549113962e+15
4.7706798515684e+15
4.09475005435725e+15
3.46688805134042e+15
2.89396240073778e+15
2.38093300643005e+15
1.93041374335015e+15
1.54257463235299e+15
1.21526413939815e+15
944365380923817
724345879743329
548850813076991
411250686964886
305103833673026
224131662704677
163032324897285
117491684902316
83879685894832.7
59209571589719.9
41067522645337.2
28004559446176.1
18833937503415.7
12440380738092.1
8130171419578.18
5401805270389.81
3783114960366.34
2864163346081.81
2347186569129.04
2050107845816.58
1872761115032.68
1762187156619.6
1690148299650.79
1640985236740.99
1605679850971.62
1578807646801.87
1556961509000.57
1537902854063.87
1520137856876.86
1502739640772.81
1485122761177.84
1466855518003.35
1447653210744.7
1427377454324.7
1405966237739.67
1383425656617.24
1359805562441.44
1335186606608.19
1309668773631.43
1283363961962.6
1256390465863.68
1228868844225.24
1200919405413.05
1172659229616.87
1144200714497.91
1115650518457.89
1087108319172.4
1058666133074.97
1030408437061.38
1002411322202.38
974742464804.844
947460113467.978
920614309394.197
894250099877.377
868407257795.893
843119941420.262
818416478538.341
794318758155.18
770843196770.088
748001281946.004
725800254456.263
704244477102.426
683335294003.895
663070837905.536
643446321259.102
624454666270.929
606087921429.666
588334979578.871
571180622838.53
554610765272.291
538612389885.368
523170940709.431
508270643756.581
493895310108.819
480028350210.001
466653094171.301
453753096717.057
441311252116.946
429310209620.537
417733058604.26
406562891184.945
395782401738.011
385373837729.246
375321138269.817
365611660204.603
356234319841.692
347178844008.342
338435607128.802
329995525993.668
321850278994.148
313992343081.344
306414892862.484
299111149015.876
292073650434.299
285285173905.293
278719234501.638
272364340930.051
266227119733.219
260317761725.11
254647198178.41
249205489582.941
243967249112.547
238942801613.644
234175658350.937
229668359546.788
225448479636.721
221598376911.708
218242932996.713
215640019066.216
214212942212.977
214716763378.195
)
;

boundaryField
{
    electrode
    {
        type            calculated;
        value           uniform 6.1261049462806e+16;
    }
    ground
    {
        type            calculated;
        value           uniform 216473973579.904;
    }
    otherfaces
    {
        type            empty;
    }
}


// ************************************************************************* //
