/*--------------------------------*- C++ -*----------------------------------*\
| =========                 |                                                 |
| \\      /  F ield         | foam-extend: Open Source CFD                    |
|  \\    /   O peration     | Version:     4.0                                |
|   \\  /    A nd           | Web:         http://www.foam-extend.org         |
|    \\/     M anipulation  |                                                 |
\*---------------------------------------------------------------------------*/
FoamFile
{
    version     2.0;
    format      ascii;
    class       volScalarField;
    location    "7.7e-06";
    object      PhiMean;
}
// * * * * * * * * * * * * * * * * * * * * * * * * * * * * * * * * * * * * * //

dimensions      [0 0 0 1 0 0 0];

internalField   nonuniform List<scalar> 
300
(
699.990417841623
699.989407391663
699.988122627862
699.986588787205
699.984815017878
699.982794874253
699.98052811292
699.978013768192
699.97525085552
699.972238622558
699.968976375908
699.965463513949
699.961699502027
699.957683864123
699.953416175342
699.948896053622
699.94412315325
699.939097160219
699.933817786742
699.928284765792
699.922497847364
699.916456794363
699.910161378919
699.903611378535
699.896806571879
699.889746742526
699.882431670699
699.874861129571
699.867034884112
699.85895268455
699.85061426133
699.842019333346
699.833167601565
699.824058737347
699.81469237941
699.805068130227
699.79518555193
699.785044164023
699.774643439192
699.763982798446
699.753061608507
699.741879179384
699.730434758444
699.718727527077
699.706756597149
699.694521007565
699.682019720644
699.669251619358
699.656215504379
699.642910093701
699.629334021149
699.615485842625
699.601364028053
699.586966960931
699.572292924732
699.557340096796
699.542106538187
699.526590188696
699.510788862103
699.494700240828
699.478321871365
699.461651159267
699.444685363499
699.427421590522
699.409856804025
699.391987818532
699.373811278872
699.355323654959
699.336521236347
699.317400126186
699.297956234752
699.278185272392
699.258082751655
699.237643983401
699.216864059193
699.195737850622
699.174260011972
699.152424967726
699.130226903126
699.107659741462
699.084717157901
699.061392548613
699.037679019175
699.013569376965
698.989056117626
698.964131426446
698.938787162922
698.913014839702
698.886805609198
698.860150257585
698.833039187365
698.805462401822
698.7774095175
698.748869719679
698.71983174346
698.690283857734
698.660213845307
698.629608985915
698.598456035974
698.56674121231
698.534450171604
698.501567983316
698.468079101277
698.433967358424
698.399215921074
698.363807261647
698.327723134446
698.29094453259
698.253451666164
698.215223916944
698.176239794168
698.13647689497
698.095911857736
698.054520321227
698.012276875551
697.969155000586
697.925127025235
697.880164071577
697.834235973672
697.787311202265
697.739356788384
697.690338258693
697.64021953701
697.588962871573
697.536528721159
697.482875629027
697.427960102146
697.371736495485
697.314156855848
697.255170771444
697.19472520581
697.132764319841
697.069229270962
697.004057991709
696.937184956867
696.868540955667
696.798052781352
696.725642907023
696.651229121081
696.574724155389
696.49603524352
696.415063638674
696.331704081698
696.245844201428
696.157363865012
696.06613445527
695.972018005643
695.874866252601
695.77451954792
695.670805633017
695.563538300395
695.452515788465
695.337518967478
695.21830929228
695.09462638275
694.966185207892
694.832672980623
694.693745202932
694.549021637765
694.398080308415
694.240452637513
694.075611600547
693.902949883897
693.721764171708
693.531244372547
693.330446205791
693.118259115726
692.893396800146
692.654378633883
692.399468313719
692.126619442394
691.833436435084
691.517165902579
691.174610563425
690.802129300205
690.395730542129
689.950917388564
689.462642621305
688.925618031066
688.33422304633
687.682478068791
686.964428012954
686.174234241147
685.306048075935
684.354630274347
683.315254551252
682.183660110369
680.956456962577
679.631131056851
678.20568056859
676.678826565478
675.050042818257
673.319305234178
671.486959030963
669.553561046068
667.519804242896
665.38626741449
663.153352254903
660.821423610365
658.39079262498
655.861784429701
653.234521916379
650.5089663698
647.685289709637
644.763887326733
641.745429151439
638.630743867087
635.42075097337
632.116381620104
628.718516836767
625.227990056222
621.645553113479
617.971966715444
614.208064911399
610.354773700899
606.412946125852
602.38338470816
598.266809860761
594.06390258509
589.775270286882
585.401490777463
580.943075475412
576.400514910616
571.77423983588
567.064668498888
562.272240327265
557.397567078364
552.441203300181
547.403701384095
542.28555716646
537.087269920991
531.809284944097
526.452056535909
521.015988840196
515.501499541188
509.9089563885
504.238744095936
498.491198113035
492.666674141435
486.765479092796
480.78794328204
474.734348867519
468.605017302343
462.400344900459
456.120787098956
449.766745980984
443.338652858444
436.836885320218
430.261852694477
423.613909971614
416.893446334843
410.100795749515
403.236328838942
396.300359853893
389.293242217751
382.215271604923
375.066785381149
367.848061660194
360.559422720909
353.201130027829
345.773491596198
338.27675306647
330.711208954558
323.077089690694
315.374676993858
307.604189385105
299.765919647452
291.860128688697
283.887166524144
275.847332101358
267.740990319156
259.568426286901
251.329993330451
243.025962474865
234.656676171663
226.222391922368
217.723441949794
209.1600707828
200.532601004442
191.841264693821
183.086375339626
174.268153016889
165.386902650366
156.44283273127
147.436240221105
138.367322544329
129.236369268954
120.043567112414
110.789198703291
101.473440378792
92.0965682221752
82.6587486904758
73.1602520462902
63.6012352842159
53.9819631729996
44.3025838932064
34.5633576199126
24.7644242619913
14.9060405708484
4.98833928991239
)
;

boundaryField
{
    electrode
    {
        type            calculated;
        value           uniform 699.999999999569;
    }
    ground
    {
        type            calculated;
        value           uniform 0;
    }
    otherfaces
    {
        type            empty;
    }
}


// ************************************************************************* //
