/*--------------------------------*- C++ -*----------------------------------*\
| =========                 |                                                 |
| \\      /  F ield         | foam-extend: Open Source CFD                    |
|  \\    /   O peration     | Version:     4.0                                |
|   \\  /    A nd           | Web:         http://www.foam-extend.org         |
|    \\/     M anipulation  |                                                 |
\*---------------------------------------------------------------------------*/
FoamFile
{
    version     2.0;
    format      ascii;
    class       volScalarField;
    location    "7.7e-06";
    object      Te;
}
// * * * * * * * * * * * * * * * * * * * * * * * * * * * * * * * * * * * * * //

dimensions      [0 0 0 1 0 0 0];

internalField   nonuniform List<scalar> 
300
(
40134.955785737
40135.2444525985
40135.4187432426
40135.5230251553
40135.6877290316
40135.8875531602
40136.1257664472
40136.4041795402
40136.722051491
40137.0795333341
40137.4766355783
40137.9133460042
40138.3896783714
40138.9056465373
40139.4612700662
40140.0565744327
40140.6915905281
40141.3663548555
40142.0809095326
40142.835302315
40143.6295866323
40144.4638216229
40145.3380721708
40146.2524089476
40147.2069084588
40148.2016530931
40149.2367311752
40150.3122370204
40151.4282709958
40152.584939585
40153.7823554548
40155.0206375269
40156.2999110553
40157.6203077053
40158.9819656366
40160.3850295957
40161.8296510054
40163.3159880645
40164.8442058535
40166.4144764364
40168.0269789757
40169.6818998536
40171.3794327933
40173.1197789855
40174.9031472265
40176.7297540569
40178.5998239081
40180.5135892568
40182.4712907831
40184.4731775377
40186.5195071156
40188.6105458358
40190.74656893
40192.9278607396
40195.1547149181
40197.4274346453
40199.7463328502
40202.1117324388
40204.5239665347
40206.9833787349
40209.4903233642
40212.0451657484
40214.6482825002
40217.3000618091
40220.0009037522
40222.7512206143
40225.5514372185
40228.4019912762
40231.3033337474
40234.2559292197
40237.2602563025
40240.3168080371
40243.4260923241
40246.5886323721
40249.8049671654
40253.0756519503
40256.4012587439
40259.7823768663
40263.2196134964
40266.713594253
40270.2649638038
40273.8743865002
40277.5425470393
40281.270151157
40285.0579263604
40288.9066227227
40292.8170137241
40296.7898969366
40300.8260945092
40304.9264544604
40309.0918541635
40313.3232024783
40317.6214286975
40321.9874631556
40326.4222792697
40330.9270598499
40335.5032135522
40340.1519465249
40344.8741347725
40349.670751861
40354.5429943846
40359.4921366014
40364.5195053251
40369.6264763712
40374.8144748481
40380.0849769488
40385.4395122079
40390.8796659834
40396.4070821145
40402.0234657504
40407.7305863623
40413.530280943
40419.4244574198
40425.4150982886
40431.5042644916
40437.6940995577
40443.9868340265
40450.3847901842
40456.890387131
40463.5061462156
40470.2346968686
40477.0787828677
40484.0412690768
40491.125148706
40498.3335511344
40505.6697503611
40513.1371741386
40520.739413858
40528.4802352663
40536.3635901012
40544.3936287372
40552.5747139642
40560.9114360072
40569.4086289365
40578.0713886336
40586.9050924803
40595.9154209895
40605.1083816125
40614.49033499
40624.0680239596
40633.8486056866
40643.8396873189
40654.049365652
40664.4862713919
40675.1596185652
40686.0792600242
40697.2557496223
40708.7004128292
40720.4254249088
40732.4439029478
40744.7700065527
40757.4190527364
40770.4076522678
40783.753872372
40797.4773819134
40811.5996494744
40826.1444167425
40841.1373126488
40856.6072804197
40872.5862176298
40889.1116429719
40906.2199213517
40923.9618605565
40942.3877191866
40961.5927843551
40981.8150182887
41003.1367175007
41025.4023879441
41048.6332323843
41073.0373440369
41098.8698625237
41126.3361946953
41155.5759341214
41186.7068322951
41219.4974310058
41254.0207464724
41291.1365862256
41330.9157017958
41372.9889909634
41418.2530700656
41467.4149018658
41520.5064742004
41578.9567295658
41644.4416916851
41718.5744452751
41805.5907771144
41910.6188723433
42039.7739968057
42203.9290614601
42417.4776310943
42698.7642779171
43074.9673748312
43584.12068429
44280.7791243044
45242.4363096893
46565.0557705729
48413.432172267
51033.9931923477
54830.4377446311
60142.1989748158
66898.3881622335
76617.6479257376
91263.2979397463
111106.506288903
138762.45875621
176714.393637035
226294.091443686
286110.891230498
351953.838758584
418709.227619127
482289.657090785
540314.241957942
591822.702760735
636847.167396825
675997.482041677
709940.669451631
739435.435918928
765255.788188126
788033.168376869
808267.894537213
826352.438283523
842621.30824426
857360.24418413
870805.84008108
883161.190351735
894587.213009436
905217.446193296
915162.020881438
924512.054098021
933343.031843717
941717.456969326
949686.946483907
957293.91827375
964572.955251178
971551.921439416
978252.862783526
984692.839576668
990884.346255723
996837.398523008
1002556.09768191
1008039.00427164
1013285.91617796
1018295.115021
1023061.60478221
1027578.31187989
1031836.11786474
1035824.21955622
1039530.28887638
1042940.63688666
1046040.35290854
1048813.43090424
1051242.88866868
1053310.8435772
1054998.66952086
1056286.48907383
1057154.45969942
1057571.90589658
1057539.65264057
1057024.15165927
1056004.95147283
1054459.31589983
1052364.99481856
1049699.13055875
1046438.54896995
1042559.66227681
1038038.51007337
1032850.88727512
1026972.23434287
1020377.57002668
1013041.429738
1004939.30450345
996046.808237092
986333.72246276
975771.852464284
964335.663011774
951994.577826206
938716.737757686
924468.378710421
909213.840782673
892915.29850836
875532.407380627
857022.404002244
837338.760446217
816440.201143318
794274.007167018
770776.348490256
745886.669430371
719529.721693278
691615.642242226
662062.213731035
630759.507671621
597572.036667146
562364.395923365
524946.839356745
485085.39613405
442492.09640804
396769.708044057
347351.525337616
293417.400797038
233892.352037567
)
;

boundaryField
{
    electrode
    {
        type            electronTemperature;
        seec            0.05;
        Tse             1000;
        Edepend         1;
        TFN             1000;
        field_emission  0;
        field_enhancement_factor 55;
        work_function   5;
        value           uniform 40134.955785737;
    }
    ground
    {
        type            electronTemperature;
        seec            0.05;
        Tse             1000;
        Edepend         1;
        TFN             1000;
        field_emission  0;
        field_enhancement_factor 55;
        work_function   5;
        value           uniform 200136.923979542;
    }
    otherfaces
    {
        type            empty;
    }
}


// ************************************************************************* //
