/*--------------------------------*- C++ -*----------------------------------*\
| =========                 |                                                 |
| \\      /  F ield         | foam-extend: Open Source CFD                    |
|  \\    /   O peration     | Version:     4.0                                |
|   \\  /    A nd           | Web:         http://www.foam-extend.org         |
|    \\/     M anipulation  |                                                 |
\*---------------------------------------------------------------------------*/
FoamFile
{
    version     2.0;
    format      ascii;
    class       volScalarField;
    location    "4.1e-06";
    object      Ar;
}
// * * * * * * * * * * * * * * * * * * * * * * * * * * * * * * * * * * * * * //

dimensions      [0 0 0 1 0 0 0];

internalField   nonuniform List<scalar> 
300
(
3.21880345830081e+22
3.21880345415562e+22
3.21880345685478e+22
3.2188034579223e+22
3.21880345973286e+22
3.21880346226397e+22
3.21880346534876e+22
3.21880346904871e+22
3.21880347335238e+22
3.21880347825542e+22
3.21880348375751e+22
3.21880348985666e+22
3.21880349655137e+22
3.21880350384028e+22
3.2188035117221e+22
3.21880352019557e+22
3.21880352925981e+22
3.21880353891353e+22
3.21880354915544e+22
3.21880355998442e+22
3.21880357139936e+22
3.21880358339918e+22
3.2188035959828e+22
3.21880360914918e+22
3.21880362289887e+22
3.21880363722961e+22
3.21880365214051e+22
3.21880366763091e+22
3.21880368369898e+22
3.2188037003438e+22
3.21880371756631e+22
3.21880373536501e+22
3.21880375373772e+22
3.21880377268361e+22
3.21880379220189e+22
3.21880381229187e+22
3.21880383295339e+22
3.21880385418568e+22
3.218803875988e+22
3.21880389836004e+22
3.21880392130156e+22
3.21880394481223e+22
3.21880396889193e+22
3.21880399354066e+22
3.21880401875855e+22
3.21880404454583e+22
3.21880407090308e+22
3.21880409783094e+22
3.2188041253311e+22
3.21880415340471e+22
3.21880418205421e+22
3.21880421127961e+22
3.21880424108288e+22
3.21880427146382e+22
3.21880430242331e+22
3.21880433396157e+22
3.21880436608031e+22
3.21880439878139e+22
3.2188044320669e+22
3.21880446593929e+22
3.21880450040082e+22
3.21880453545411e+22
3.21880457110254e+22
3.21880460735109e+22
3.21880464420277e+22
3.21880468165858e+22
3.21880471972208e+22
3.21880475839703e+22
3.21880479768741e+22
3.21880483759743e+22
3.21880487813168e+22
3.21880491929562e+22
3.2188049610943e+22
3.21880500353208e+22
3.21880504661562e+22
3.21880509035031e+22
3.21880513474119e+22
3.21880517979455e+22
3.21880522551444e+22
3.21880527191018e+22
3.2188053189847e+22
3.21880536674442e+22
3.2188054151964e+22
3.21880546434736e+22
3.21880551420589e+22
3.21880556477847e+22
3.21880561607136e+22
3.21880566809206e+22
3.21880572084948e+22
3.21880577435065e+22
3.21880582860414e+22
3.2188058836225e+22
3.21880593940837e+22
3.21880599596985e+22
3.21880605331526e+22
3.21880611145302e+22
3.21880617039162e+22
3.21880623013963e+22
3.21880629070669e+22
3.21880635210138e+22
3.21880641433166e+22
3.21880647740598e+22
3.21880654133609e+22
3.21880660612757e+22
3.21880667178981e+22
3.21880673833216e+22
3.21880680576142e+22
3.21880687408776e+22
3.21880694331825e+22
3.21880701346028e+22
3.21880708452184e+22
3.21880715651078e+22
3.2188072294353e+22
3.21880730330284e+22
3.21880737812059e+22
3.21880745389704e+22
3.21880753064053e+22
3.21880760835474e+22
3.21880768704541e+22
3.21880776671885e+22
3.21880784738287e+22
3.21880792904092e+22
3.21880801170028e+22
3.21880809536386e+22
3.21880818003404e+22
3.21880826571409e+22
3.21880835240939e+22
3.21880844012029e+22
3.21880852884943e+22
3.21880861859804e+22
3.21880870936815e+22
3.21880880116005e+22
3.21880889397355e+22
3.21880898780996e+22
3.21880908267103e+22
3.21880917855238e+22
3.21880927545173e+22
3.21880937336123e+22
3.21880947228288e+22
3.2188095722123e+22
3.21880967314585e+22
3.21880977507924e+22
3.2188098780091e+22
3.21880998193139e+22
3.21881008684054e+22
3.21881019272582e+22
3.21881029957912e+22
3.21881040739163e+22
3.2188105161551e+22
3.21881062586205e+22
3.21881073649789e+22
3.21881084805118e+22
3.21881096050905e+22
3.21881107386505e+22
3.21881118807527e+22
3.21881130317615e+22
3.21881141906922e+22
3.21881153580684e+22
3.21881165338074e+22
3.21881177145012e+22
3.21881189092866e+22
3.21881201019615e+22
3.21881212889687e+22
3.21881224915069e+22
3.21881237026372e+22
3.2188124920213e+22
3.21881261433687e+22
3.21881273603966e+22
3.21881285842481e+22
3.21881298009647e+22
3.21881310123736e+22
3.21881322470517e+22
3.21881334833602e+22
3.21881346755924e+22
3.21881358674439e+22
3.21881370928825e+22
3.21881382458686e+22
3.21881393636271e+22
3.21881405263048e+22
3.21881415864268e+22
3.21881425964641e+22
3.21881436206414e+22
3.21881445391451e+22
3.21881453699404e+22
3.21881462030756e+22
3.21881469326761e+22
3.21881475659829e+22
3.21881481514351e+22
3.21881486802386e+22
3.21881491235357e+22
3.21881494841757e+22
3.21881498152825e+22
3.21881501007007e+22
3.21881503320051e+22
3.21881504719483e+22
3.21881505377779e+22
3.21881505530174e+22
3.21881505889826e+22
3.21881505930362e+22
3.21881505979991e+22
3.21881506114264e+22
3.21881506122437e+22
3.2188150651337e+22
3.21881507003004e+22
3.21881507640791e+22
3.21881508298344e+22
3.21881508901602e+22
3.21881509471146e+22
3.2188150996404e+22
3.21881510426627e+22
3.21881510816985e+22
3.21881511192845e+22
3.21881511721597e+22
3.21881512220123e+22
3.21881512664923e+22
3.218815130866e+22
3.21881513463093e+22
3.21881513825147e+22
3.21881514147785e+22
3.21881514462005e+22
3.21881514739872e+22
3.2188151501312e+22
3.2188151525319e+22
3.21881515493462e+22
3.21881515773208e+22
3.21881516125438e+22
3.21881516444551e+22
3.21881516766735e+22
3.21881517057393e+22
3.21881517353545e+22
3.21881517619297e+22
3.21881517893308e+22
3.21881518137229e+22
3.21881518391379e+22
3.21881518615393e+22
3.21881518850677e+22
3.2188151905533e+22
3.21881519272288e+22
3.21881519457842e+22
3.21881519657091e+22
3.21881519824544e+22
3.21881520006862e+22
3.21881520230627e+22
3.21881520487933e+22
3.21881520715608e+22
3.21881520957345e+22
3.21881521169474e+22
3.21881521396934e+22
3.2188152159461e+22
3.21881521809028e+22
3.21881521993203e+22
3.21881522195148e+22
3.21881522366547e+22
3.21881522556644e+22
3.21881522715723e+22
3.21881522894547e+22
3.21881523042181e+22
3.21881523210572e+22
3.21881523347592e+22
3.21881523506418e+22
3.21881523633531e+22
3.21881523783335e+22
3.21881523900965e+22
3.21881524042305e+22
3.21881524150936e+22
3.21881524284105e+22
3.21881524384016e+22
3.21881524549171e+22
3.21881524698479e+22
3.2188152487617e+22
3.21881525016896e+22
3.21881525187114e+22
3.21881525319657e+22
3.21881525482759e+22
3.21881525607327e+22
3.21881525763696e+22
3.21881525880773e+22
3.21881526030924e+22
3.21881526140889e+22
3.21881526285272e+22
3.21881526388665e+22
3.21881526528333e+22
3.21881526627337e+22
3.21881526763957e+22
3.21881526857574e+22
3.21881526989928e+22
3.21881527078152e+22
3.21881527206249e+22
3.21881527289159e+22
3.21881527415541e+22
3.21881527496249e+22
3.2188152761894e+22
3.2188152769444e+22
3.21881527816637e+22
3.21881527891264e+22
3.21881528011761e+22
3.2188152808656e+22
3.21881528210418e+22
3.21881528289172e+22
3.21881528445958e+22
)
;

boundaryField
{
    electrode
    {
        type            zeroGradient;
    }
    ground
    {
        type            zeroGradient;
    }
    otherfaces
    {
        type            empty;
    }
}


// ************************************************************************* //
