/*--------------------------------*- C++ -*----------------------------------*\
| =========                 |                                                 |
| \\      /  F ield         | foam-extend: Open Source CFD                    |
|  \\    /   O peration     | Version:     4.0                                |
|   \\  /    A nd           | Web:         http://www.foam-extend.org         |
|    \\/     M anipulation  |                                                 |
\*---------------------------------------------------------------------------*/
FoamFile
{
    version     2.0;
    format      ascii;
    class       volScalarField;
    location    "4.1e-06";
    object      Arm;
}
// * * * * * * * * * * * * * * * * * * * * * * * * * * * * * * * * * * * * * //

dimensions      [0 0 0 1 0 0 0];

internalField   nonuniform List<scalar> 
300
(
3.57414194409759e+15
3.57601950163019e+15
3.57796841555575e+15
3.5792743637938e+15
3.58009057516583e+15
3.58046908947098e+15
3.58045411508506e+15
3.58007708819281e+15
3.57936366656169e+15
3.5783358352227e+15
3.57700936663044e+15
3.57539834703836e+15
3.57351482948877e+15
3.57136941650516e+15
3.56897156504668e+15
3.56632982116144e+15
3.5634490048894e+15
3.56033770469677e+15
3.55700426279538e+15
3.55345515799491e+15
3.5496965917563e+15
3.54573448577214e+15
3.54157453006881e+15
3.53722217888123e+15
3.53266673744714e+15
3.52792596178735e+15
3.52300354990183e+15
3.51790151138745e+15
3.51263344774943e+15
3.50720424452157e+15
3.5016001236479e+15
3.49583246760063e+15
3.48991939162734e+15
3.48386627341802e+15
3.47767819923087e+15
3.47135997253043e+15
3.46491176237703e+15
3.45834008755243e+15
3.4516520188878e+15
3.44485109026638e+15
3.43794080456818e+15
3.43092643942469e+15
3.4238118752137e+15
3.41660080353316e+15
3.40929672459938e+15
3.4019029030483e+15
3.39442028227771e+15
3.38685031484998e+15
3.37918523042859e+15
3.37142362675224e+15
3.36355288431782e+15
3.35558552758994e+15
3.34751614482596e+15
3.33936246983353e+15
3.33113262799913e+15
3.32284299989121e+15
3.31449688073945e+15
3.30609718669416e+15
3.29764649062783e+15
3.28914520777365e+15
3.28059765634301e+15
3.27200594894591e+15
3.26336674477438e+15
3.2546620639459e+15
3.24589588489917e+15
3.23709381445516e+15
3.22825793523815e+15
3.21939008699089e+15
3.2104918555389e+15
3.20156460135587e+15
3.19260748082685e+15
3.18361333707359e+15
3.17458063160994e+15
3.16551682467831e+15
3.15640835660013e+15
3.1472562906118e+15
3.13806697787412e+15
3.12883627147177e+15
3.11958418764718e+15
3.11028010934794e+15
3.1009586713627e+15
3.0916219865782e+15
3.08226696568704e+15
3.07289588027577e+15
3.06349389120311e+15
3.054068749534e+15
3.04463216848062e+15
3.03518446878366e+15
3.02571372405469e+15
3.01622770520587e+15
3.00672040995892e+15
2.99714671390114e+15
2.98756196675297e+15
2.97796778096723e+15
2.96836418469833e+15
2.95875120419239e+15
2.94912862113608e+15
2.9394960080644e+15
2.92984241810869e+15
2.92016779248115e+15
2.91047840004418e+15
2.90077553473899e+15
2.89102738381099e+15
2.88126322468002e+15
2.87147381857347e+15
2.861649807933e+15
2.85180624597651e+15
2.84192348658337e+15
2.83201197195311e+15
2.82207715497588e+15
2.81211716203762e+15
2.80212970919915e+15
2.79210705031295e+15
2.7820469759528e+15
2.77194727334509e+15
2.76179028302897e+15
2.75155709543885e+15
2.74127254500366e+15
2.73093749742871e+15
2.72054387774964e+15
2.71006526794956e+15
2.69951467190241e+15
2.68886305944106e+15
2.67812084442208e+15
2.66729946534646e+15
2.65639672770962e+15
2.64538448353583e+15
2.63428020559768e+15
2.62307304726466e+15
2.6117609788887e+15
2.60032834425452e+15
2.58877127995947e+15
2.57708479825894e+15
2.56524280664935e+15
2.55320880767513e+15
2.54100169229665e+15
2.52862539098861e+15
2.51605484268645e+15
2.5032711779798e+15
2.49028354496614e+15
2.47707594430526e+15
2.46363172836654e+15
2.44991874409394e+15
2.43590488898661e+15
2.42156553145285e+15
2.4069205117313e+15
2.39195494566786e+15
2.37665247576953e+15
2.36098256680882e+15
2.34489628829033e+15
2.32840611973918e+15
2.31148731308963e+15
2.29407755054956e+15
2.27617568390194e+15
2.25776346399259e+15
2.23879114228482e+15
2.21921544986692e+15
2.19903586615169e+15
2.17823324919888e+15
2.15676262095778e+15
2.13458836942118e+15
2.1116954254652e+15
2.08804549904149e+15
2.06365117226628e+15
2.0384994585227e+15
2.01253572922963e+15
1.98578083174007e+15
1.9582793548972e+15
1.93006025199552e+15
1.90116548533693e+15
1.87166368817992e+15
1.84158813956393e+15
1.81103121222247e+15
1.78016444614416e+15
1.74918181249522e+15
1.71825314213661e+15
1.68755761577601e+15
1.65729422243847e+15
1.62770182607069e+15
1.59893595322952e+15
1.57115087953996e+15
1.5444936705881e+15
1.51904562391449e+15
1.49492159045387e+15
1.47212138112053e+15
1.4505545515182e+15
1.43026085470694e+15
1.41118919663831e+15
1.39325246615066e+15
1.37636682883866e+15
1.36042934302889e+15
1.34546610993615e+15
1.33189447852038e+15
1.32456835368495e+15
1.34920603867111e+15
1.41153930366895e+15
1.48167168279996e+15
1.52549790945363e+15
1.54349767780954e+15
1.5394244826101e+15
1.51826039675884e+15
1.48917000684462e+15
1.45970879122334e+15
1.43431840814449e+15
1.41434241598544e+15
1.39949093350892e+15
1.38822992690735e+15
1.37997359632927e+15
1.37384344627761e+15
1.36913797126914e+15
1.3649272256124e+15
1.36103597092454e+15
1.35725711708871e+15
1.35336501609122e+15
1.34949559465116e+15
1.34552717175403e+15
1.34136497067103e+15
1.33699539600543e+15
1.33237595968096e+15
1.32749311570627e+15
1.32235658111778e+15
1.31695408855879e+15
1.31122236561058e+15
1.3050921603972e+15
1.29865475145148e+15
1.29206949818454e+15
1.28537438803214e+15
1.27858495909436e+15
1.2717310009861e+15
1.26484702427675e+15
1.25794379076482e+15
1.25104682947194e+15
1.24418542549433e+15
1.23737096250019e+15
1.23061717780932e+15
1.22395334796181e+15
1.21737459200164e+15
1.21090946628216e+15
1.20455474030763e+15
1.19832759218909e+15
1.19223382732452e+15
1.18626987497283e+15
1.1804537305766e+15
1.17477354360237e+15
1.16923687626293e+15
1.16385969108809e+15
1.15862777145895e+15
1.15354779081658e+15
1.14862078224002e+15
1.14383697725868e+15
1.13920156690127e+15
1.13470860844108e+15
1.13035340152528e+15
1.12613929134279e+15
1.12205785266158e+15
1.11810668795138e+15
1.11428426732398e+15
1.11057504501902e+15
1.10698776837525e+15
1.10351464461246e+15
1.10016149917211e+15
1.09691579518535e+15
1.09378050369041e+15
1.0907475355754e+15
1.08781484206817e+15
1.08497891046874e+15
1.08223236131451e+15
1.07957232434326e+15
1.0769885749878e+15
1.07448765596183e+15
1.07206252505429e+15
1.0697191651776e+15
1.0674450045496e+15
1.06524626751357e+15
1.06311126540663e+15
1.06103891815639e+15
1.05902781588935e+15
1.05707823525059e+15
1.0551923831506e+15
1.05336405778863e+15
1.051592247924e+15
1.04983693346999e+15
1.04800996978621e+15
1.04620552741407e+15
1.04444921587092e+15
1.04273174050257e+15
1.04106062116977e+15
1.03943686491989e+15
1.03784964910684e+15
1.03605150393916e+15
1.03424715699155e+15
1.03248975828705e+15
1.03078071571785e+15
1.02876065553009e+15
1.02675011482831e+15
1.02462856588864e+15
1.02223692937371e+15
1.01956236850163e+15
1.01649854622187e+15
1.01279053040671e+15
)
;

boundaryField
{
    electrode
    {
        type            zeroGradient;
    }
    ground
    {
        type            zeroGradient;
    }
    otherfaces
    {
        type            empty;
    }
}


// ************************************************************************* //
