/*--------------------------------*- C++ -*----------------------------------*\
| =========                 |                                                 |
| \\      /  F ield         | foam-extend: Open Source CFD                    |
|  \\    /   O peration     | Version:     4.0                                |
|   \\  /    A nd           | Web:         http://www.foam-extend.org         |
|    \\/     M anipulation  |                                                 |
\*---------------------------------------------------------------------------*/
FoamFile
{
    version     2.0;
    format      ascii;
    class       volScalarField;
    location    "4.1e-06";
    object      Arp1;
}
// * * * * * * * * * * * * * * * * * * * * * * * * * * * * * * * * * * * * * //

dimensions      [0 0 0 1 0 0 0];

internalField   nonuniform List<scalar> 
300
(
5.94057282529578e+16
5.94468563737619e+16
5.94219843987797e+16
5.94169539102285e+16
5.94078070358812e+16
5.93947379513461e+16
5.93793742892189e+16
5.93610678813952e+16
5.9339907468474e+16
5.93159136858854e+16
5.92890728362183e+16
5.92593896650408e+16
5.92268656304886e+16
5.9191502080494e+16
5.91533009169524e+16
5.91122640793681e+16
5.90683936474388e+16
5.90216918286927e+16
5.89721609329266e+16
5.89198033600129e+16
5.88646215824296e+16
5.88066181285158e+16
5.87457955642343e+16
5.86821564746825e+16
5.86157034447046e+16
5.8546439039666e+16
5.84743657839909e+16
5.8399486140971e+16
5.83218024909655e+16
5.82413171090461e+16
5.81580321424159e+16
5.8071949587798e+16
5.79830712671579e+16
5.78913988040226e+16
5.77969335995549e+16
5.76996768068867e+16
5.75996293070292e+16
5.7496791683077e+16
5.73911641946201e+16
5.72827467520703e+16
5.71715388911781e+16
5.70575397459824e+16
5.69407480237822e+16
5.68211619784949e+16
5.66987793843566e+16
5.65735975103434e+16
5.64456130941191e+16
5.63148223160147e+16
5.61812207737971e+16
5.60448034576686e+16
5.59055647247355e+16
5.57634982750309e+16
5.56185971276731e+16
5.54708535966227e+16
5.53202592685169e+16
5.51668049800347e+16
5.50104807964553e+16
5.48512759907555e+16
5.46891790238115e+16
5.45241775254616e+16
5.43562582758997e+16
5.4185407189673e+16
5.40116092987526e+16
5.38348487384701e+16
5.36551087340141e+16
5.34723715880963e+16
5.32866186703109e+16
5.30978304081919e+16
5.29059862790907e+16
5.27110648042789e+16
5.25130435446981e+16
5.23118990981361e+16
5.21076070983618e+16
5.19001422164535e+16
5.16894781636897e+16
5.14755876964227e+16
5.12584426237527e+16
5.10380138164689e+16
5.08142712184594e+16
5.0587183861209e+16
5.03567198793534e+16
5.01228465293729e+16
4.98855302110948e+16
4.96447364907279e+16
4.94004301270424e+16
4.91525751006782e+16
4.8901134644657e+16
4.86460712792057e+16
4.83873468481398e+16
4.81249225586899e+16
4.78587590235635e+16
4.75888163065928e+16
4.73150539704072e+16
4.70374311274022e+16
4.67559064937002e+16
4.64704384456143e+16
4.61809850791834e+16
4.58875042728594e+16
4.55899537524668e+16
4.52882911594768e+16
4.49824741222567e+16
4.46724603295665e+16
4.43582076072624e+16
4.40396739978383e+16
4.37168178424186e+16
4.33895978653143e+16
4.30579732617932e+16
4.27219037877665e+16
4.23813498520871e+16
4.20362726118084e+16
4.16866340690869e+16
4.13323971705926e+16
4.09735259095574e+16
4.06099854292627e+16
4.02417421288341e+16
3.98687637711601e+16
3.94910195925315e+16
3.91084804134469e+16
3.87211187524712e+16
3.83289089400379e+16
3.79318272349355e+16
3.75298519419231e+16
3.71229635304079e+16
3.67111447548831e+16
3.62943807768397e+16
3.58726592874221e+16
3.54459706323972e+16
3.5014307937991e+16
3.45776672389623e+16
3.41360476082002e+16
3.36894512884376e+16
3.32378838247424e+16
3.27813541946326e+16
3.23198748673115e+16
3.18534620723054e+16
3.13821354214719e+16
3.09059059212382e+16
3.04248678482438e+16
2.9939010005316e+16
2.94483560519127e+16
2.89529454751599e+16
2.84528231975021e+16
2.79480383931345e+16
2.74386454029559e+16
2.69247044212528e+16
2.64062820406242e+16
2.58834518306313e+16
2.53562950557015e+16
2.48249010537297e+16
2.42893695438582e+16
2.37498098732507e+16
2.32063374155979e+16
2.26591201976217e+16
2.21082016886417e+16
2.15540188752028e+16
2.09962380809066e+16
2.04358701008777e+16
1.9872379025975e+16
1.93058524840868e+16
1.87397437077681e+16
1.81649538981224e+16
1.75977461233542e+16
1.70419913309535e+16
1.64769494867576e+16
1.5909972092931e+16
1.53435199546477e+16
1.47786337482532e+16
1.42272050035019e+16
1.36765420899512e+16
1.31408297586078e+16
1.26183903936899e+16
1.20805135814944e+16
1.15479883314999e+16
1.10651681177044e+16
1.05867187130526e+16
1.00762460031628e+16
9.63642377109053e+15
9.22616034643613e+15
8.76059172934364e+15
8.38161310611703e+15
8.03085748871009e+15
7.63792180077106e+15
7.31633845586946e+15
7.04237912875624e+15
6.72115425845002e+15
6.45477327284005e+15
6.23358352090766e+15
6.0084777639341e+15
5.78917202838232e+15
5.60692046899387e+15
5.46261671393288e+15
5.30788449667018e+15
5.16352698418689e+15
5.03827955541465e+15
4.94883017858431e+15
4.8771233294715e+15
4.83469023615011e+15
4.78769755941595e+15
4.78962303536967e+15
4.80604918596599e+15
4.82638018925087e+15
4.86339071337574e+15
4.85938849421276e+15
4.83918300569471e+15
4.79729483514506e+15
4.747462517928e+15
4.69900357114392e+15
4.65065626969106e+15
4.60770506934147e+15
4.56627693980692e+15
4.53152749390706e+15
4.49787793614006e+15
4.44880786489162e+15
4.40286186161504e+15
4.36225852559438e+15
4.32406248611702e+15
4.29057648493109e+15
4.25874110113875e+15
4.23109738190583e+15
4.20455964049938e+15
4.18191216514652e+15
4.15999416999989e+15
4.14172493747141e+15
4.12383580874294e+15
4.10230821841352e+15
4.07368175327237e+15
4.0484784475779e+15
4.0230638973782e+15
4.00086781681415e+15
3.97815352144542e+15
3.95849970046379e+15
3.93801455142807e+15
3.92050370284317e+15
3.90192364292338e+15
3.88629703854293e+15
3.86945383056206e+15
3.85558901903892e+15
3.84038027131592e+15
3.82820154582324e+15
3.81452574295891e+15
3.80389608412433e+15
3.79164991593044e+15
3.77511106588439e+15
3.75508187423093e+15
3.73787193575045e+15
3.71909592984832e+15
3.70313506913244e+15
3.68548866582433e+15
3.67066730599084e+15
3.65402811343521e+15
3.6402643139215e+15
3.62458055629822e+15
3.6118131209085e+15
3.59703418420535e+15
3.58522402432845e+15
3.57130843943845e+15
3.56038274533036e+15
3.54726750426528e+15
3.53716705972486e+15
3.52477131647854e+15
3.5154263619497e+15
3.50370447214417e+15
3.4950891654252e+15
3.48400008912624e+15
3.47608115955573e+15
3.46561127397284e+15
3.45837748308288e+15
3.4445323824982e+15
3.43219526889482e+15
3.41693666461558e+15
3.40529852341806e+15
3.39062908513537e+15
3.37965773320171e+15
3.36555464200661e+15
3.35524099337603e+15
3.34168430844601e+15
3.33199524671772e+15
3.31893710428355e+15
3.30983347669416e+15
3.29723039329742e+15
3.2886694555795e+15
3.27646433968968e+15
3.26839704253418e+15
3.2565454658396e+15
3.2489457765818e+15
3.23743345292269e+15
3.23028755832136e+15
3.21910682085718e+15
3.21240806812756e+15
3.20157279502215e+15
3.19531091364826e+15
3.18480369085543e+15
3.17896697559685e+15
3.16877131489821e+15
3.1633227890642e+15
3.15339807208971e+15
3.14831260806048e+15
3.13860349753776e+15
3.13379270060292e+15
3.12182102346948e+15
)
;

boundaryField
{
    electrode
    {
        type            driftDiffusionPositiveIonDensity;
        seec            0;
        fieldName       Arp1;
        value           uniform 5.92320848593279e+16;
    }
    ground
    {
        type            driftDiffusionPositiveIonDensity;
        seec            0;
        fieldName       Arp1;
        value           uniform 3.12182102346948e+15;
    }
    otherfaces
    {
        type            empty;
    }
}


// ************************************************************************* //
