/*--------------------------------*- C++ -*----------------------------------*\
| =========                 |                                                 |
| \\      /  F ield         | foam-extend: Open Source CFD                    |
|  \\    /   O peration     | Version:     4.0                                |
|   \\  /    A nd           | Web:         http://www.foam-extend.org         |
|    \\/     M anipulation  |                                                 |
\*---------------------------------------------------------------------------*/
FoamFile
{
    version     2.0;
    format      ascii;
    class       volVectorField;
    location    "4.1e-06";
    object      J_Arp1;
}
// * * * * * * * * * * * * * * * * * * * * * * * * * * * * * * * * * * * * * //

dimensions      [1 -1 -1 0 0 0 0];

internalField   nonuniform List<vector> 
300
(
(1.83343927752625e+16 -0 -0)
(6.60311747620217e+16 -0 -0)
(1.18045447556481e+17 -0 -0)
(1.64154901347528e+17 -0 -0)
(2.1085497263853e+17 -0 -0)
(2.57831638897343e+17 -0 -0)
(3.0463958734574e+17 -0 -0)
(3.5145486404827e+17 -0 -0)
(3.98245154723863e+17 -0 -0)
(4.45002553008195e+17 -0 -0)
(4.91727942013587e+17 -0 -0)
(5.38417319938246e+17 -0 -0)
(5.85067942440937e+17 -0 -0)
(6.31677304310252e+17 -0 -0)
(6.78243002224954e+17 -0 -0)
(7.24762885856619e+17 -0 -0)
(7.71235034249628e+17 -0 -0)
(8.17657768559042e+17 -0 -0)
(8.6402966651083e+17 -0 -0)
(9.10349572469915e+17 -0 -0)
(9.56616609028383e+17 -0 -0)
(1.00283018787075e+18 -0 -0)
(1.04899002039151e+18 -0 -0)
(1.09509612795251e+18 -0 -0)
(1.14114885170762e+18 -0 -0)
(1.18714886242508e+18 -0 -0)
(1.23309716973176e+18 -0 -0)
(1.27899513086841e+18 -0 -0)
(1.32484445924066e+18 -0 -0)
(1.37064723222739e+18 -0 -0)
(1.41640589879458e+18 -0 -0)
(1.46212328668354e+18 -0 -0)
(1.50780260850921e+18 -0 -0)
(1.55344746814479e+18 -0 -0)
(1.59906186581367e+18 -0 -0)
(1.64465020303664e+18 -0 -0)
(1.69021728661155e+18 -0 -0)
(1.73576833241229e+18 -0 -0)
(1.78130896778971e+18 -0 -0)
(1.82684523414227e+18 -0 -0)
(1.8723835881717e+18 -0 -0)
(1.91793090235692e+18 -0 -0)
(1.96349446508307e+18 -0 -0)
(2.00908197963154e+18 -0 -0)
(2.05470156231641e+18 -0 -0)
(2.10036173989629e+18 -0 -0)
(2.14607144635934e+18 -0 -0)
(2.19184001798034e+18 -0 -0)
(2.23767718844485e+18 -0 -0)
(2.28359308241812e+18 -0 -0)
(2.32959820818469e+18 -0 -0)
(2.37570344935793e+18 -0 -0)
(2.42192005591312e+18 -0 -0)
(2.46825963330856e+18 -0 -0)
(2.5147341314323e+18 -0 -0)
(2.56135583217718e+18 -0 -0)
(2.60813733545086e+18 -0 -0)
(2.65509154473776e+18 -0 -0)
(2.70223165126676e+18 -0 -0)
(2.74957111679738e+18 -0 -0)
(2.79712365556068e+18 -0 -0)
(2.84490321472609e+18 -0 -0)
(2.89292395407946e+18 -0 -0)
(2.94120022404269e+18 -0 -0)
(2.98974654286449e+18 -0 -0)
(3.03857757230679e+18 -0 -0)
(3.0877080924438e+18 -0 -0)
(3.13715297471079e+18 -0 -0)
(3.1869271544104e+18 -0 -0)
(3.23704560157504e+18 -0 -0)
(3.28752329066051e+18 -0 -0)
(3.33837516909144e+18 -0 -0)
(3.38961612487154e+18 -0 -0)
(3.44126095233801e+18 -0 -0)
(3.49332431774232e+18 -0 -0)
(3.54582072272047e+18 -0 -0)
(3.59876446737789e+18 -0 -0)
(3.65216961185658e+18 -0 -0)
(3.70604993698052e+18 -0 -0)
(3.7604189041324e+18 -0 -0)
(3.81528961347656e+18 -0 -0)
(3.87067476196052e+18 -0 -0)
(3.92658660015989e+18 -0 -0)
(3.98303688795456e+18 -0 -0)
(4.04003684977833e+18 -0 -0)
(4.09759712901596e+18 -0 -0)
(4.15572774157855e+18 -0 -0)
(4.21443802905044e+18 -0 -0)
(4.273736611084e+18 -0 -0)
(4.33363133745152e+18 -0 -0)
(4.39412923952532e+18 -0 -0)
(4.45523648156778e+18 -0 -0)
(4.51695831159878e+18 -0 -0)
(4.57929901232311e+18 -0 -0)
(4.64226185183606e+18 -0 -0)
(4.70584903413739e+18 -0 -0)
(4.77006165050179e+18 -0 -0)
(4.83489962994423e+18 -0 -0)
(4.90036169124246e+18 -0 -0)
(4.96644529443173e+18 -0 -0)
(5.03314659365006e+18 -0 -0)
(5.10046038999302e+18 -0 -0)
(5.16838008571415e+18 -0 -0)
(5.23689763941058e+18 -0 -0)
(5.30600352187514e+18 -0 -0)
(5.37568667367665e+18 -0 -0)
(5.44593446394905e+18 -0 -0)
(5.51673265078707e+18 -0 -0)
(5.58806534352848e+18 -0 -0)
(5.65991496680523e+18 -0 -0)
(5.73226222664478e+18 -0 -0)
(5.80508607934704e+18 -0 -0)
(5.87836370225298e+18 -0 -0)
(5.95207046764821e+18 -0 -0)
(6.02617991961932e+18 -0 -0)
(6.10066375383785e+18 -0 -0)
(6.1754918011534e+18 -0 -0)
(6.25063201457824e+18 -0 -0)
(6.32605046069284e+18 -0 -0)
(6.40171131497125e+18 -0 -0)
(6.4775768619618e+18 -0 -0)
(6.55360750061517e+18 -0 -0)
(6.62976175463415e+18 -0 -0)
(6.70599628901893e+18 -0 -0)
(6.78226593277605e+18 -0 -0)
(6.85852370804575e+18 -0 -0)
(6.93472086698766e+18 -0 -0)
(7.01080693586002e+18 -0 -0)
(7.08672976795792e+18 -0 -0)
(7.16243560517882e+18 -0 -0)
(7.23786914954007e+18 -0 -0)
(7.31297364537351e+18 -0 -0)
(7.38769097453318e+18 -0 -0)
(7.46196174232374e+18 -0 -0)
(7.53572559330371e+18 -0 -0)
(7.60892122394397e+18 -0 -0)
(7.68148180876731e+18 -0 -0)
(7.75338532114685e+18 -0 -0)
(7.82459260908543e+18 -0 -0)
(7.8950473110982e+18 -0 -0)
(7.96468754554554e+18 -0 -0)
(8.03345122267335e+18 -0 -0)
(8.10127692420352e+18 -0 -0)
(8.16810398501101e+18 -0 -0)
(8.23387257349622e+18 -0 -0)
(8.29852385052121e+18 -0 -0)
(8.36200018942928e+18 -0 -0)
(8.42424545814768e+18 -0 -0)
(8.48520505074905e+18 -0 -0)
(8.54482687501642e+18 -0 -0)
(8.60306083490601e+18 -0 -0)
(8.65985558979443e+18 -0 -0)
(8.71518512664236e+18 -0 -0)
(8.76895001718595e+18 -0 -0)
(8.82125230610674e+18 -0 -0)
(8.87179579071916e+18 -0 -0)
(8.92092629695617e+18 -0 -0)
(8.96831993095724e+18 -0 -0)
(9.01362611013989e+18 -0 -0)
(9.05898531647629e+18 -0 -0)
(9.09867364267404e+18 -0 -0)
(9.14159852782731e+18 -0 -0)
(9.18241196736797e+18 -0 -0)
(9.22031718637033e+18 -0 -0)
(9.25694023620675e+18 -0 -0)
(9.29169624955034e+18 -0 -0)
(9.32362764100079e+18 -0 -0)
(9.35802549598172e+18 -0 -0)
(9.38669471977524e+18 -0 -0)
(9.41784505993448e+18 -0 -0)
(9.44874200678838e+18 -0 -0)
(9.47378669927424e+18 -0 -0)
(9.49428015185918e+18 -0 -0)
(9.52793773449191e+18 -0 -0)
(9.54374042587328e+18 -0 -0)
(9.55953883609773e+18 -0 -0)
(9.5927285775819e+18 -0 -0)
(9.60689330869507e+18 -0 -0)
(9.61425253119005e+18 -0 -0)
(9.64936536999141e+18 -0 -0)
(9.6525852520541e+18 -0 -0)
(9.66192096410359e+18 -0 -0)
(9.68529508461964e+18 -0 -0)
(9.70022286023929e+18 -0 -0)
(9.70092353067429e+18 -0 -0)
(9.71483122120161e+18 -0 -0)
(9.72783395526597e+18 -0 -0)
(9.73644641356789e+18 -0 -0)
(9.74741771691688e+18 -0 -0)
(9.76020815582938e+18 -0 -0)
(9.78526565948844e+18 -0 -0)
(9.80063643145496e+18 -0 -0)
(9.83570668830161e+18 -0 -0)
(9.86441716670695e+18 -0 -0)
(9.925941347797e+18 -0 -0)
(9.99062706655686e+18 -0 -0)
(1.01254151673501e+19 -0 -0)
(1.02751113979273e+19 -0 -0)
(1.05112456218647e+19 -0 -0)
(1.07661363576078e+19 -0 -0)
(1.10164050900597e+19 -0 -0)
(1.12923067172508e+19 -0 -0)
(1.1458394044861e+19 -0 -0)
(1.16332225698132e+19 -0 -0)
(1.17541524083174e+19 -0 -0)
(1.18380394929402e+19 -0 -0)
(1.19081821365693e+19 -0 -0)
(1.19622816225675e+19 -0 -0)
(1.20149463185855e+19 -0 -0)
(1.20572578327061e+19 -0 -0)
(1.21038491340879e+19 -0 -0)
(1.21420366099389e+19 -0 -0)
(1.21849691462211e+19 -0 -0)
(1.22246751311436e+19 -0 -0)
(1.22685389079432e+19 -0 -0)
(1.23092869178847e+19 -0 -0)
(1.23542508416929e+19 -0 -0)
(1.2395377449586e+19 -0 -0)
(1.24406444865581e+19 -0 -0)
(1.24815688001491e+19 -0 -0)
(1.25268629408997e+19 -0 -0)
(1.25675319164482e+19 -0 -0)
(1.26127426064985e+19 -0 -0)
(1.26529798447702e+19 -0 -0)
(1.26974810436852e+19 -0 -0)
(1.27366603978266e+19 -0 -0)
(1.27808259199522e+19 -0 -0)
(1.28189522470282e+19 -0 -0)
(1.28622194429678e+19 -0 -0)
(1.28989376477934e+19 -0 -0)
(1.29409090164817e+19 -0 -0)
(1.2975680803645e+19 -0 -0)
(1.30159471457419e+19 -0 -0)
(1.30485156686835e+19 -0 -0)
(1.30869622040965e+19 -0 -0)
(1.31174496785188e+19 -0 -0)
(1.31543023994993e+19 -0 -0)
(1.31829578116393e+19 -0 -0)
(1.32185177694925e+19 -0 -0)
(1.32455157198616e+19 -0 -0)
(1.32797973192068e+19 -0 -0)
(1.33052872492009e+19 -0 -0)
(1.3337971897239e+19 -0 -0)
(1.33625077431554e+19 -0 -0)
(1.33939844069298e+19 -0 -0)
(1.34168751824505e+19 -0 -0)
(1.34470456761105e+19 -0 -0)
(1.34683097658015e+19 -0 -0)
(1.34971995849575e+19 -0 -0)
(1.35167864758974e+19 -0 -0)
(1.35444701305101e+19 -0 -0)
(1.35625429131661e+19 -0 -0)
(1.35891322954381e+19 -0 -0)
(1.36058237123164e+19 -0 -0)
(1.36314801281239e+19 -0 -0)
(1.36469272655721e+19 -0 -0)
(1.36716539224656e+19 -0 -0)
(1.36858815158778e+19 -0 -0)
(1.37097023519536e+19 -0 -0)
(1.37226367230537e+19 -0 -0)
(1.37455058311956e+19 -0 -0)
(1.37571821203406e+19 -0 -0)
(1.37792012931939e+19 -0 -0)
(1.37896522708878e+19 -0 -0)
(1.3810875152289e+19 -0 -0)
(1.38202237821023e+19 -0 -0)
(1.38408015058867e+19 -0 -0)
(1.38489710741163e+19 -0 -0)
(1.38697046531845e+19 -0 -0)
(1.38769145010488e+19 -0 -0)
(1.38971685885731e+19 -0 -0)
(1.39034326824625e+19 -0 -0)
(1.39232837164827e+19 -0 -0)
(1.3928692869473e+19 -0 -0)
(1.39482847206922e+19 -0 -0)
(1.39529291868695e+19 -0 -0)
(1.39722937827381e+19 -0 -0)
(1.39761332260922e+19 -0 -0)
(1.39952618355003e+19 -0 -0)
(1.39982586404092e+19 -0 -0)
(1.40171127419355e+19 -0 -0)
(1.40191566053789e+19 -0 -0)
(1.40376558737514e+19 -0 -0)
(1.4038675685491e+19 -0 -0)
(1.40568255765473e+19 -0 -0)
(1.40568694556966e+19 -0 -0)
(1.40747196817247e+19 -0 -0)
(1.40738575644187e+19 -0 -0)
(1.40914821287639e+19 -0 -0)
(1.40898731157661e+19 -0 -0)
(1.41073250241097e+19 -0 -0)
(1.41049860704313e+19 -0 -0)
(1.41223053398827e+19 -0 -0)
(1.41192510220218e+19 -0 -0)
(1.41363585183018e+19 -0 -0)
(1.41324880481466e+19 -0 -0)
(1.41493488685189e+19 -0 -0)
(1.41444869816908e+19 -0 -0)
(1.41607865890501e+19 -0 -0)
(1.41437288985777e+19 -0 -0)
)
;

boundaryField
{
    electrode
    {
        type            calculated;
        value           uniform (-1039446185.36103 -0 -0);
    }
    ground
    {
        type            calculated;
        value           uniform (1.41619129915343e+19 -0 -0);
    }
    otherfaces
    {
        type            empty;
    }
}


// ************************************************************************* //
