/*--------------------------------*- C++ -*----------------------------------*\
| =========                 |                                                 |
| \\      /  F ield         | foam-extend: Open Source CFD                    |
|  \\    /   O peration     | Version:     4.0                                |
|   \\  /    A nd           | Web:         http://www.foam-extend.org         |
|    \\/     M anipulation  |                                                 |
\*---------------------------------------------------------------------------*/
FoamFile
{
    version     2.0;
    format      ascii;
    class       volVectorField;
    location    "4.1e-06";
    object      J_electron;
}
// * * * * * * * * * * * * * * * * * * * * * * * * * * * * * * * * * * * * * //

dimensions      [1 -1 -1 0 0 0 0];

internalField   nonuniform List<vector> 
300
(
(-1.2568879111299e+19 0 0)
(-1.28918353009837e+19 0 0)
(-1.52212103458663e+19 0 0)
(-1.47650842230705e+19 0 0)
(-1.47623079577699e+19 0 0)
(-1.47523575906144e+19 0 0)
(-1.4693038215069e+19 0 0)
(-1.46488337467261e+19 0 0)
(-1.46025806507272e+19 0 0)
(-1.45556596727777e+19 0 0)
(-1.45091242638198e+19 0 0)
(-1.44625146410923e+19 0 0)
(-1.4415912280766e+19 0 0)
(-1.43693295362825e+19 0 0)
(-1.43227563400464e+19 0 0)
(-1.42761957953475e+19 0 0)
(-1.42296479437543e+19 0 0)
(-1.41831124551918e+19 0 0)
(-1.41365891169345e+19 0 0)
(-1.40900772811405e+19 0 0)
(-1.4043576107645e+19 0 0)
(-1.39970844835329e+19 0 0)
(-1.39506010294467e+19 0 0)
(-1.3904124096229e+19 0 0)
(-1.38576517026727e+19 0 0)
(-1.38111815957329e+19 0 0)
(-1.37647112343275e+19 0 0)
(-1.37182377353628e+19 0 0)
(-1.36717579439754e+19 0 0)
(-1.36252683420155e+19 0 0)
(-1.35787650875181e+19 0 0)
(-1.35322440887828e+19 0 0)
(-1.34857007897393e+19 0 0)
(-1.34391304161635e+19 0 0)
(-1.339252778201e+19 0 0)
(-1.33458874139734e+19 0 0)
(-1.32992034297815e+19 0 0)
(-1.32524697089469e+19 0 0)
(-1.32056796652933e+19 0 0)
(-1.31588264490535e+19 0 0)
(-1.31119028724411e+19 0 0)
(-1.30649013628974e+19 0 0)
(-1.30178140370808e+19 0 0)
(-1.2970632691479e+19 0 0)
(-1.29233487948214e+19 0 0)
(-1.28759534309156e+19 0 0)
(-1.28284374825666e+19 0 0)
(-1.27807913910429e+19 0 0)
(-1.27330053813368e+19 0 0)
(-1.26850693689683e+19 0 0)
(-1.26369729749241e+19 0 0)
(-1.25887055015004e+19 0 0)
(-1.25402560940398e+19 0 0)
(-1.24916135289204e+19 0 0)
(-1.24427663799663e+19 0 0)
(-1.23937030542176e+19 0 0)
(-1.23444116580802e+19 0 0)
(-1.2294880130826e+19 0 0)
(-1.22450962625481e+19 0 0)
(-1.21950476243042e+19 0 0)
(-1.21447216960732e+19 0 0)
(-1.20941057618065e+19 0 0)
(-1.20431870645743e+19 0 0)
(-1.19919527060958e+19 0 0)
(-1.19403897621654e+19 0 0)
(-1.18884852096647e+19 0 0)
(-1.18362260916656e+19 0 0)
(-1.17835993496693e+19 0 0)
(-1.173059200753e+19 0 0)
(-1.16771911452045e+19 0 0)
(-1.16233839084348e+19 0 0)
(-1.15691575058592e+19 0 0)
(-1.15144993798624e+19 0 0)
(-1.14593969936733e+19 0 0)
(-1.14038381236189e+19 0 0)
(-1.13478106725737e+19 0 0)
(-1.12913028482948e+19 0 0)
(-1.12343030982469e+19 0 0)
(-1.11768001593892e+19 0 0)
(-1.11187831901963e+19 0 0)
(-1.10602416074334e+19 0 0)
(-1.10011652726346e+19 0 0)
(-1.09415445164408e+19 0 0)
(-1.0881370068034e+19 0 0)
(-1.08206331756901e+19 0 0)
(-1.07593256076921e+19 0 0)
(-1.06974396717746e+19 0 0)
(-1.06349682759154e+19 0 0)
(-1.05719049212663e+19 0 0)
(-1.05082437680617e+19 0 0)
(-1.04439796338435e+19 0 0)
(-1.03791080392648e+19 0 0)
(-1.03136252025687e+19 0 0)
(-1.02475281167795e+19 0 0)
(-1.0180814561583e+19 0 0)
(-1.01134830024592e+19 0 0)
(-1.00455328909718e+19 0 0)
(-9.97696431925966e+18 0 0)
(-9.90777836772472e+18 0 0)
(-9.83797687251632e+18 0 0)
(-9.76756261861301e+18 0 0)
(-9.69653919296677e+18 0 0)
(-9.62491106164788e+18 0 0)
(-9.55268362492864e+18 0 0)
(-9.47986307738921e+18 0 0)
(-9.40645649987823e+18 0 0)
(-9.33247181003843e+18 0 0)
(-9.25791771776936e+18 0 0)
(-9.18280374631216e+18 0 0)
(-9.10714017223646e+18 0 0)
(-9.03093790506746e+18 0 0)
(-8.9542086034897e+18 0 0)
(-8.87696444266329e+18 0 0)
(-8.79921810952264e+18 0 0)
(-8.72098274729683e+18 0 0)
(-8.64227176831255e+18 0 0)
(-8.5630988243079e+18 0 0)
(-8.48347759439826e+18 0 0)
(-8.40342169452649e+18 0 0)
(-8.32294447739988e+18 0 0)
(-8.24205881328219e+18 0 0)
(-8.16077693149826e+18 0 0)
(-8.07911006627483e+18 0 0)
(-7.99706825588526e+18 0 0)
(-7.91466000927425e+18 0 0)
(-7.83189187489012e+18 0 0)
(-7.74876816361495e+18 0 0)
(-7.66529033928547e+18 0 0)
(-7.5814566090307e+18 0 0)
(-7.49726121017213e+18 0 0)
(-7.41269357716098e+18 0 0)
(-7.32773658633857e+18 0 0)
(-7.24236310289842e+18 0 0)
(-7.1565165630503e+18 0 0)
(-7.07007066858796e+18 0 0)
(-6.98285213787305e+18 0 0)
(-6.89213624836738e+18 0 0)
(-6.79957240283084e+18 0 0)
(-6.70868957067267e+18 0 0)
(-6.61808773281192e+18 0 0)
(-6.52670660083188e+18 0 0)
(-6.43413569241245e+18 0 0)
(-6.34019720621143e+18 0 0)
(-6.24473242833676e+18 0 0)
(-6.14755312895892e+18 0 0)
(-6.04843500477455e+18 0 0)
(-5.94711622419323e+18 0 0)
(-5.84330605383228e+18 0 0)
(-5.73664551951349e+18 0 0)
(-5.626758004261e+18 0 0)
(-5.51336477534454e+18 0 0)
(-5.39511947596503e+18 0 0)
(-5.27422779180345e+18 0 0)
(-5.14344353095012e+18 0 0)
(-5.01416164208096e+18 0 0)
(-4.86942252430839e+18 0 0)
(-4.71773857228784e+18 0 0)
(-4.5787497264631e+18 0 0)
(-4.34321097376557e+18 0 0)
(-4.2289921571569e+18 0 0)
(-3.78827433742382e+18 0 0)
(-2.77403806418338e+18 0 0)
(-2.3909203120845e+18 0 0)
(-2.52826294035992e+18 0 0)
(-2.42305394672769e+18 0 0)
(-2.14787815856983e+18 0 0)
(-1.5196602129428e+18 0 0)
(-9.85527745802928e+17 0 0)
(-5.74231344115089e+17 0 0)
(-7.11084754023219e+15 0 0)
(-5.92291803836711e+17 0 0)
(-1.44909973314549e+18 0 0)
(-9.00189821677339e+17 0 0)
(-7.56406469324177e+17 0 0)
(-2.4472751632422e+18 0 0)
(-2.88125990072641e+18 0 0)
(-2.4519178214074e+18 0 0)
(-4.17928460620005e+18 0 0)
(-4.67086958944846e+18 0 0)
(-3.83018324345435e+18 0 0)
(-4.34035420395838e+18 0 0)
(-3.64724725380704e+18 0 0)
(-1.60002757363761e+18 0 0)
(-2.69939418617872e+17 0 0)
(1.68114401232709e+18 0 0)
(4.38743947943556e+18 0 0)
(6.5447346272836e+18 0 0)
(8.24266468837294e+18 0 0)
(9.58653778596227e+18 0 0)
(1.04087276911397e+19 0 0)
(1.10028345167166e+19 0 0)
(8.84309305706611e+18 0 0)
(8.16888934662196e+18 0 0)
(6.35816033027857e+18 0 0)
(5.15647429514238e+18 0 0)
(6.11186241158762e+18 0 0)
(-1.14982264097505e+17 0 0)
(-2.26985655910973e+18 0 0)
(8.15648436471218e+17 0 0)
(-1.99997879274112e+18 0 0)
(-2.49478269423038e+18 0 0)
(-2.38102420177989e+18 0 0)
(-2.34242270141701e+18 0 0)
(-2.45407967044125e+18 0 0)
(-2.6736085910157e+18 0 0)
(-2.86827323585322e+18 0 0)
(-2.9822328240697e+18 0 0)
(-3.03591340078744e+18 0 0)
(-3.04517203672422e+18 0 0)
(-3.02584880809076e+18 0 0)
(-2.99949235988111e+18 0 0)
(-2.96224693852435e+18 0 0)
(-2.9196730227892e+18 0 0)
(-2.87778725431178e+18 0 0)
(-2.83248073748125e+18 0 0)
(-2.78534136151152e+18 0 0)
(-2.73704868285192e+18 0 0)
(-2.68835667103171e+18 0 0)
(-2.63938398623256e+18 0 0)
(-2.58954199259009e+18 0 0)
(-2.54042950903035e+18 0 0)
(-2.49075921887328e+18 0 0)
(-2.44113557066326e+18 0 0)
(-2.39165768606852e+18 0 0)
(-2.34245274530971e+18 0 0)
(-2.29359826436029e+18 0 0)
(-2.24518260277326e+18 0 0)
(-2.19729079011579e+18 0 0)
(-2.14999392681168e+18 0 0)
(-2.10335573023751e+18 0 0)
(-2.05743261035938e+18 0 0)
(-2.01227351633968e+18 0 0)
(-1.96792091295428e+18 0 0)
(-1.92441029993221e+18 0 0)
(-1.88177126115841e+18 0 0)
(-1.84002716271855e+18 0 0)
(-1.79919614867158e+18 0 0)
(-1.75929093586957e+18 0 0)
(-1.72031980244887e+18 0 0)
(-1.68228672120378e+18 0 0)
(-1.64519109033101e+18 0 0)
(-1.60903493119105e+18 0 0)
(-1.57380031584882e+18 0 0)
(-1.53949133110373e+18 0 0)
(-1.50597341059694e+18 0 0)
(-1.47357736656077e+18 0 0)
(-1.44192616319408e+18 0 0)
(-1.41114973548691e+18 0 0)
(-1.38120799482715e+18 0 0)
(-1.3520901562415e+18 0 0)
(-1.32377503429699e+18 0 0)
(-1.29624251585053e+18 0 0)
(-1.26947142021195e+18 0 0)
(-1.2434438520542e+18 0 0)
(-1.21813818159022e+18 0 0)
(-1.19347974179985e+18 0 0)
(-1.16955668824921e+18 0 0)
(-1.14630051174384e+18 0 0)
(-1.12362381667789e+18 0 0)
(-1.10158333993363e+18 0 0)
(-1.08013242930321e+18 0 0)
(-1.05925572347763e+18 0 0)
(-1.03893257330224e+18 0 0)
(-1.01914458551125e+18 0 0)
(-9.99872587271673e+17 0 0)
(-9.81099169883207e+17 0 0)
(-9.62785921033827e+17 0 0)
(-9.44923978699321e+17 0 0)
(-9.27624986496845e+17 0 0)
(-9.10690017445564e+17 0 0)
(-8.94182492510713e+17 0 0)
(-8.78080093959855e+17 0 0)
(-8.62374492090873e+17 0 0)
(-8.47052635832302e+17 0 0)
(-8.32102774912833e+17 0 0)
(-8.17513131355358e+17 0 0)
(-8.03272437186596e+17 0 0)
(-7.89369752982316e+17 0 0)
(-7.75793803827101e+17 0 0)
(-7.62535871348042e+17 0 0)
(-7.49572388930441e+17 0 0)
(-7.36923465043287e+17 0 0)
(-7.24317640566673e+17 0 0)
(-7.12517409512582e+17 0 0)
(-7.00781299788465e+17 0 0)
(-6.89317322892142e+17 0 0)
(-6.78102562444176e+17 0 0)
(-6.67169613229128e+17 0 0)
(-6.56199818978113e+17 0 0)
(-6.46076938360695e+17 0 0)
(-6.36084389704927e+17 0 0)
(-6.26242733256457e+17 0 0)
(-6.16322412992178e+17 0 0)
(-6.0767372784767e+17 0 0)
(-5.98447361910091e+17 0 0)
(-5.90357776458171e+17 0 0)
(-5.82254750398211e+17 0 0)
(-5.7577875572749e+17 0 0)
(-5.69673540887691e+17 0 0)
(-5.59781768477481e+17 0 0)
)
;

boundaryField
{
    electrode
    {
        type            calculated;
        value           uniform (-1.50009819217537e+19 0 0);
    }
    ground
    {
        type            calculated;
        value           uniform (-5.57239651061577e+17 0 0);
    }
    otherfaces
    {
        type            empty;
    }
}


// ************************************************************************* //
