/*--------------------------------*- C++ -*----------------------------------*\
| =========                 |                                                 |
| \\      /  F ield         | foam-extend: Open Source CFD                    |
|  \\    /   O peration     | Version:     4.0                                |
|   \\  /    A nd           | Web:         http://www.foam-extend.org         |
|    \\/     M anipulation  |                                                 |
\*---------------------------------------------------------------------------*/
FoamFile
{
    version     2.0;
    format      ascii;
    class       volScalarField;
    location    "4.1e-06";
    object      Phi;
}
// * * * * * * * * * * * * * * * * * * * * * * * * * * * * * * * * * * * * * //

dimensions      [0 0 0 1 0 0 0];

internalField   nonuniform List<scalar> 
300
(
699.999924212911
699.999702819875
699.999180535653
699.998391141726
699.997343730034
699.996032755409
699.994459324848
699.992623253732
699.990524235929
699.988162086655
699.985536558596
699.982647386385
699.979494284777
699.976076943955
699.972395029596
699.968448181393
699.964236011579
699.959758103467
699.955014009851
699.950003251339
699.94472531459
699.939179650462
699.933365672073
699.927282752771
699.920930224008
699.914307373127
699.90741344105
699.900247619876
699.892809050379
699.885096819417
699.877109957232
699.868847434665
699.860308160265
699.851490977299
699.84239466066
699.833017913685
699.82335936485
699.813417564388
699.803190980779
699.792677997157
699.781876907597
699.770785913302
699.759403118689
699.747726527357
699.735754037955
699.723483439942
699.710912409231
699.698038503728
699.684859158764
699.671371682401
699.657573250641
699.643460902513
699.629031535042
699.61428189811
699.599208589196
699.583808047992
699.568076550907
699.552010205444
699.535604944454
699.518856520264
699.501760498672
699.484312252828
699.466506956956
699.448339579964
699.429804878895
699.410897392251
699.391611433153
699.371941082365
699.35188018115
699.331422323966
699.310560850998
699.289288840514
699.26759910103
699.245484163303
699.222936272108
699.199947377817
699.176509127763
699.152612857364
699.128249581012
699.103409982716
699.078084406457
699.052262846276
699.025934936053
698.99908993896
698.971716736589
698.943803817697
698.915339266585
698.886310751051
698.856705509905
698.826510340021
698.795711582874
698.764295110549
698.73224631116
698.699550073662
698.666190771986
698.632152248465
698.597417796488
698.561970142332
698.525791426098
698.488863181692
698.451166315775
698.412681085593
698.373387075613
698.333263172858
698.292287540837
698.250437591969
698.207689958358
698.164020460807
698.119404075897
698.073814900995
698.027226116995
697.979609948615
697.930937622021
697.881179319557
697.830304131321
697.778280003307
697.72507368179
697.670650653633
697.614975082108
697.558009737832
697.49971592434
697.440053397782
697.378980280157
697.316452965447
697.252426017942
697.186852061925
697.119681661848
697.050863191966
696.980342694306
696.908063723678
696.833967178309
696.757991114426
696.680070542972
696.600137206314
696.518119332484
696.43394136077
696.34752365285
696.258782118168
696.167627335597
696.073964394532
695.977692626631
695.878705120835
695.776888139108
695.672120463848
695.564272670623
695.453206312986
695.338773005031
695.220813385541
695.09915594562
694.973615699832
694.843992666255
694.710070154149
694.571612783259
694.428364116448
694.280044554715
694.126346808969
693.966935839755
693.801438858356
693.629447946024
693.450511319135
693.264109762378
693.069714816604
692.866604131915
692.653814309104
692.430360401449
692.195182468221
691.947088552513
691.684700640053
691.406313998482
691.109999995084
690.79343882107
690.453962140523
690.088922515514
689.695390353015
689.269568501712
688.807452715103
688.305340103833
687.758469438867
687.161654015449
686.510586084867
685.79989489409
685.024045733513
684.178627497296
683.258659078328
682.259031368378
681.176257531835
680.006823681944
678.747319573022
677.395388601072
675.94955291678
674.408579394323
672.771301726097
671.03759076081
669.207787668464
667.282387242672
665.261756535001
663.146025915128
660.935138466293
658.629692596167
656.229041717258
653.732389770784
651.139163271348
648.448453743545
645.660229643062
642.774825898745
639.793040064687
636.715851385912
633.544223110653
630.279121578565
626.921407432682
623.471911577658
619.931331388494
616.300342835939
612.579931959549
608.771022299376
604.874430077268
600.89092313796
596.821174739277
592.665824943852
588.425429546317
584.100522056835
579.691557752973
575.198977231699
570.623147685921
565.964428627498
561.223252691322
556.400195198604
551.495762624637
546.51046565232
541.444750236577
536.299072716905
531.073827886283
525.769427223601
520.386222400664
514.924586563923
509.384833478821
503.767301354194
498.072268521534
492.3000403202
486.450861177845
480.52500561145
474.522686906126
468.444150841631
462.289729518481
456.059825211456
449.75478352295
443.374981540997
436.920739774566
430.392412616907
423.790297680899
417.114729128684
410.365983330061
403.544375257638
396.650161269364
389.683638167202
382.645043083554
375.534655475466
368.352694725407
361.099424214904
353.775046743727
346.37981125556
338.913905376363
331.377564520793
323.770961662575
316.094319510696
308.347797055135
300.53160457243
292.645887295027
284.690923378369
276.666960673666
268.574305768871
260.413192474982
252.183915545987
243.886695399876
235.521815416191
227.089482801315
218.589969959886
210.023471551007
201.390249965882
192.690488102872
183.924439213454
175.092275292118
166.194241601034
157.230500218757
148.201289302224
139.106761541775
129.947148280858
120.722593087904
111.433320652004
102.079465563017
92.6612455680529
83.178786481988
73.6322994687985
64.0219018012305
54.3477983882526
44.6100987172977
34.8090022644975
24.9446112742502
15.0171209233127
5.02662767123649
)
;

boundaryField
{
    electrode
    {
        type            fixedValue;
        value           uniform 700;
    }
    ground
    {
        type            fixedValue;
        value           uniform 0;
    }
    otherfaces
    {
        type            empty;
    }
}


// ************************************************************************* //
