/*--------------------------------*- C++ -*----------------------------------*\
| =========                 |                                                 |
| \\      /  F ield         | foam-extend: Open Source CFD                    |
|  \\    /   O peration     | Version:     4.0                                |
|   \\  /    A nd           | Web:         http://www.foam-extend.org         |
|    \\/     M anipulation  |                                                 |
\*---------------------------------------------------------------------------*/
FoamFile
{
    version     2.0;
    format      ascii;
    class       volScalarField;
    location    "4.1e-06";
    object      PhiMean;
}
// * * * * * * * * * * * * * * * * * * * * * * * * * * * * * * * * * * * * * //

dimensions      [0 0 0 1 0 0 0];

internalField   nonuniform List<scalar> 
300
(
699.982069610122
699.980360105867
699.978392659251
699.976185259423
699.973747563648
699.971072186043
699.968157845994
699.965003061632
699.961606419074
699.957966869026
699.954083550118
699.949955811655
699.945583169507
699.940965293509
699.936101992747
699.930993201029
699.925638965118
699.920039437063
699.914194864348
699.908105580684
699.901771999668
699.895194608169
699.888373960221
699.88131067085
699.874005409127
699.866458906572
699.858671942376
699.850645338012
699.842379956164
699.833876689702
699.825136453725
699.816160202243
699.806948917749
699.797503590826
699.787825215986
699.777914786588
699.767773288786
699.757401699124
699.746800978405
699.735972064628
699.724915870076
699.713633278661
699.702125136901
699.690392249531
699.6784353749
699.666255220536
699.653852438558
699.641227622681
699.628381304931
699.615313957354
699.602025991857
699.588517774529
699.574789612986
699.560841758279
699.546674382193
699.53228756828
699.517681295953
699.502855433875
699.487809734153
699.472543825232
699.457057206621
699.441349242937
699.425419156674
699.409266020862
699.392888780984
699.376286246896
699.359457057987
699.34239967744
699.325112386083
699.307593275015
699.289840238075
699.27185096254
699.253622938035
699.235153454068
699.216439571853
699.197478128268
699.178265746385
699.158798817499
699.139073489415
699.119085629931
699.098830859249
699.078304498665
699.057501555912
699.036416718091
699.015044334009
698.993378424645
698.971412662769
698.949140341745
698.926554359944
698.903647218416
698.880410998626
698.856837343617
698.832917492494
698.808642208574
698.784001755872
698.758985882709
698.733583798678
698.707784155814
698.681575020728
698.654943857035
698.627877503357
698.600362139994
698.572383254613
698.543925651873
698.514973388924
698.485509746445
698.455517206888
698.424977399063
698.393871083789
698.362178097576
698.329877300365
698.296946533467
698.26336256691
698.229101060057
698.194136509063
698.158442174054
698.12199004802
698.084750801311
698.046693681413
698.007786428243
697.967995191571
697.927284474803
697.88561702097
697.842953752265
697.79925363833
697.754473548831
697.708568122882
697.661489656291
697.613187921915
697.563610010164
697.512700151665
697.460399528886
697.406646058988
697.351374151933
697.294514464543
697.235993680567
697.175734161541
697.113653577856
697.049664544358
696.983674227308
696.915583846982
696.845288151657
696.772674843857
696.697623935243
696.620007046346
696.539686627685
696.456514988725
696.370333249585
696.2809701194
696.188240527057
696.091944156767
695.991863626549
695.887762419657
695.779382608129
695.6664420275
695.548631082716
695.425609178981
695.296999985191
695.162387181375
695.021306245373
694.87324063008
694.717603498504
694.553703488977
694.380741793796
694.197811875943
694.003871367824
693.797708581962
693.577891760055
693.342727219882
693.090203526543
692.817938506975
692.523170579622
692.202744006804
691.85292724148
691.469420397675
691.04753689254
690.581966856754
690.066789799943
689.495909382944
688.862796841472
688.160658852712
687.382942990094
686.523286640122
685.575544358792
684.534582887609
683.395973631286
682.156031949409
680.81226424145
679.363235239389
677.808192516221
676.147044047842
674.38037150283
672.509385166487
670.535589585155
668.46024490329
666.284382334373
664.008766341028
661.633940406713
659.160342804563
656.588299954965
653.918213609744
651.150540590513
648.285877150167
645.325127916657
642.269413217243
639.119832741201
635.877436576677
632.543187218315
629.117985987192
625.602642868384
621.997912992307
618.30446633899
614.52305707779
610.654564273558
606.69981607999
602.659565967895
598.534528392101
594.325352186635
590.032657419466
585.657005889459
581.198939411625
576.658947692341
572.03750813759
567.335051999999
562.55200647781
557.688865222047
552.746222800292
547.724627979535
542.624625752872
537.446717974456
532.191407176879
526.859154620116
521.450427539233
515.96565690778
510.405283770487
504.769711827583
499.059357458174
493.2746000069
487.415834343397
481.483418695162
475.477729808653
469.399108844737
463.247922006391
457.024575297411
450.729556076075
444.363303645374
437.926283710494
431.418913260518
424.841638113421
418.194854454095
411.478989793615
404.694420758129
397.841557964606
390.920759511521
383.932420361059
376.876881014256
369.754521819425
362.565666551893
355.310681810971
347.989875505926
340.60360120104
333.152151718126
325.635868314821
318.055029207107
310.409964039794
302.700942037576
294.928295411365
287.092295061806
279.193309413311
271.231670795751
263.20778601811
255.121974142666
246.974631382929
238.76606240671
230.496653503909
222.166695390817
213.776565062635
205.326539761372
196.816987761632
188.248173305327
179.620456484388
170.934088914612
162.189423055822
153.386698260873
144.526260028716
135.608335862398
126.633264840812
117.601262902212
108.512663194963
99.3676703596014
90.1666120318667
80.9096820716084
71.5972033058081
62.2293590972617
52.8064678297818
43.3287030144384
33.7963794577182
24.2096612822611
14.5688608518054
4.87413378580108
)
;

boundaryField
{
    electrode
    {
        type            calculated;
        value           uniform 700.000000000537;
    }
    ground
    {
        type            calculated;
        value           uniform 0;
    }
    otherfaces
    {
        type            empty;
    }
}


// ************************************************************************* //
