/*--------------------------------*- C++ -*----------------------------------*\
| =========                 |                                                 |
| \\      /  F ield         | foam-extend: Open Source CFD                    |
|  \\    /   O peration     | Version:     4.0                                |
|   \\  /    A nd           | Web:         http://www.foam-extend.org         |
|    \\/     M anipulation  |                                                 |
\*---------------------------------------------------------------------------*/
FoamFile
{
    version     2.0;
    format      ascii;
    class       volScalarField;
    location    "4.1e-06";
    object      Sy_electron;
}
// * * * * * * * * * * * * * * * * * * * * * * * * * * * * * * * * * * * * * //

dimensions      [1 -3 -1 0 0 0 0];

internalField   nonuniform List<scalar> 
300
(
3.4712718152952e-09
3.47224630694597e-09
3.47267024011845e-09
3.47268078779455e-09
3.47275752141861e-09
3.47280786695391e-09
3.47284297944234e-09
3.47286978282985e-09
3.47288540797361e-09
3.47289025796008e-09
3.47288424858592e-09
3.47286717996145e-09
3.47283893856635e-09
3.47279939878233e-09
3.47274844093359e-09
3.47268595246393e-09
3.47261182499573e-09
3.4725259541573e-09
3.47242823871491e-09
3.47231857965948e-09
3.47219687931392e-09
3.47206304037711e-09
3.47191696492416e-09
3.47175855337281e-09
3.47158770337825e-09
3.47140430879159e-09
3.47120825843089e-09
3.47099943489356e-09
3.47077771333328e-09
3.47054296015005e-09
3.47029503163988e-09
3.47003377270873e-09
3.46975901542985e-09
3.46947057756114e-09
3.46916826108026e-09
3.46885185065847e-09
3.46852111208293e-09
3.46817579066827e-09
3.46781560961264e-09
3.46744026830009e-09
3.46704944058243e-09
3.46664277304415e-09
3.46621988319711e-09
3.46578035764452e-09
3.46532375025171e-09
3.46484958023861e-09
3.46435733024604e-09
3.46384644439898e-09
3.46331632630756e-09
3.46276633707656e-09
3.46219579324581e-09
3.46160396478432e-09
3.4609900729327e-09
3.46035328816039e-09
3.45969272799039e-09
3.45900745487081e-09
3.4582964739807e-09
3.45755873107835e-09
3.45679311029491e-09
3.45599843193184e-09
3.45517345025654e-09
3.45431685127196e-09
3.45342725049125e-09
3.45250319068753e-09
3.45154313972615e-09
3.45054548834024e-09
3.44950854782857e-09
3.4484305478915e-09
3.44730963441728e-09
3.44614386729157e-09
3.44493121821598e-09
3.44366956854422e-09
3.44235670715551e-09
3.44099032834636e-09
3.43956802969627e-09
3.43808731004905e-09
3.43654556747823e-09
3.43494009725794e-09
3.4332680899548e-09
3.43152662939236e-09
3.42971269094599e-09
3.42782313955992e-09
3.42585472799567e-09
3.42380409511004e-09
3.42166776412861e-09
3.41944214106943e-09
3.4171235131361e-09
3.41470804717018e-09
3.41219178818597e-09
3.40957065800994e-09
3.40684045389529e-09
3.40399684719709e-09
3.4010353823558e-09
3.39795147553006e-09
3.39474041356857e-09
3.39139735298826e-09
3.38791731900436e-09
3.38429520462569e-09
3.38052576979197e-09
3.376603640611e-09
3.37252330861143e-09
3.36827913003073e-09
3.36386532514054e-09
3.35927597775863e-09
3.35450503454051e-09
3.34954630447946e-09
3.34439345839727e-09
3.33904002835504e-09
3.33347940719414e-09
3.32770484793905e-09
3.32170946322806e-09
3.31548622468822e-09
3.30902796223926e-09
3.30232736334409e-09
3.29537697212131e-09
3.28816918830771e-09
3.28069626612917e-09
3.272950313011e-09
3.26492328789773e-09
3.25660699946304e-09
3.24799310396247e-09
3.23907310283925e-09
3.22983833974593e-09
3.22027999732785e-09
3.21038909333851e-09
3.20015647618159e-09
3.18957281982302e-09
3.17862861803298e-09
3.16731417760948e-09
3.15561961082091e-09
3.14353482679625e-09
3.13104952217357e-09
3.11815317158723e-09
3.10483502377567e-09
3.09108411582898e-09
3.07688929040535e-09
3.06248148041947e-09
3.04915812203175e-09
3.03537982725464e-09
3.02113252773081e-09
3.00640252317711e-09
2.991176120902e-09
2.97543925750641e-09
2.95917733969958e-09
2.94237517806151e-09
2.92501693569188e-09
2.90708607226585e-09
2.88856527615345e-09
2.86943639951431e-09
2.84968037766229e-09
2.82927706095753e-09
2.80820550957247e-09
2.7864426922986e-09
2.76396604764957e-09
2.74074899858908e-09
2.71676524711049e-09
2.69199033843973e-09
2.66638258223456e-09
2.63994340971969e-09
2.61261492902087e-09
2.58445699869122e-09
2.55592088991744e-09
2.52691622503717e-09
2.49665593007507e-09
2.46136875128325e-09
2.42411002721837e-09
2.38549155831442e-09
2.34554275772986e-09
2.30397317597808e-09
2.26062517791064e-09
2.2146274211887e-09
2.16471517897684e-09
2.11148641524152e-09
2.05565495353173e-09
1.99543281096931e-09
1.92829725863736e-09
1.85055747542133e-09
1.76919057123388e-09
1.68384175868299e-09
1.59771447944886e-09
1.51220630764941e-09
1.42873394276323e-09
1.33566121947029e-09
1.25212456530985e-09
1.18252474324935e-09
1.12044722531656e-09
1.07326533336645e-09
1.04649425935661e-09
1.04665370552771e-09
1.06805927971966e-09
1.13140931971042e-09
1.24530863935541e-09
1.4264354570488e-09
1.72809712750182e-09
2.22498073246056e-09
3.08036898743533e-09
4.28864425100666e-09
5.44116813277866e-09
6.61425195566317e-09
7.47720851118907e-09
7.31592351487788e-09
6.38771652810693e-09
5.15328377887482e-09
3.96397305458119e-09
3.05821368233102e-09
2.41741731550492e-09
2.00399906533805e-09
1.74405888742672e-09
1.57540176452633e-09
1.47895460594934e-09
1.41550475647344e-09
1.38177213954619e-09
1.36659510174075e-09
1.35807999844596e-09
1.35571913939968e-09
1.35734535182344e-09
1.36074106270517e-09
1.36447447340557e-09
1.36757410687664e-09
1.36937205748423e-09
1.3693720809648e-09
1.36698776740591e-09
1.36118302489075e-09
1.35318904368433e-09
1.34303018366097e-09
1.33078373073975e-09
1.31656526189533e-09
1.30051578981833e-09
1.28279251462141e-09
1.26356222366827e-09
1.24299613314809e-09
1.22126587166118e-09
1.19854033275909e-09
1.17498323558801e-09
1.15075126398384e-09
1.12599268417556e-09
1.10084636262758e-09
1.07544112112284e-09
1.04989537087192e-09
1.02431697945093e-09
9.9880335910163e-10
9.73441659887897e-10
9.48309647753117e-10
9.23476019659263e-10
8.99001237436519e-10
8.74926260958787e-10
8.51286285679928e-10
8.28121170950608e-10
8.05463218246055e-10
7.83338687220482e-10
7.61767686491852e-10
7.40764840733367e-10
7.20339864416942e-10
7.00498162473195e-10
6.81241762975645e-10
6.62570461964952e-10
6.44477539638811e-10
6.26952703405202e-10
6.09987491051759e-10
5.93573211550671e-10
5.77697652864999e-10
5.62347590988296e-10
5.47508853505556e-10
5.3316667338866e-10
5.19305871555188e-10
5.05910915873458e-10
4.92965874267701e-10
4.80452074728812e-10
4.68344174199641e-10
4.56620810987622e-10
4.45268576228956e-10
4.34274725631361e-10
4.23627372030467e-10
4.1331510695587e-10
4.03327064259524e-10
3.93652952007892e-10
3.8428311004923e-10
3.75208564417291e-10
3.66421093698389e-10
3.5791322908663e-10
3.49678398147382e-10
3.41673227830489e-10
3.33388152024176e-10
3.25320646443942e-10
3.17438176424764e-10
3.09745407887501e-10
3.02253224834682e-10
2.94974035936187e-10
2.87920252944645e-10
2.80063709533043e-10
2.72217251770803e-10
2.64557823364705e-10
2.57128161792581e-10
2.48188556655427e-10
2.39239823439187e-10
2.29564194746235e-10
2.18258096570022e-10
2.04800868586323e-10
1.87973196520556e-10
1.6440622174985e-10
)
;

boundaryField
{
    electrode
    {
        type            zeroGradient;
    }
    ground
    {
        type            zeroGradient;
    }
    otherfaces
    {
        type            empty;
    }
}


// ************************************************************************* //
