/*--------------------------------*- C++ -*----------------------------------*\
| =========                 |                                                 |
| \\      /  F ield         | foam-extend: Open Source CFD                    |
|  \\    /   O peration     | Version:     4.0                                |
|   \\  /    A nd           | Web:         http://www.foam-extend.org         |
|    \\/     M anipulation  |                                                 |
\*---------------------------------------------------------------------------*/
FoamFile
{
    version     2.0;
    format      ascii;
    class       volScalarField;
    location    "3.4e-06";
    object      Ar;
}
// * * * * * * * * * * * * * * * * * * * * * * * * * * * * * * * * * * * * * //

dimensions      [0 0 0 1 0 0 0];

internalField   nonuniform List<scalar> 
300
(
3.21880359671335e+22
3.21880359294313e+22
3.21880359545317e+22
3.21880359667836e+22
3.21880359856154e+22
3.21880360118604e+22
3.21880360439204e+22
3.21880360822263e+22
3.21880361267304e+22
3.21880361773741e+22
3.21880362341451e+22
3.21880362970201e+22
3.21880363659772e+22
3.21880364409958e+22
3.21880365220558e+22
3.21880366091369e+22
3.21880367022218e+22
3.2188036801289e+22
3.21880369063164e+22
3.21880370172832e+22
3.21880371341681e+22
3.21880372569497e+22
3.21880373856063e+22
3.21880375201159e+22
3.21880376604723e+22
3.21880378066405e+22
3.21880379585991e+22
3.21880381163282e+22
3.21880382797961e+22
3.21880384489797e+22
3.21880386238744e+22
3.21880388044503e+22
3.2188038990671e+22
3.21880391825128e+22
3.21880393799525e+22
3.21880395829672e+22
3.21880397915392e+22
3.21880400056446e+22
3.21880402252594e+22
3.21880404503639e+22
3.21880406809386e+22
3.2188040916963e+22
3.2188041158419e+22
3.2188041405289e+22
3.21880416575569e+22
3.21880419152075e+22
3.21880421782293e+22
3.21880424466109e+22
3.21880427203519e+22
3.21880429994463e+22
3.2188043283901e+22
3.21880435736992e+22
3.21880438688434e+22
3.21880441693146e+22
3.21880444751053e+22
3.21880447862012e+22
3.21880451026033e+22
3.21880454243146e+22
3.21880457513407e+22
3.21880460836913e+22
3.21880464213744e+22
3.21880467644027e+22
3.21880471127964e+22
3.21880474665927e+22
3.21880478258096e+22
3.21880481904458e+22
3.21880485605263e+22
3.21880489360788e+22
3.21880493171341e+22
3.2188049703726e+22
3.21880500958933e+22
3.2188050493684e+22
3.21880508971431e+22
3.21880513063098e+22
3.21880517212491e+22
3.21880521420145e+22
3.21880525686558e+22
3.21880530012364e+22
3.21880534397989e+22
3.21880538844397e+22
3.21880543351933e+22
3.218805479213e+22
3.21880552553286e+22
3.21880557248659e+22
3.21880562008389e+22
3.21880566833255e+22
3.21880571724026e+22
3.21880576681618e+22
3.21880581707102e+22
3.21880586801382e+22
3.2188059196553e+22
3.21880597201042e+22
3.21880602508436e+22
3.21880607888798e+22
3.21880613343256e+22
3.21880618872967e+22
3.21880624479116e+22
3.21880630162915e+22
3.21880635925706e+22
3.21880641768744e+22
3.21880647693242e+22
3.21880653700484e+22
3.21880659792103e+22
3.21880665969137e+22
3.21880672233025e+22
3.21880678585222e+22
3.21880685026948e+22
3.2188069155978e+22
3.21880698185004e+22
3.21880704903957e+22
3.21880711718055e+22
3.21880718628718e+22
3.21880725637418e+22
3.21880732745569e+22
3.21880739954573e+22
3.21880747265982e+22
3.21880754681345e+22
3.21880762201757e+22
3.21880769828534e+22
3.2188077756306e+22
3.21880785406878e+22
3.21880793361105e+22
3.21880801427248e+22
3.21880809606385e+22
3.21880817899544e+22
3.21880826307845e+22
3.21880834832622e+22
3.21880843474702e+22
3.21880852235143e+22
3.21880861114854e+22
3.21880870114819e+22
3.21880879235838e+22
3.21880888478651e+22
3.21880897844135e+22
3.2188090733319e+22
3.21880916946079e+22
3.21880926683128e+22
3.21880936544856e+22
3.21880946531625e+22
3.2188095664341e+22
3.21880966880329e+22
3.21880977242393e+22
3.21880987729643e+22
3.21880998341994e+22
3.21881009079148e+22
3.21881019940218e+22
3.21881030924507e+22
3.21881042031173e+22
3.21881053259331e+22
3.21881064608091e+22
3.21881076075735e+22
3.21881087660686e+22
3.21881099361491e+22
3.21881111175787e+22
3.21881123101008e+22
3.2188113513481e+22
3.21881147273974e+22
3.21881159513015e+22
3.21881171856028e+22
3.21881184281816e+22
3.21881196803574e+22
3.21881209327678e+22
3.21881221873545e+22
3.21881234546948e+22
3.21881247310244e+22
3.21881260120864e+22
3.21881272921845e+22
3.21881285761912e+22
3.21881298502221e+22
3.21881311267077e+22
3.21881324143423e+22
3.21881336992815e+22
3.21881349489676e+22
3.21881361922141e+22
3.21881374528208e+22
3.218813865006e+22
3.21881398103711e+22
3.21881409887488e+22
3.21881420716032e+22
3.21881431063208e+22
3.21881441234035e+22
3.21881450396996e+22
3.21881458698588e+22
3.21881466858637e+22
3.21881473820744e+22
3.21881479951585e+22
3.21881485547393e+22
3.21881490587701e+22
3.21881494602092e+22
3.21881498052846e+22
3.21881501058208e+22
3.21881503783348e+22
3.21881505824612e+22
3.21881507477349e+22
3.21881508236802e+22
3.21881508454326e+22
3.21881508331526e+22
3.21881508133566e+22
3.2188150802741e+22
3.2188150801184e+22
3.21881508154126e+22
3.21881508522986e+22
3.21881508990267e+22
3.21881509634018e+22
3.21881510253745e+22
3.21881510838707e+22
3.21881511362253e+22
3.21881511845275e+22
3.21881512262907e+22
3.21881512646418e+22
3.21881512975245e+22
3.21881513373932e+22
3.21881513832093e+22
3.2188151426298e+22
3.21881514648507e+22
3.21881515014077e+22
3.21881515340525e+22
3.21881515652992e+22
3.21881515930184e+22
3.21881516198156e+22
3.21881516433745e+22
3.21881516664313e+22
3.21881516865723e+22
3.21881517067016e+22
3.21881517311258e+22
3.21881517620435e+22
3.21881517902278e+22
3.21881518184819e+22
3.21881518440275e+22
3.21881518698722e+22
3.21881518929798e+22
3.21881519166578e+22
3.21881519376358e+22
3.21881519593573e+22
3.21881519784614e+22
3.21881519984136e+22
3.21881520158002e+22
3.21881520341398e+22
3.21881520498862e+22
3.21881520667259e+22
3.21881520808979e+22
3.21881520962919e+22
3.21881521123054e+22
3.2188152135247e+22
3.21881521553578e+22
3.21881521768855e+22
3.21881521955549e+22
3.21881522157666e+22
3.21881522330822e+22
3.21881522520515e+22
3.21881522681205e+22
3.21881522859672e+22
3.21881523008793e+22
3.21881523177054e+22
3.21881523315532e+22
3.21881523474405e+22
3.21881523602832e+22
3.21881523752925e+22
3.21881523871829e+22
3.21881524013565e+22
3.21881524123014e+22
3.21881524256793e+22
3.2188152435727e+22
3.21881524483447e+22
3.21881524575385e+22
3.21881524694419e+22
3.21881524778252e+22
3.21881524890569e+22
3.21881525020964e+22
3.21881525184596e+22
3.21881525312519e+22
3.21881525469753e+22
3.21881525590512e+22
3.21881525741792e+22
3.2188152585575e+22
3.21881526001343e+22
3.21881526108698e+22
3.21881526248583e+22
3.2188152634936e+22
3.21881526483699e+22
3.21881526578099e+22
3.21881526707386e+22
3.21881526797025e+22
3.21881526922836e+22
3.21881527007371e+22
3.2188152712901e+22
3.21881527208697e+22
3.21881527326347e+22
3.21881527401475e+22
3.21881527517315e+22
3.21881527590494e+22
3.21881527703144e+22
3.21881527771877e+22
3.21881527883503e+22
3.21881527951088e+22
3.21881528060823e+22
3.21881528127836e+22
3.21881528239738e+22
3.21881528309001e+22
3.21881528449863e+22
)
;

boundaryField
{
    electrode
    {
        type            zeroGradient;
    }
    ground
    {
        type            zeroGradient;
    }
    otherfaces
    {
        type            empty;
    }
}


// ************************************************************************* //
