/*--------------------------------*- C++ -*----------------------------------*\
| =========                 |                                                 |
| \\      /  F ield         | foam-extend: Open Source CFD                    |
|  \\    /   O peration     | Version:     4.0                                |
|   \\  /    A nd           | Web:         http://www.foam-extend.org         |
|    \\/     M anipulation  |                                                 |
\*---------------------------------------------------------------------------*/
FoamFile
{
    version     2.0;
    format      ascii;
    class       volScalarField;
    location    "3.4e-06";
    object      Arm;
}
// * * * * * * * * * * * * * * * * * * * * * * * * * * * * * * * * * * * * * //

dimensions      [0 0 0 1 0 0 0];

internalField   nonuniform List<scalar> 
300
(
3.57414700938183e+15
3.57602519305906e+15
3.57797435631064e+15
3.57928025340213e+15
3.58009644766881e+15
3.58047494671224e+15
3.58045996069884e+15
3.58008292345138e+15
3.57936949204397e+15
3.57834165242858e+15
3.57701517552515e+15
3.57540414771967e+15
3.57352062188427e+15
3.57137520045456e+15
3.56897734031453e+15
3.56633558850949e+15
3.56345476250006e+15
3.56034345214612e+15
3.55701000023774e+15
3.55346088505097e+15
3.54970230804886e+15
3.54574019093118e+15
3.54158022372481e+15
3.53722786616804e+15
3.53267240809823e+15
3.52793162023374e+15
3.5230091963057e+15
3.51790714134114e+15
3.51263906387441e+15
3.50720985287584e+15
3.50160571515597e+15
3.49583803955587e+15
3.48992494807806e+15
3.48387181412706e+15
3.47768372396321e+15
3.47136548256845e+15
3.46491725520842e+15
3.4583455626804e+15
3.4516574772421e+15
3.44485653156756e+15
3.4379462279245e+15
3.4309318450503e+15
3.42381726290773e+15
3.41660617310815e+15
3.40930207588698e+15
3.40190823660749e+15
3.39442559769524e+15
3.3868556150711e+15
3.37919051300981e+15
3.37142889531689e+15
3.36355812992371e+15
3.35559075618054e+15
3.34752134816514e+15
3.33936765101424e+15
3.33113778396106e+15
3.3228481349704e+15
3.31450199488551e+15
3.30610227985711e+15
3.29765156338617e+15
3.28915025861399e+15
3.2806026858705e+15
3.27201095888857e+15
3.2633717400263e+15
3.25466703674698e+15
3.24590082760921e+15
3.23709873505462e+15
3.22826283367704e+15
3.21939496322477e+15
3.21049670951729e+15
3.20156943371543e+15
3.19261229362276e+15
3.18361812822696e+15
3.17458539787819e+15
3.16552157318919e+15
3.15641308216052e+15
3.14726099124956e+15
3.13807165708247e+15
3.12884092076405e+15
3.11958882439212e+15
3.11028471086662e+15
3.10096324877705e+15
3.0916265415804e+15
3.08227149631837e+15
3.07290039233709e+15
3.06349837677488e+15
3.05407320713465e+15
3.04463660194529e+15
3.03518888224134e+15
3.02571811059273e+15
3.01623206947154e+15
3.00672476534521e+15
2.99715102555236e+15
2.98756625312224e+15
2.97797204250114e+15
2.96836842130218e+15
2.95875541585119e+15
2.94913280782505e+15
2.93950017331476e+15
2.9298465580502e+15
2.92017190481502e+15
2.9104824863804e+15
2.90077960639707e+15
2.89103141955783e+15
2.88126723770302e+15
2.87147780878928e+15
2.86165376678076e+15
2.85181018531949e+15
2.84192739589603e+15
2.83201585283266e+15
2.82208100983036e+15
2.81212099088477e+15
2.80213351380052e+15
2.79211082862385e+15
2.78205072783685e+15
2.77195100399255e+15
2.76179399270957e+15
2.75156076886717e+15
2.74127619030438e+15
2.73094111753072e+15
2.72054747882596e+15
2.71006883619893e+15
2.69951822166052e+15
2.68886657688557e+15
2.67812432900305e+15
2.66730292159332e+15
2.65640016440033e+15
2.64538788471475e+15
2.63428358085284e+15
2.62307639335728e+15
2.61176430032322e+15
2.60033163675027e+15
2.58877454369026e+15
2.57708804029001e+15
2.56524603033248e+15
2.55321199361198e+15
2.54100484539868e+15
2.52862852101305e+15
2.51605794722877e+15
2.50327424708681e+15
2.49028658705009e+15
2.47707895930838e+15
2.46363472134748e+15
2.44992171471418e+15
2.43590783432037e+15
2.42156843578382e+15
2.40692338670944e+15
2.39195779145545e+15
2.37665529690371e+15
2.36098536926785e+15
2.3448990504589e+15
2.32840885407433e+15
2.31149003214947e+15
2.29408023275744e+15
2.27617833471348e+15
2.25776609381669e+15
2.2387937483932e+15
2.21921801697881e+15
2.19903840018042e+15
2.17823575854249e+15
2.15676510182943e+15
2.13459081415376e+15
2.11169784148346e+15
2.08804786815756e+15
2.06365350268752e+15
2.03850176402871e+15
2.01253798312508e+15
1.98578302518123e+15
1.95828149264697e+15
1.93006232893164e+15
1.90116749161151e+15
1.8716656353925e+15
1.84159000669542e+15
1.81103297126089e+15
1.78016608862348e+15
1.74918334605093e+15
1.71825456281334e+15
1.68755891659181e+15
1.65729538874952e+15
1.62770288493509e+15
1.59893690140709e+15
1.57115171264947e+15
1.54449439829112e+15
1.51904622254792e+15
1.49492206225698e+15
1.47212166654249e+15
1.4505544508561e+15
1.43025997949384e+15
1.41118658383414e+15
1.39324525912045e+15
1.37634685813958e+15
1.360371885645e+15
1.34529634683928e+15
1.3313882815259e+15
1.32306712512521e+15
1.3448754849033e+15
1.40068889128174e+15
1.46042581268656e+15
1.48971914552561e+15
1.4901284234132e+15
1.4729733937656e+15
1.44701683437339e+15
1.42036596800973e+15
1.39760990403454e+15
1.37979740295823e+15
1.36643254920534e+15
1.35651138060503e+15
1.34856232732992e+15
1.34236519817673e+15
1.33734928919638e+15
1.33316974776146e+15
1.32910047255689e+15
1.32494462205499e+15
1.32073234295761e+15
1.31651585618433e+15
1.31225225376779e+15
1.30786627065132e+15
1.30330063642189e+15
1.29856670013534e+15
1.2936389501685e+15
1.28851472701392e+15
1.28321147507803e+15
1.27772436581793e+15
1.2720594740793e+15
1.2660909734444e+15
1.25988512409862e+15
1.25359765849717e+15
1.24726206953789e+15
1.24088894903058e+15
1.23450289460485e+15
1.2281331166507e+15
1.221785054976e+15
1.2154790250507e+15
1.20923926340475e+15
1.20307230528346e+15
1.19698729622669e+15
1.19100922497562e+15
1.1851291830289e+15
1.17937205630764e+15
1.17373121843382e+15
1.16822079415542e+15
1.16284383082642e+15
1.15759428718414e+15
1.15248799110508e+15
1.14751113604296e+15
1.14266958558925e+15
1.13797790950281e+15
1.133420784509e+15
1.12900402280936e+15
1.12472792028016e+15
1.12058201994991e+15
1.11657093323732e+15
1.1126882747733e+15
1.10892903509201e+15
1.10529637675164e+15
1.10178178288025e+15
1.09838280817195e+15
1.09509812008168e+15
1.09191229342298e+15
1.08883436515533e+15
1.08585670873164e+15
1.08298545930714e+15
1.08020838952618e+15
1.07752882848778e+15
1.07493904589263e+15
1.07243737655008e+15
1.07002069677961e+15
1.06768211653894e+15
1.06541940187866e+15
1.06322285944509e+15
1.06109941142878e+15
1.05904232189955e+15
1.05705788407524e+15
1.05513380003601e+15
1.05327658170593e+15
1.05147479252928e+15
1.04972760408179e+15
1.04803383844402e+15
1.04639398857207e+15
1.04481046407647e+15
1.04327724068276e+15
1.04179348703972e+15
1.04033073850088e+15
1.03881722816408e+15
1.03732051456251e+15
1.03586688316568e+15
1.03444671379503e+15
1.03306721891255e+15
1.03172909627603e+15
1.030422482752e+15
1.02896189784173e+15
1.02749085153165e+15
1.02605939849103e+15
1.02466819204216e+15
1.0230425121426e+15
1.02141777939674e+15
1.01971397870872e+15
1.01778974185807e+15
1.0156482095374e+15
1.01319585327369e+15
1.01022737632921e+15
)
;

boundaryField
{
    electrode
    {
        type            zeroGradient;
    }
    ground
    {
        type            zeroGradient;
    }
    otherfaces
    {
        type            empty;
    }
}


// ************************************************************************* //
