/*--------------------------------*- C++ -*----------------------------------*\
| =========                 |                                                 |
| \\      /  F ield         | foam-extend: Open Source CFD                    |
|  \\    /   O peration     | Version:     4.0                                |
|   \\  /    A nd           | Web:         http://www.foam-extend.org         |
|    \\/     M anipulation  |                                                 |
\*---------------------------------------------------------------------------*/
FoamFile
{
    version     2.0;
    format      ascii;
    class       volScalarField;
    location    "3.4e-06";
    object      Arp1;
}
// * * * * * * * * * * * * * * * * * * * * * * * * * * * * * * * * * * * * * //

dimensions      [0 0 0 1 0 0 0];

internalField   nonuniform List<scalar> 
300
(
5.87143498626832e+16
5.87518876377069e+16
5.87291593919101e+16
5.87228864702106e+16
5.87134342641014e+16
5.86999311192689e+16
5.86839335506693e+16
5.86649754495656e+16
5.86430764055486e+16
5.86182695616948e+16
5.85905478223262e+16
5.85599162389886e+16
5.85263800629e+16
5.84899441076868e+16
5.84506138549179e+16
5.84083951631906e+16
5.83632942425221e+16
5.83153176629556e+16
5.82644723319874e+16
5.82107654761142e+16
5.81542046218823e+16
5.80947975761347e+16
5.80325524046401e+16
5.79674774097888e+16
5.78995811075744e+16
5.78288722035461e+16
5.77553595671802e+16
5.76790522061012e+16
5.75999592390151e+16
5.75180898673661e+16
5.74334533463993e+16
5.73460589556768e+16
5.72559159678214e+16
5.71630336169775e+16
5.7067421066702e+16
5.69690873761177e+16
5.68680414661406e+16
5.6764292084801e+16
5.66578477711762e+16
5.65487168194853e+16
5.64369072422246e+16
5.6322426732265e+16
5.62052826249081e+16
5.60854818594285e+16
5.59630309393405e+16
5.58379358932158e+16
5.57102022346413e+16
5.55798349214067e+16
5.54468383151455e+16
5.53112161405394e+16
5.51729714435888e+16
5.50321065508785e+16
5.48886230281758e+16
5.47425216388068e+16
5.45938023025679e+16
5.44424640548105e+16
5.42885050051165e+16
5.41319222969272e+16
5.3972712067376e+16
5.38108694071917e+16
5.36463883215701e+16
5.34792616918257e+16
5.3309481236961e+16
5.31370374769219e+16
5.29619196966147e+16
5.27841159103287e+16
5.26036128282804e+16
5.2420395824159e+16
5.22344489036929e+16
5.20457546756615e+16
5.18542943240849e+16
5.16600475945983e+16
5.1462992765604e+16
5.12631065753068e+16
5.10603642578457e+16
5.08547395072539e+16
5.06462044196444e+16
5.04347294666494e+16
5.02202835314931e+16
5.00028339081165e+16
4.97823462802879e+16
4.95587847157546e+16
4.9332111665473e+16
4.91022879623478e+16
4.88692728226033e+16
4.8633023857252e+16
4.83934970774366e+16
4.81506469087936e+16
4.7904426211446e+16
4.76547862984796e+16
4.74016769602032e+16
4.71450464943323e+16
4.68848417398174e+16
4.66210081108982e+16
4.63534896392595e+16
4.60822290214523e+16
4.5807167666844e+16
4.55282457520293e+16
4.52454022807369e+16
4.49585751477582e+16
4.46677012073725e+16
4.43727163465606e+16
4.40735555632689e+16
4.37701530512871e+16
4.34624422877144e+16
4.31503561275088e+16
4.28338269017665e+16
4.25127865224843e+16
4.21871665928884e+16
4.18568985216855e+16
4.15219136428584e+16
4.11821433445555e+16
4.08375191971017e+16
4.04879730912755e+16
4.01334373823091e+16
3.97738450360117e+16
3.9409129783546e+16
3.90392262817315e+16
3.86640702758016e+16
3.82835987736018e+16
3.78977502212467e+16
3.7506464685399e+16
3.7109684043072e+16
3.67073521775682e+16
3.62994151802109e+16
3.58858215584949e+16
3.54665224523902e+16
3.50414718582648e+16
3.46106268591698e+16
3.41739478669536e+16
3.37313988700933e+16
3.32829476945949e+16
3.28285662771746e+16
3.23682309487057e+16
3.19019227359749e+16
3.14296276795001e+16
3.09513371710298e+16
3.04670483162942e+16
2.99767643239582e+16
2.9480494929148e+16
2.89782568573986e+16
2.84700743318126e+16
2.79559796423789e+16
2.74360137832211e+16
2.69102271706902e+16
2.63786804671654e+16
2.58414455267117e+16
2.52986064943502e+16
2.47502610967896e+16
2.41965221366955e+16
2.3637519305338e+16
2.30734015139332e+16
2.25043384739635e+16
2.19305254176431e+16
2.13521911588196e+16
2.0769569184439e+16
2.01829697613107e+16
1.959288368077e+16
1.89988573256677e+16
1.84029966503902e+16
1.78039885588657e+16
1.72112856066388e+16
1.66232470533195e+16
1.60296385700567e+16
1.54345008508102e+16
1.48422903982043e+16
1.4258801464388e+16
1.36792342178927e+16
1.31175308269187e+16
1.25611816735107e+16
1.2000984857637e+16
1.14497037068017e+16
1.09382899344995e+16
1.04358194663297e+16
9.91550047216645e+15
9.45414392015767e+15
9.02077892064055e+15
8.55504815602414e+15
8.1643174871767e+15
7.79478617704241e+15
7.40940728901822e+15
7.08493390713512e+15
6.80118090044511e+15
6.48167002619655e+15
6.22898488210648e+15
6.00523000395396e+15
5.78117578143899e+15
5.56116901216208e+15
5.39594676869253e+15
5.243868053605e+15
5.0983192278104e+15
4.94853081555797e+15
4.84012859939365e+15
4.74432976157158e+15
4.69187218039908e+15
4.64900304437038e+15
4.62743862099427e+15
4.6364629631228e+15
4.66018386168985e+15
4.68847030493926e+15
4.706524061957e+15
4.70016882366467e+15
4.67844770871336e+15
4.6331618403735e+15
4.58528242851198e+15
4.53713140040559e+15
4.49297837134583e+15
4.45102644331711e+15
4.4143726784873e+15
4.38025804958766e+15
4.35147880444453e+15
4.31578582467039e+15
4.27419307155888e+15
4.23532679755342e+15
4.20104088434711e+15
4.16887196062088e+15
4.14079491607785e+15
4.11428494010325e+15
4.09149756431053e+15
4.06983011418208e+15
4.05158178107478e+15
4.03402125233434e+15
4.01955627205012e+15
4.0054083894381e+15
3.98720468554911e+15
3.96259083202482e+15
3.94075986251445e+15
3.91889800672307e+15
3.89975870586523e+15
3.88030507155503e+15
3.86356772314677e+15
3.84621859592476e+15
3.83150364891222e+15
3.81597297037396e+15
3.8029779365501e+15
3.78902798684004e+15
3.7775457203125e+15
3.76498749107951e+15
3.75490606716699e+15
3.74360069826779e+15
3.73482932338064e+15
3.72470813654604e+15
3.7138238616004e+15
3.69588156523447e+15
3.68063422780502e+15
3.6638196875579e+15
3.64972842575001e+15
3.63395381757999e+15
3.62093422070456e+15
3.60613004332851e+15
3.59409094483049e+15
3.58014504115781e+15
3.56900971854304e+15
3.55583329907083e+15
3.54551662977745e+15
3.53304423089726e+15
3.52350159609915e+15
3.51169298211694e+15
3.50289484978104e+15
3.49171274772801e+15
3.48365241051193e+15
3.47306451606817e+15
3.4657087618736e+15
3.45569283141772e+15
3.44901225330003e+15
3.43953668270255e+15
3.433502704892e+15
3.42454409741512e+15
3.41371122280079e+15
3.39948113299586e+15
3.38875528913981e+15
3.37502543230943e+15
3.36488232671158e+15
3.35161995189355e+15
3.34203410310262e+15
3.32922983821655e+15
3.32019573550845e+15
3.30785450419933e+15
3.29936735756291e+15
3.28747356869291e+15
3.27952395585433e+15
3.26806438262602e+15
3.26062014879989e+15
3.24954175212647e+15
3.24254768714834e+15
3.23180956217058e+15
3.22522576393934e+15
3.21480410740443e+15
3.20860291758864e+15
3.19848433453801e+15
3.19264217445406e+15
3.18281308702491e+15
3.17733522960522e+15
3.16780227234664e+15
3.16267230402246e+15
3.15340596776176e+15
3.14863177979215e+15
3.13958515667763e+15
3.13511204863862e+15
3.12399319217259e+15
)
;

boundaryField
{
    electrode
    {
        type            driftDiffusionPositiveIonDensity;
        seec            0;
        fieldName       Arp1;
        value           uniform 5.85572796266025e+16;
    }
    ground
    {
        type            driftDiffusionPositiveIonDensity;
        seec            0;
        fieldName       Arp1;
        value           uniform 3.12399319217259e+15;
    }
    otherfaces
    {
        type            empty;
    }
}


// ************************************************************************* //
