/*--------------------------------*- C++ -*----------------------------------*\
| =========                 |                                                 |
| \\      /  F ield         | foam-extend: Open Source CFD                    |
|  \\    /   O peration     | Version:     4.0                                |
|   \\  /    A nd           | Web:         http://www.foam-extend.org         |
|    \\/     M anipulation  |                                                 |
\*---------------------------------------------------------------------------*/
FoamFile
{
    version     2.0;
    format      ascii;
    class       volVectorField;
    location    "3.4e-06";
    object      E;
}
// * * * * * * * * * * * * * * * * * * * * * * * * * * * * * * * * * * * * * //

dimensions      [0 0 0 1 0 0 0];

internalField   nonuniform List<vector> 
300
(
(5.45449150429756 -0 -0)
(11.1002542949046 -0 -0)
(19.4333653877332 -0 -0)
(27.2388573988039 -0 -0)
(34.957894753939 -0 -0)
(42.7360310098495 -0 -0)
(50.5010375267961 -0 -0)
(58.2659943376684 -0 -0)
(66.0325890092247 -0 -0)
(73.7992443614062 -0 -0)
(81.5663437792031 -0 -0)
(89.3339497834442 -0 -0)
(97.1021001439097 -0 -0)
(104.870906879327 -0 -0)
(112.640506093332 -0 -0)
(120.411068724181 -0 -0)
(128.182805407548 -0 -0)
(135.95596808358 -0 -0)
(143.73085325259 -0 -0)
(151.507804868608 -0 -0)
(159.287217449401 -0 -0)
(167.069539198929 -0 -0)
(174.855275088256 -0 -0)
(182.644990136262 -0 -0)
(190.439312644511 -0 -0)
(198.238937557101 -0 -0)
(206.044629812165 -0 -0)
(213.857227834848 -0 -0)
(221.677647026237 -0 -0)
(229.506883356325 -0 -0)
(237.346016994402 -0 -0)
(245.196216026817 -0 -0)
(253.058740204451 -0 -0)
(260.934944809637 -0 -0)
(268.826284532898 -0 -0)
(276.734317432332 -0 -0)
(284.660709017088 -0 -0)
(292.607236278215 -0 -0)
(300.575791922806 -0 -0)
(308.568388565664 -0 -0)
(316.587163030837 -0 -0)
(324.63438071898 -0 -0)
(332.712440036275 -0 -0)
(340.823876904195 -0 -0)
(348.971369289219 -0 -0)
(357.157741877372 -0 -0)
(365.38597069639 -0 -0)
(373.659187928624 -0 -0)
(381.980686702016 -0 -0)
(390.353925983 -0 -0)
(398.782535526762 -0 -0)
(407.270320872161 -0 -0)
(415.821268438727 -0 -0)
(424.439550618426 -0 -0)
(433.129531028684 -0 -0)
(441.895769684366 -0 -0)
(450.74302835184 -0 -0)
(459.67627580611 -0 -0)
(468.700693198505 -0 -0)
(477.821679344172 -0 -0)
(487.044855995758 -0 -0)
(496.376072953064 -0 -0)
(505.821412900898 -0 -0)
(515.387195970713 -0 -0)
(525.079983551451 -0 -0)
(534.906581166391 -0 -0)
(544.874040012196 -0 -0)
(554.989656098458 -0 -0)
(565.260966534139 -0 -0)
(575.6957415865 -0 -0)
(586.30197105602 -0 -0)
(597.087878352675 -0 -0)
(608.061154049104 -0 -0)
(619.23069857571 -0 -0)
(630.606754727156 -0 -0)
(642.198216609162 -0 -0)
(654.014922023151 -0 -0)
(666.068173640961 -0 -0)
(678.369060017125 -0 -0)
(690.92891501046 -0 -0)
(703.759394922532 -0 -0)
(716.872490377846 -0 -0)
(730.280547259066 -0 -0)
(743.996288876742 -0 -0)
(758.032837829066 -0 -0)
(772.403736749701 -0 -0)
(787.122967659069 -0 -0)
(802.204970251708 -0 -0)
(817.664659896579 -0 -0)
(833.517445735036 -0 -0)
(849.779249105595 -0 -0)
(866.46652279737 -0 -0)
(883.596271704453 -0 -0)
(901.186074718595 -0 -0)
(919.254107979535 -0 -0)
(937.81917000916 -0 -0)
(956.900708949765 -0 -0)
(976.518851472451 -0 -0)
(996.694434114806 -0 -0)
(1017.4490370261 -0 -0)
(1038.80502054073 -0 -0)
(1060.78556432199 -0 -0)
(1083.41470985856 -0 -0)
(1106.71740635149 -0 -0)
(1130.71956037031 -0 -0)
(1155.4480896862 -0 -0)
(1180.93098144929 -0 -0)
(1207.19735525893 -0 -0)
(1234.27753179762 -0 -0)
(1262.20310727429 -0 -0)
(1291.00703417663 -0 -0)
(1320.72370944302 -0 -0)
(1351.38907023907 -0 -0)
(1383.04069825803 -0 -0)
(1415.71793366727 -0 -0)
(1449.46199947925 -0 -0)
(1484.31613728893 -0 -0)
(1520.3257560549 -0 -0)
(1557.5385946109 -0 -0)
(1596.00490008976 -0 -0)
(1635.77762375013 -0 -0)
(1676.91263602104 -0 -0)
(1719.4689629131 -0 -0)
(1763.50904663468 -0 -0)
(1809.09903303264 -0 -0)
(1856.30908886035 -0 -0)
(1905.21375277047 -0 -0)
(1955.89232403444 -0 -0)
(2008.4292938096 -0 -0)
(2062.91482437194 -0 -0)
(2119.44528247339 -0 -0)
(2178.12383384604 -0 -0)
(2239.06110742743 -0 -0)
(2302.37593862129 -0 -0)
(2368.19620241966 -0 -0)
(2436.6597496552 -0 -0)
(2507.91546075273 -0 -0)
(2582.12443456946 -0 -0)
(2659.46133253011 -0 -0)
(2740.11590174012 -0 -0)
(2824.29470507713 -0 -0)
(2912.2230909454 -0 -0)
(3004.14744115957 -0 -0)
(3100.33774351716 -0 -0)
(3201.09054295389 -0 -0)
(3306.73233587059 -0 -0)
(3417.62348500564 -0 -0)
(3534.16274722107 -0 -0)
(3656.79252481504 -0 -0)
(3786.00497072148 -0 -0)
(3922.34911417615 -0 -0)
(4066.43920370567 -0 -0)
(4218.96439791497 -0 -0)
(4380.70043786753 -0 -0)
(4552.5235759838 -0 -0)
(4735.42370790828 -0 -0)
(4930.53106458738 -0 -0)
(5139.14533242966 -0 -0)
(5362.69282735479 -0 -0)
(5602.98559962653 -0 -0)
(5862.41104444683 -0 -0)
(6145.20693023653 -0 -0)
(6457.0514102753 -0 -0)
(6801.78623841949 -0 -0)
(7182.19902826135 -0 -0)
(7602.94161841266 -0 -0)
(8071.15649651666 -0 -0)
(8595.05269732405 -0 -0)
(9184.90761989226 -0 -0)
(9850.9736184119 -0 -0)
(10599.1866490137 -0 -0)
(11436.3715735865 -0 -0)
(12378.0707630808 -0 -0)
(13438.694746487 -0 -0)
(14620.0218089545 -0 -0)
(15932.6962667941 -0 -0)
(17394.5465234239 -0 -0)
(19001.7211211346 -0 -0)
(20757.2414076266 -0 -0)
(22672.5754061732 -0 -0)
(24734.9841958607 -0 -0)
(26936.9698260502 -0 -0)
(29281.5482537617 -0 -0)
(31744.3421977472 -0 -0)
(34305.2206684308 -0 -0)
(36959.5711566399 -0 -0)
(39685.1994542975 -0 -0)
(42453.0411715939 -0 -0)
(45250.6765283683 -0 -0)
(48070.8377154889 -0 -0)
(50896.8093238072 -0 -0)
(53709.1489055294 -0 -0)
(56501.0498218806 -0 -0)
(59272.6598430363 -0 -0)
(62036.0376960626 -0 -0)
(64796.2831625605 -0 -0)
(67548.0443234914 -0 -0)
(70311.5293907044 -0 -0)
(73097.5847338232 -0 -0)
(75904.3367185894 -0 -0)
(78729.3600315469 -0 -0)
(81561.0245535212 -0 -0)
(84386.18455185 -0 -0)
(87192.3085167868 -0 -0)
(89970.959645793 -0 -0)
(92720.9622630369 -0 -0)
(95443.294141278 -0 -0)
(98139.7543504805 -0 -0)
(100812.565831398 -0 -0)
(103464.072825226 -0 -0)
(106096.634536925 -0 -0)
(108709.76572637 -0 -0)
(111299.59880123 -0 -0)
(113865.171223606 -0 -0)
(116408.684104072 -0 -0)
(118932.156848959 -0 -0)
(121437.461584614 -0 -0)
(123926.305192623 -0 -0)
(126400.283483059 -0 -0)
(128860.857635945 -0 -0)
(131309.397744215 -0 -0)
(133747.143549798 -0 -0)
(136175.236950368 -0 -0)
(138594.708323323 -0 -0)
(141004.431334556 -0 -0)
(143401.250599217 -0 -0)
(145784.073064864 -0 -0)
(148153.729459924 -0 -0)
(150511.032282852 -0 -0)
(152856.708455396 -0 -0)
(155191.482919833 -0 -0)
(157515.990860421 -0 -0)
(159830.842586575 -0 -0)
(162136.586829903 -0 -0)
(164433.742511979 -0 -0)
(166722.78650248 -0 -0)
(169004.175105858 -0 -0)
(171278.3280421 -0 -0)
(173545.667735175 -0 -0)
(175806.571923511 -0 -0)
(178061.435539476 -0 -0)
(180310.615508017 -0 -0)
(182553.474366333 -0 -0)
(184787.653154489 -0 -0)
(187011.835769026 -0 -0)
(189226.362022725 -0 -0)
(191431.580232131 -0 -0)
(193627.803714193 -0 -0)
(195815.355378609 -0 -0)
(197994.527516608 -0 -0)
(200165.615500063 -0 -0)
(202328.877870459 -0 -0)
(204484.586852089 -0 -0)
(206632.974195908 -0 -0)
(208774.28640324 -0 -0)
(210908.735653446 -0 -0)
(213036.554844351 -0 -0)
(215157.94381725 -0 -0)
(217273.127020426 -0 -0)
(219382.292922281 -0 -0)
(221485.663771723 -0 -0)
(223583.418484715 -0 -0)
(225675.769269923 -0 -0)
(227762.888365338 -0 -0)
(229844.979110714 -0 -0)
(231922.204230276 -0 -0)
(233994.758522905 -0 -0)
(236062.79762089 -0 -0)
(238124.874031883 -0 -0)
(240179.397777894 -0 -0)
(242226.400935532 -0 -0)
(244266.034177238 -0 -0)
(246298.473059869 -0 -0)
(248323.858389167 -0 -0)
(250342.358042491 -0 -0)
(252354.110004093 -0 -0)
(254359.280496037 -0 -0)
(256358.008998365 -0 -0)
(258350.460306552 -0 -0)
(260336.769213821 -0 -0)
(262317.09768697 -0 -0)
(264291.576500478 -0 -0)
(266260.35796737 -0 -0)
(268223.556974094 -0 -0)
(270181.3091103 -0 -0)
(272133.716916023 -0 -0)
(274080.904085726 -0 -0)
(276022.965863411 -0 -0)
(277960.01748546 -0 -0)
(279892.150332981 -0 -0)
(281819.472507731 -0 -0)
(283742.071146014 -0 -0)
(285660.056044751 -0 -0)
(287573.5163209 -0 -0)
(289482.556607574 -0 -0)
(291387.257089878 -0 -0)
(293287.724185025 -0 -0)
(295184.023654047 -0 -0)
(297076.249815693 -0 -0)
(298963.776302094 -0 -0)
)
;

boundaryField
{
    electrode
    {
        type            calculated;
        value           uniform (4.16065761555729 -0 -0);
    }
    ground
    {
        type            calculated;
        value           uniform (299905.862448178 -0 -0);
    }
    otherfaces
    {
        type            empty;
    }
}


// ************************************************************************* //
