/*--------------------------------*- C++ -*----------------------------------*\
| =========                 |                                                 |
| \\      /  F ield         | foam-extend: Open Source CFD                    |
|  \\    /   O peration     | Version:     4.0                                |
|   \\  /    A nd           | Web:         http://www.foam-extend.org         |
|    \\/     M anipulation  |                                                 |
\*---------------------------------------------------------------------------*/
FoamFile
{
    version     2.0;
    format      ascii;
    class       volScalarField;
    location    "3.4e-06";
    object      electron;
}
// * * * * * * * * * * * * * * * * * * * * * * * * * * * * * * * * * * * * * //

dimensions      [0 0 0 1 0 0 0];

internalField   nonuniform List<scalar> 
300
(
5.87237457629611e+16
5.87220320236578e+16
5.87177107410635e+16
5.87104260055145e+16
5.87002302922369e+16
5.86871100535772e+16
5.86710626686311e+16
5.86520920294743e+16
5.86302006283362e+16
5.86053917171405e+16
5.85776690841778e+16
5.85470369023656e+16
5.85134997719266e+16
5.84770627021359e+16
5.84377310956628e+16
5.83955107359203e+16
5.83504077719255e+16
5.83024287022077e+16
5.82515803577425e+16
5.8197869883809e+16
5.81413047208121e+16
5.80818925840546e+16
5.80196414424852e+16
5.79545594964283e+16
5.78866551542955e+16
5.78159370082977e+16
5.77424138091704e+16
5.7666094439922e+16
5.75869878886196e+16
5.75051032202309e+16
5.74204495475389e+16
5.73330360011459e+16
5.72428716985939e+16
5.71499657126158e+16
5.70543270385442e+16
5.69559645609102e+16
5.68548870192449e+16
5.67511029731244e+16
5.66446207664854e+16
5.65354484912418e+16
5.64235939502453e+16
5.63090646196202e+16
5.61918676105142e+16
5.60720096303027e+16
5.59494969432974e+16
5.58243353309969e+16
5.56965300519351e+16
5.55660858011765e+16
5.5433006669505e+16
5.52972961023687e+16
5.5158956858637e+16
5.50179909692319e+16
5.48743996956949e+16
5.4728183488763e+16
5.4579341947018e+16
5.44278737756885e+16
5.42737767456861e+16
5.41170476529632e+16
5.39576822782916e+16
5.37956753475664e+16
5.36310204927636e+16
5.34637102136941e+16
5.32937358407473e+16
5.31210874988373e+16
5.29457540728521e+16
5.2767723175007e+16
5.25869811146136e+16
5.2403512871e+16
5.22173020705492e+16
5.20283309690648e+16
5.18365804407579e+16
5.16420299743991e+16
5.14446576691018e+16
5.12444400548173e+16
5.10413503825935e+16
5.08353604912344e+16
5.06264423082792e+16
5.04145660606206e+16
5.01997003009927e+16
4.99818118897775e+16
4.97608659993174e+16
4.95368261229568e+16
4.93096540852891e+16
4.90793100525722e+16
4.88457525432083e+16
4.86089384387337e+16
4.83688229959926e+16
4.81253598612239e+16
4.78785010866582e+16
4.76281971500844e+16
4.73743969777598e+16
4.71170479709521e+16
4.68560960362715e+16
4.65914856199192e+16
4.63231597459962e+16
4.60510600589651e+16
4.57751268702936e+16
4.54952992093709e+16
4.5211514878778e+16
4.4923710513948e+16
4.46318216472497e+16
4.43357827765534e+16
4.40355274383256e+16
4.37309882852635e+16
4.3422097168491e+16
4.31087852243119e+16
4.27909829655269e+16
4.24686203773191e+16
4.21416270176603e+16
4.18099321221902e+16
4.14734647135382e+16
4.11321537150052e+16
4.07859280685062e+16
4.04347168567029e+16
4.00784494291936e+16
3.97170555326044e+16
3.93504654444425e+16
3.89786101105157e+16
3.86014212857243e+16
3.82188316780091e+16
3.78307750951726e+16
3.74371865942998e+16
3.70380026334948e+16
3.66331612255824e+16
3.62226020933828e+16
3.58062668261697e+16
3.53840990368735e+16
3.49560445195456e+16
3.4522051406565e+16
3.40820703250126e+16
3.36360545516065e+16
3.31839601655561e+16
3.27257461986265e+16
3.22613747816429e+16
3.17908112866493e+16
3.13140244638576e+16
3.08309865724744e+16
3.03416735044718e+16
2.98460649003059e+16
2.93441442555713e+16
2.88358990175581e+16
2.83213206706907e+16
2.78004048098992e+16
2.72731512010333e+16
2.67395638275682e+16
2.61996509231433e+16
2.56534249898333e+16
2.51009028025624e+16
2.45421054008284e+16
2.3977058070066e+16
2.34057903164108e+16
2.28283358395974e+16
2.22447325159045e+16
2.16550223993947e+16
2.10592517220709e+16
2.04574710297397e+16
1.98497352788452e+16
1.92361027302699e+16
1.86166365274383e+16
1.79913956076382e+16
1.73604088937656e+16
1.67236014082937e+16
1.60807104960542e+16
1.54313803742047e+16
1.4775347946704e+16
1.41124681414833e+16
1.34426221967869e+16
1.27656926841923e+16
1.20815930917774e+16
1.13903603843818e+16
1.06924335874739e+16
9.98886053504817e+15
9.28115471784622e+15
8.57125503402862e+15
7.86195934947902e+15
7.1570144668014e+15
6.46077239068634e+15
5.77839654830626e+15
5.11587183512746e+15
4.47945654096046e+15
3.87554133236596e+15
3.31037752498999e+15
2.78941923557266e+15
2.31704733391253e+15
1.89631834625548e+15
1.52855117970686e+15
1.21331285230277e+15
948354894695388
730071582194146
553965865685859
414946524689425
307290197497401
225468466635860
164310153044151
119010297936891
84310492790556.6
58415527995482.8
39892039637688.2
26376150561564.2
16800695785251
10474014718842.9
6593520672884.69
4342272899572.95
3065261368673.31
2336773321640.94
1912645386337.27
1660084955795.9
1506987991994.91
1413459966205.91
1356490716458.84
1322270657295.85
1302415140217.94
1291362245466.18
1285422005002.65
1282211518124.41
1280116662433.04
1278037977085.02
1275229822528.01
1271196137570.36
1265621112526.83
1258304821858.81
1249119901740.33
1238035668471.12
1225105980501.95
1210425775776.56
1194120447301.12
1176334468225.45
1157223035764.67
1136945971640.61
1115663606236.78
1093533605639.29
1070708572841.85
1047334248364.56
1023548189052.32
999478849347.163
975244987658.91
950955344135.363
926708541987.977
902593166538.153
878687994721.526
855062346724.503
831776538134.36
808882575119.307
786425143557.156
764442107135.733
742964464994.527
722016256399.899
701615684033.073
681769202470.915
662479464211.321
643752572176.871
625591489493.67
607996109843.77
590963429150.115
574487713257.675
558562991718.408
543179160913.617
528320591345.613
513974943505.108
500131003655.355
486774844895.136
473891886710.61
461467093749.774
449485261987.494
437930815504.787
426788117166.345
416034904260.794
405649615082.726
395618134367.783
385927329928.492
376565117242.257
367519912915.22
358780661076.89
350336842143.48
342178513025.748
334296344880.689
326681662806.665
319326487155.094
312223568921.311
305366413124.117
298749071801.097
292365472590.24
286203715556.632
280233575849.627
274436532670.838
268819853602.106
263394134813.067
258170913326.471
253161585942.713
248333821564.839
243666158254.789
239197522553.735
234964061391.443
230961276142.362
227236193733.163
223868764613.876
220993800557.955
218907149046.962
218048212074.876
219235978842.221
)
;

boundaryField
{
    electrode
    {
        type            driftDiffusionElectronDensity;
        seec            0.05;
        Edepend         1;
        field_emission  0;
        field_enhancement_factor 55;
        work_function   5;
        value           uniform 5.87237457629611e+16;
    }
    ground
    {
        type            driftDiffusionElectronDensity;
        seec            0.05;
        Edepend         1;
        field_emission  0;
        field_enhancement_factor 55;
        work_function   5;
        value           uniform 221432512207.78;
    }
    otherfaces
    {
        type            empty;
    }
}


// ************************************************************************* //
