/*--------------------------------*- C++ -*----------------------------------*\
| =========                 |                                                 |
| \\      /  F ield         | foam-extend: Open Source CFD                    |
|  \\    /   O peration     | Version:     4.0                                |
|   \\  /    A nd           | Web:         http://www.foam-extend.org         |
|    \\/     M anipulation  |                                                 |
\*---------------------------------------------------------------------------*/
FoamFile
{
    version     2.0;
    format      ascii;
    class       volVectorField;
    location    "3.4e-06";
    object      J_Arp1;
}
// * * * * * * * * * * * * * * * * * * * * * * * * * * * * * * * * * * * * * //

dimensions      [1 -1 -1 0 0 0 0];

internalField   nonuniform List<vector> 
300
(
(1.85536659699277e+16 -0 -0)
(6.49862378179132e+16 -0 -0)
(1.15245991625668e+17 -0 -0)
(1.60466646962143e+17 -0 -0)
(2.05979372051783e+17 -0 -0)
(2.51764344530012e+17 -0 -0)
(2.97380796188753e+17 -0 -0)
(3.42956450511695e+17 -0 -0)
(3.88475099423552e+17 -0 -0)
(4.33921970015347e+17 -0 -0)
(4.79293595508729e+17 -0 -0)
(5.24583154987274e+17 -0 -0)
(5.69784190733329e+17 -0 -0)
(6.14890673775714e+17 -0 -0)
(6.59896707175628e+17 -0 -0)
(7.04796630261712e+17 -0 -0)
(7.4958503485772e+17 -0 -0)
(7.94256774113946e+17 -0 -0)
(8.38806981405591e+17 -0 -0)
(8.83231085593498e+17 -0 -0)
(9.27524827316185e+17 -0 -0)
(9.71684274954849e+17 -0 -0)
(1.01570583988654e+18 -0 -0)
(1.05958629236346e+18 -0 -0)
(1.10332277661788e+18 -0 -0)
(1.14691282617788e+18 -0 -0)
(1.19035437852207e+18 -0 -0)
(1.23364578995764e+18 -0 -0)
(1.27678584989417e+18 -0 -0)
(1.31977379503454e+18 -0 -0)
(1.36260932308718e+18 -0 -0)
(1.40529260633413e+18 -0 -0)
(1.4478243046139e+18 -0 -0)
(1.49020557819831e+18 -0 -0)
(1.53243810000964e+18 -0 -0)
(1.57452406745144e+18 -0 -0)
(1.61646621409313e+18 -0 -0)
(1.65826782024736e+18 -0 -0)
(1.69993272373672e+18 -0 -0)
(1.74146532950357e+18 -0 -0)
(1.78287061891956e+18 -0 -0)
(1.82415415842692e+18 -0 -0)
(1.86532210749909e+18 -0 -0)
(1.90638122604664e+18 -0 -0)
(1.94733888078023e+18 -0 -0)
(1.9882030512686e+18 -0 -0)
(2.02898233458553e+18 -0 -0)
(2.06968594974527e+18 -0 -0)
(2.11032374079441e+18 -0 -0)
(2.1509061792353e+18 -0 -0)
(2.19144436536137e+18 -0 -0)
(2.23195002850853e+18 -0 -0)
(2.27243552648088e+18 -0 -0)
(2.31291384344193e+18 -0 -0)
(2.35339858718092e+18 -0 -0)
(2.39390398443361e+18 -0 -0)
(2.43444487552587e+18 -0 -0)
(2.47503670685251e+18 -0 -0)
(2.51569552227274e+18 -0 -0)
(2.55643795227804e+18 -0 -0)
(2.59728120127604e+18 -0 -0)
(2.63824303220781e+18 -0 -0)
(2.67934174777911e+18 -0 -0)
(2.72059616834293e+18 -0 -0)
(2.76202560399057e+18 -0 -0)
(2.80364981982435e+18 -0 -0)
(2.84548899252389e+18 -0 -0)
(2.88756365291758e+18 -0 -0)
(2.92989461244188e+18 -0 -0)
(2.9725028670204e+18 -0 -0)
(3.01540947109648e+18 -0 -0)
(3.05863555239612e+18 -0 -0)
(3.10219841639843e+18 -0 -0)
(3.14612025068148e+18 -0 -0)
(3.19042861427822e+18 -0 -0)
(3.23514295474672e+18 -0 -0)
(3.28028598703658e+18 -0 -0)
(3.32588608837075e+18 -0 -0)
(3.37196890496108e+18 -0 -0)
(3.41855955582181e+18 -0 -0)
(3.46568292282464e+18 -0 -0)
(3.51336361378057e+18 -0 -0)
(3.56162596493583e+18 -0 -0)
(3.610494043111e+18 -0 -0)
(3.65999163944865e+18 -0 -0)
(3.71014225212285e+18 -0 -0)
(3.76096905516597e+18 -0 -0)
(3.81249485559626e+18 -0 -0)
(3.86474204304046e+18 -0 -0)
(3.91773253248305e+18 -0 -0)
(3.97148770122776e+18 -0 -0)
(4.0260283224608e+18 -0 -0)
(4.08137449756767e+18 -0 -0)
(4.13754558527456e+18 -0 -0)
(4.19456012829543e+18 -0 -0)
(4.25243577954634e+18 -0 -0)
(4.31118922747744e+18 -0 -0)
(4.37083611829094e+18 -0 -0)
(4.43139097789573e+18 -0 -0)
(4.49286713249066e+18 -0 -0)
(4.55527662869648e+18 -0 -0)
(4.61863015121685e+18 -0 -0)
(4.68293694035707e+18 -0 -0)
(4.74820470875128e+18 -0 -0)
(4.81443955714957e+18 -0 -0)
(4.88164589007112e+18 -0 -0)
(4.94982633026961e+18 -0 -0)
(5.01898163289961e+18 -0 -0)
(5.08911060042682e+18 -0 -0)
(5.16020999703303e+18 -0 -0)
(5.23227446240365e+18 -0 -0)
(5.30529642785663e+18 -0 -0)
(5.3792660314024e+18 -0 -0)
(5.45417103366291e+18 -0 -0)
(5.5299967358403e+18 -0 -0)
(5.60672589825804e+18 -0 -0)
(5.68433866000814e+18 -0 -0)
(5.76281246162196e+18 -0 -0)
(5.84212196755993e+18 -0 -0)
(5.92223899274713e+18 -0 -0)
(6.00313243121806e+18 -0 -0)
(6.0847681869885e+18 -0 -0)
(6.16710910770087e+18 -0 -0)
(6.25011492241051e+18 -0 -0)
(6.33374218293615e+18 -0 -0)
(6.41794420842409e+18 -0 -0)
(6.50267103465633e+18 -0 -0)
(6.58786936793437e+18 -0 -0)
(6.67348254363433e+18 -0 -0)
(6.75945049087099e+18 -0 -0)
(6.84570970212199e+18 -0 -0)
(6.93219320884806e+18 -0 -0)
(7.01883056461241e+18 -0 -0)
(7.10554783445355e+18 -0 -0)
(7.19226759176409e+18 -0 -0)
(7.27890892390617e+18 -0 -0)
(7.3653874455339e+18 -0 -0)
(7.4516153216203e+18 -0 -0)
(7.53750129988061e+18 -0 -0)
(7.62295075378037e+18 -0 -0)
(7.70786573743148e+18 -0 -0)
(7.79214505112722e+18 -0 -0)
(7.87568432017183e+18 -0 -0)
(7.95837608870442e+18 -0 -0)
(8.04010992726718e+18 -0 -0)
(8.12077255722696e+18 -0 -0)
(8.20024799246e+18 -0 -0)
(8.27841770116678e+18 -0 -0)
(8.35516079262915e+18 -0 -0)
(8.43035421442391e+18 -0 -0)
(8.5038729921316e+18 -0 -0)
(8.57559062453725e+18 -0 -0)
(8.64537881816459e+18 -0 -0)
(8.71310857689477e+18 -0 -0)
(8.77865424662421e+18 -0 -0)
(8.84187308540475e+18 -0 -0)
(8.90264130511832e+18 -0 -0)
(8.96095132300408e+18 -0 -0)
(9.01616720214564e+18 -0 -0)
(9.06915019789334e+18 -0 -0)
(9.11921071098787e+18 -0 -0)
(9.1646537220479e+18 -0 -0)
(9.20680312974126e+18 -0 -0)
(9.24681303991887e+18 -0 -0)
(9.28316481754806e+18 -0 -0)
(9.3164746555873e+18 -0 -0)
(9.34740496727929e+18 -0 -0)
(9.37119308607689e+18 -0 -0)
(9.39747416676955e+18 -0 -0)
(9.41391568981107e+18 -0 -0)
(9.43116145703283e+18 -0 -0)
(9.4446460377976e+18 -0 -0)
(9.45912724344535e+18 -0 -0)
(9.46278330741178e+18 -0 -0)
(9.46861897878045e+18 -0 -0)
(9.47681491174939e+18 -0 -0)
(9.47531704838582e+18 -0 -0)
(9.47062194391307e+18 -0 -0)
(9.47846585170902e+18 -0 -0)
(9.46504109933832e+18 -0 -0)
(9.46234698964243e+18 -0 -0)
(9.45997773499344e+18 -0 -0)
(9.45476060747119e+18 -0 -0)
(9.43980554336475e+18 -0 -0)
(9.44773609721717e+18 -0 -0)
(9.43143355612315e+18 -0 -0)
(9.43870073042194e+18 -0 -0)
(9.42089826350618e+18 -0 -0)
(9.43827609711459e+18 -0 -0)
(9.42725218335755e+18 -0 -0)
(9.44938572234764e+18 -0 -0)
(9.45065086718134e+18 -0 -0)
(9.4911428466879e+18 -0 -0)
(9.52187404142017e+18 -0 -0)
(9.61033784566546e+18 -0 -0)
(9.72722575840117e+18 -0 -0)
(9.91465597256698e+18 -0 -0)
(1.01534708396779e+19 -0 -0)
(1.04132537269026e+19 -0 -0)
(1.06721883855512e+19 -0 -0)
(1.08958783484e+19 -0 -0)
(1.10484061252572e+19 -0 -0)
(1.11918005297278e+19 -0 -0)
(1.12931243950491e+19 -0 -0)
(1.13716411280065e+19 -0 -0)
(1.14336495577854e+19 -0 -0)
(1.14908099877801e+19 -0 -0)
(1.15396411802356e+19 -0 -0)
(1.15891942833307e+19 -0 -0)
(1.16332694133782e+19 -0 -0)
(1.16802407345732e+19 -0 -0)
(1.17228067233899e+19 -0 -0)
(1.17692609236517e+19 -0 -0)
(1.18133143856731e+19 -0 -0)
(1.18610585323122e+19 -0 -0)
(1.19063253703435e+19 -0 -0)
(1.19553819001948e+19 -0 -0)
(1.20015551395592e+19 -0 -0)
(1.20516144654443e+19 -0 -0)
(1.2098381730843e+19 -0 -0)
(1.21490621915689e+19 -0 -0)
(1.21958504613667e+19 -0 -0)
(1.22463024518135e+19 -0 -0)
(1.22923108895522e+19 -0 -0)
(1.23414701082486e+19 -0 -0)
(1.23861766192345e+19 -0 -0)
(1.24345217152878e+19 -0 -0)
(1.24779973742838e+19 -0 -0)
(1.25255883666948e+19 -0 -0)
(1.25678093118972e+19 -0 -0)
(1.2614652975376e+19 -0 -0)
(1.2655486108892e+19 -0 -0)
(1.2701124987918e+19 -0 -0)
(1.27403341911821e+19 -0 -0)
(1.27844086148583e+19 -0 -0)
(1.2821787193328e+19 -0 -0)
(1.28641365151855e+19 -0 -0)
(1.28995389812508e+19 -0 -0)
(1.29402375245643e+19 -0 -0)
(1.29736106542447e+19 -0 -0)
(1.30127390979354e+19 -0 -0)
(1.30442356181193e+19 -0 -0)
(1.30818389279926e+19 -0 -0)
(1.31116516458561e+19 -0 -0)
(1.31481476884567e+19 -0 -0)
(1.31762986473342e+19 -0 -0)
(1.32115838730317e+19 -0 -0)
(1.32381955234836e+19 -0 -0)
(1.32723415281233e+19 -0 -0)
(1.32975161779366e+19 -0 -0)
(1.33305267092665e+19 -0 -0)
(1.33541675171287e+19 -0 -0)
(1.33860576404445e+19 -0 -0)
(1.34081138190944e+19 -0 -0)
(1.34388310405383e+19 -0 -0)
(1.34593050434676e+19 -0 -0)
(1.3488919284249e+19 -0 -0)
(1.35078834746645e+19 -0 -0)
(1.35364996598962e+19 -0 -0)
(1.35540165464178e+19 -0 -0)
(1.35818090170069e+19 -0 -0)
(1.35979422029038e+19 -0 -0)
(1.3624965505631e+19 -0 -0)
(1.36398004207083e+19 -0 -0)
(1.36661068755059e+19 -0 -0)
(1.36796764395513e+19 -0 -0)
(1.37053054112968e+19 -0 -0)
(1.37176958313519e+19 -0 -0)
(1.37424870212985e+19 -0 -0)
(1.37540061980164e+19 -0 -0)
(1.37781087323546e+19 -0 -0)
(1.3788441671846e+19 -0 -0)
(1.3811910098518e+19 -0 -0)
(1.38210894624598e+19 -0 -0)
(1.3843979644874e+19 -0 -0)
(1.38521186211573e+19 -0 -0)
(1.38745583718251e+19 -0 -0)
(1.38818216885942e+19 -0 -0)
(1.39039342569362e+19 -0 -0)
(1.39103933736794e+19 -0 -0)
(1.3932274016964e+19 -0 -0)
(1.39380016153184e+19 -0 -0)
(1.39596400609334e+19 -0 -0)
(1.39645284559077e+19 -0 -0)
(1.39858024761121e+19 -0 -0)
(1.39897822635209e+19 -0 -0)
(1.40106225811e+19 -0 -0)
(1.40136879028609e+19 -0 -0)
(1.40340685546963e+19 -0 -0)
(1.40362513096131e+19 -0 -0)
(1.4056156395366e+19 -0 -0)
(1.40574812684984e+19 -0 -0)
(1.4077015703282e+19 -0 -0)
(1.40775925054754e+19 -0 -0)
(1.40967616550464e+19 -0 -0)
(1.40965347219398e+19 -0 -0)
(1.41154467451024e+19 -0 -0)
(1.41142762877147e+19 -0 -0)
(1.41327661390004e+19 -0 -0)
(1.41203173667527e+19 -0 -0)
)
;

boundaryField
{
    electrode
    {
        type            calculated;
        value           uniform (211198367426.148 -0 -0);
    }
    ground
    {
        type            calculated;
        value           uniform (1.41388241638548e+19 -0 -0);
    }
    otherfaces
    {
        type            empty;
    }
}


// ************************************************************************* //
