/*--------------------------------*- C++ -*----------------------------------*\
| =========                 |                                                 |
| \\      /  F ield         | foam-extend: Open Source CFD                    |
|  \\    /   O peration     | Version:     4.0                                |
|   \\  /    A nd           | Web:         http://www.foam-extend.org         |
|    \\/     M anipulation  |                                                 |
\*---------------------------------------------------------------------------*/
FoamFile
{
    version     2.0;
    format      ascii;
    class       volVectorField;
    location    "3.4e-06";
    object      J_electron;
}
// * * * * * * * * * * * * * * * * * * * * * * * * * * * * * * * * * * * * * //

dimensions      [1 -1 -1 0 0 0 0];

internalField   nonuniform List<vector> 
300
(
(-1.2411986541545e+19 0 0)
(-1.26558743977469e+19 0 0)
(-1.48843976433363e+19 0 0)
(-1.45108429857275e+19 0 0)
(-1.44771571087604e+19 0 0)
(-1.44706129747582e+19 0 0)
(-1.44159834714378e+19 0 0)
(-1.43718072096645e+19 0 0)
(-1.43275943652911e+19 0 0)
(-1.4282485976613e+19 0 0)
(-1.42376953328372e+19 0 0)
(-1.41929496560892e+19 0 0)
(-1.41482440704678e+19 0 0)
(-1.41036082798142e+19 0 0)
(-1.40590390009398e+19 0 0)
(-1.40145392427929e+19 0 0)
(-1.39701125456305e+19 0 0)
(-1.39257612824643e+19 0 0)
(-1.38814879404467e+19 0 0)
(-1.38372945084344e+19 0 0)
(-1.37931827179451e+19 0 0)
(-1.37491540670463e+19 0 0)
(-1.37052095855324e+19 0 0)
(-1.36613500474849e+19 0 0)
(-1.36175757925104e+19 0 0)
(-1.35738868595234e+19 0 0)
(-1.35302828296164e+19 0 0)
(-1.34867629183844e+19 0 0)
(-1.34433259099319e+19 0 0)
(-1.33999701831971e+19 0 0)
(-1.3356693654341e+19 0 0)
(-1.3313493825085e+19 0 0)
(-1.32703676942605e+19 0 0)
(-1.32273118436213e+19 0 0)
(-1.31843223612319e+19 0 0)
(-1.31413948006372e+19 0 0)
(-1.30985243194737e+19 0 0)
(-1.30557054637163e+19 0 0)
(-1.30129323800282e+19 0 0)
(-1.29701986524408e+19 0 0)
(-1.29274973328956e+19 0 0)
(-1.28848209684949e+19 0 0)
(-1.28421615724992e+19 0 0)
(-1.27995106595574e+19 0 0)
(-1.27568591462445e+19 0 0)
(-1.27141975187183e+19 0 0)
(-1.26715156240298e+19 0 0)
(-1.26288028463079e+19 0 0)
(-1.25860480123349e+19 0 0)
(-1.25432394260913e+19 0 0)
(-1.25003648780922e+19 0 0)
(-1.24574116163507e+19 0 0)
(-1.24143664377763e+19 0 0)
(-1.23712155479051e+19 0 0)
(-1.23279447743222e+19 0 0)
(-1.2284539376307e+19 0 0)
(-1.22409842686257e+19 0 0)
(-1.21972638624241e+19 0 0)
(-1.21533622554772e+19 0 0)
(-1.21092631874054e+19 0 0)
(-1.20649501697662e+19 0 0)
(-1.20204066171406e+19 0 0)
(-1.19756158665333e+19 0 0)
(-1.19305615822084e+19 0 0)
(-1.18852279403545e+19 0 0)
(-1.18395999862839e+19 0 0)
(-1.17936644974838e+19 0 0)
(-1.1747410356454e+19 0 0)
(-1.17008296194193e+19 0 0)
(-1.16539174466518e+19 0 0)
(-1.16066697750008e+19 0 0)
(-1.15590502446263e+19 0 0)
(-1.15102396790549e+19 0 0)
(-1.14549058449719e+19 0 0)
(-1.14145980629889e+19 0 0)
(-1.13643443895906e+19 0 0)
(-1.13138481723602e+19 0 0)
(-1.12627281231277e+19 0 0)
(-1.12110629501112e+19 0 0)
(-1.11588502373406e+19 0 0)
(-1.11060686866604e+19 0 0)
(-1.10526898592969e+19 0 0)
(-1.09986830473702e+19 0 0)
(-1.09440181139871e+19 0 0)
(-1.08886667128359e+19 0 0)
(-1.08326028137144e+19 0 0)
(-1.07758025728509e+19 0 0)
(-1.0718243861376e+19 0 0)
(-1.0659905993861e+19 0 0)
(-1.06007695101246e+19 0 0)
(-1.05408158870096e+19 0 0)
(-1.04800272351054e+19 0 0)
(-1.04183864417887e+19 0 0)
(-1.03558771762104e+19 0 0)
(-1.02924836969523e+19 0 0)
(-1.02281908414741e+19 0 0)
(-1.0162984418832e+19 0 0)
(-1.00968508865045e+19 0 0)
(-1.00297775728867e+19 0 0)
(-9.96175253278556e+18 0 0)
(-9.89276491812543e+18 0 0)
(-9.82280467977863e+18 0 0)
(-9.75186276126818e+18 0 0)
(-9.67993108322373e+18 0 0)
(-9.60700252412707e+18 0 0)
(-9.53307106351618e+18 0 0)
(-9.45813173018401e+18 0 0)
(-9.3821804881437e+18 0 0)
(-9.30521438513162e+18 0 0)
(-9.22723158520077e+18 0 0)
(-9.14823110215336e+18 0 0)
(-9.06821305974443e+18 0 0)
(-8.98717855170953e+18 0 0)
(-8.90512950896309e+18 0 0)
(-8.82206871417887e+18 0 0)
(-8.73799981917484e+18 0 0)
(-8.65292701601995e+18 0 0)
(-8.56685528126954e+18 0 0)
(-8.47978991053177e+18 0 0)
(-8.39173652526242e+18 0 0)
(-8.30270092774369e+18 0 0)
(-8.21268894709187e+18 0 0)
(-8.12170603937556e+18 0 0)
(-8.02975711473697e+18 0 0)
(-7.936846336804e+18 0 0)
(-7.84297664935205e+18 0 0)
(-7.74814945802663e+18 0 0)
(-7.65236415158288e+18 0 0)
(-7.55561759411326e+18 0 0)
(-7.45790357809922e+18 0 0)
(-7.35921224288253e+18 0 0)
(-7.25952917523399e+18 0 0)
(-7.1588346720467e+18 0 0)
(-7.0571028811156e+18 0 0)
(-6.95430050915602e+18 0 0)
(-6.85038583723957e+18 0 0)
(-6.74530723116404e+18 0 0)
(-6.63900160708575e+18 0 0)
(-6.53139270935826e+18 0 0)
(-6.42238907512783e+18 0 0)
(-6.31188184183079e+18 0 0)
(-6.19974235686489e+18 0 0)
(-6.08581905622237e+18 0 0)
(-5.96993449603891e+18 0 0)
(-5.85188184455276e+18 0 0)
(-5.73142083756255e+18 0 0)
(-5.60827339932644e+18 0 0)
(-5.48211879297575e+18 0 0)
(-5.35258890631748e+18 0 0)
(-5.21926189588047e+18 0 0)
(-5.08165195476815e+18 0 0)
(-4.93922803032418e+18 0 0)
(-4.79134891548711e+18 0 0)
(-4.63716021358926e+18 0 0)
(-4.47638271948017e+18 0 0)
(-4.30704190856102e+18 0 0)
(-4.12292527151697e+18 0 0)
(-3.93955843679401e+18 0 0)
(-3.68836745540246e+18 0 0)
(-3.35117609690936e+18 0 0)
(-2.70911267118724e+18 0 0)
(-1.90448070799183e+18 0 0)
(-1.60623046718652e+18 0 0)
(-1.59662889130839e+18 0 0)
(-1.35155735425817e+18 0 0)
(-8.14588862544216e+17 0 0)
(-3.10511721097724e+17 0 0)
(2.53029497738101e+17 0 0)
(5.27687476791214e+17 0 0)
(-3.67630696946074e+15 0 0)
(-5.56723485439689e+17 0 0)
(-2.78800412331475e+17 0 0)
(-3.82310425159533e+17 0 0)
(-1.90034615819829e+18 0 0)
(-2.45073454709499e+18 0 0)
(-2.32241535240792e+18 0 0)
(-3.74004431109751e+18 0 0)
(-4.02184576994011e+18 0 0)
(-3.26090512824743e+18 0 0)
(-3.23590063857965e+18 0 0)
(-2.02771011839459e+18 0 0)
(2.35015724227101e+17 0 0)
(2.01902719507785e+18 0 0)
(4.42859689615085e+18 0 0)
(7.24927323484507e+18 0 0)
(9.17264140914026e+18 0 0)
(1.16686952166594e+19 0 0)
(1.17445243434406e+19 0 0)
(1.16998515784312e+19 0 0)
(1.04983176935225e+19 0 0)
(1.05700027118921e+19 0 0)
(7.17065716977828e+18 0 0)
(6.18858245665495e+18 0 0)
(4.05217902831102e+18 0 0)
(6.75359264947467e+18 0 0)
(-5.74127901317671e+18 0 0)
(1.08309205208673e+18 0 0)
(-1.53825680279033e+18 0 0)
(-2.83270926162298e+18 0 0)
(-2.70873912508948e+18 0 0)
(-2.61684019582683e+18 0 0)
(-2.67082524274022e+18 0 0)
(-2.85378911031735e+18 0 0)
(-3.04483689290186e+18 0 0)
(-3.1656981979895e+18 0 0)
(-3.22315340607765e+18 0 0)
(-3.23166290488004e+18 0 0)
(-3.21821829930387e+18 0 0)
(-3.18394540686349e+18 0 0)
(-3.14684426557299e+18 0 0)
(-3.10179681283525e+18 0 0)
(-3.05322741287052e+18 0 0)
(-3.00476737037017e+18 0 0)
(-2.95395001448937e+18 0 0)
(-2.90216485802472e+18 0 0)
(-2.84965158318821e+18 0 0)
(-2.79663084572841e+18 0 0)
(-2.74325044042017e+18 0 0)
(-2.68967390183128e+18 0 0)
(-2.63585330392704e+18 0 0)
(-2.58214478676123e+18 0 0)
(-2.52898434965731e+18 0 0)
(-2.4757733654049e+18 0 0)
(-2.42300351021294e+18 0 0)
(-2.37072414610857e+18 0 0)
(-2.31903153685655e+18 0 0)
(-2.26800197327174e+18 0 0)
(-2.21771245920235e+18 0 0)
(-2.16822393459173e+18 0 0)
(-2.11958936410352e+18 0 0)
(-2.07185418849469e+18 0 0)
(-2.02505598675927e+18 0 0)
(-1.97922573530154e+18 0 0)
(-1.93438760441156e+18 0 0)
(-1.89055982708921e+18 0 0)
(-1.8477548619183e+18 0 0)
(-1.80598011466265e+18 0 0)
(-1.76523810174688e+18 0 0)
(-1.72552734776437e+18 0 0)
(-1.68684235335674e+18 0 0)
(-1.64917453038956e+18 0 0)
(-1.61251391242872e+18 0 0)
(-1.57684734529401e+18 0 0)
(-1.5421516723236e+18 0 0)
(-1.50840873841796e+18 0 0)
(-1.4755973746032e+18 0 0)
(-1.4437109196573e+18 0 0)
(-1.41263363575156e+18 0 0)
(-1.38258774605022e+18 0 0)
(-1.35330783724237e+18 0 0)
(-1.32485166030148e+18 0 0)
(-1.29719035263896e+18 0 0)
(-1.27030668793449e+18 0 0)
(-1.24417090167205e+18 0 0)
(-1.21879239820686e+18 0 0)
(-1.19404355058416e+18 0 0)
(-1.17003031608392e+18 0 0)
(-1.1467220860943e+18 0 0)
(-1.12398170026872e+18 0 0)
(-1.10188029432207e+18 0 0)
(-1.08037380438923e+18 0 0)
(-1.05944393227301e+18 0 0)
(-1.03907035516317e+18 0 0)
(-1.01922938656665e+18 0 0)
(-9.99913201617166e+17 0 0)
(-9.81016141567496e+17 0 0)
(-9.62762986765374e+17 0 0)
(-9.44896487089259e+17 0 0)
(-9.27490061550216e+17 0 0)
(-9.10514950684675e+17 0 0)
(-8.93964250074185e+17 0 0)
(-8.77823749789897e+17 0 0)
(-8.62080860326721e+17 0 0)
(-8.46722858816999e+17 0 0)
(-8.31737659238421e+17 0 0)
(-8.1711342758128e+17 0 0)
(-8.02838856915431e+17 0 0)
(-7.88902771750301e+17 0 0)
(-7.75294477203341e+17 0 0)
(-7.62001248683335e+17 0 0)
(-7.49010735110936e+17 0 0)
(-7.36267087158068e+17 0 0)
(-7.23762471186555e+17 0 0)
(-7.11909868037302e+17 0 0)
(-7.00128472063734e+17 0 0)
(-6.88641289859559e+17 0 0)
(-6.77402691569154e+17 0 0)
(-6.66454930676046e+17 0 0)
(-6.55398358860685e+17 0 0)
(-6.45419575184707e+17 0 0)
(-6.35329794664717e+17 0 0)
(-6.25418416310543e+17 0 0)
(-6.15627808392895e+17 0 0)
(-6.06891708417653e+17 0 0)
(-5.97617937051839e+17 0 0)
(-5.89602291206539e+17 0 0)
(-5.81543216829366e+17 0 0)
(-5.74993445299199e+17 0 0)
(-5.68908680086994e+17 0 0)
(-5.59082268387588e+17 0 0)
)
;

boundaryField
{
    electrode
    {
        type            calculated;
        value           uniform (-1.47111098276555e+19 0 0);
    }
    ground
    {
        type            calculated;
        value           uniform (-5.56529056586983e+17 0 0);
    }
    otherfaces
    {
        type            empty;
    }
}


// ************************************************************************* //
