/*--------------------------------*- C++ -*----------------------------------*\
| =========                 |                                                 |
| \\      /  F ield         | foam-extend: Open Source CFD                    |
|  \\    /   O peration     | Version:     4.0                                |
|   \\  /    A nd           | Web:         http://www.foam-extend.org         |
|    \\/     M anipulation  |                                                 |
\*---------------------------------------------------------------------------*/
FoamFile
{
    version     2.0;
    format      ascii;
    class       volScalarField;
    location    "3.4e-06";
    object      N_electronMean;
}
// * * * * * * * * * * * * * * * * * * * * * * * * * * * * * * * * * * * * * //

dimensions      [0 0 0 1 0 0 0];

internalField   nonuniform List<scalar> 
300
(
6.01466352105918e+16
6.01452080963715e+16
6.01411063366405e+16
6.01337776956673e+16
6.01232416126847e+16
6.0109449429983e+16
6.00923674092301e+16
6.00719740892433e+16
6.0048250861903e+16
6.00211837047385e+16
5.99907625511029e+16
5.99569809292673e+16
5.99198356749463e+16
5.98793266567122e+16
5.98354565827383e+16
5.97882308088799e+16
5.97376571775516e+16
5.96837458804384e+16
5.96265093256339e+16
5.95659620127407e+16
5.95021204237353e+16
5.94350029204853e+16
5.93646296465277e+16
5.92910224266385e+16
5.92142046963646e+16
5.91342014491745e+16
5.90510391316946e+16
5.89647455398675e+16
5.88753497364818e+16
5.87828819365164e+16
5.86873734371069e+16
5.85888566072513e+16
5.8487364785213e+16
5.83829321064884e+16
5.82755933838575e+16
5.81653840141473e+16
5.80523398869689e+16
5.79364973024958e+16
5.78178928806585e+16
5.76965634689204e+16
5.75725460690816e+16
5.74458777617814e+16
5.73165956133666e+16
5.71847365910838e+16
5.70503374910958e+16
5.69134348685049e+16
5.67740649727734e+16
5.66322636914761e+16
5.64880665097137e+16
5.63415084848954e+16
5.61926242578696e+16
5.6041448065297e+16
5.58880136934642e+16
5.57323543827433e+16
5.55745026859969e+16
5.54144903221895e+16
5.52523480515126e+16
5.50881055783942e+16
5.49217914781839e+16
5.47534331259245e+16
5.45830566329572e+16
5.44106867883707e+16
5.4236346993205e+16
5.40600592494857e+16
5.38818442151251e+16
5.37017211389595e+16
5.35197076834552e+16
5.33358198184194e+16
5.31500717686676e+16
5.29624759595658e+16
5.2773042961026e+16
5.25817814600271e+16
5.23886982880307e+16
5.21937983882658e+16
5.19970847134043e+16
5.17985582224197e+16
5.15982179141779e+16
5.13960607709543e+16
5.11920816168095e+16
5.09862730256389e+16
5.07786252997458e+16
5.05691263209307e+16
5.03577614058031e+16
5.01445132474509e+16
4.99293618809848e+16
4.97122846901696e+16
4.9493256330644e+16
4.92722485842706e+16
4.90492302834352e+16
4.8824167286462e+16
4.85970224069284e+16
4.83677554212509e+16
4.81363230973585e+16
4.79026790137589e+16
4.76667733872742e+16
4.74285530112202e+16
4.71879611914328e+16
4.69449376828427e+16
4.66994186260003e+16
4.6451336505333e+16
4.62006201050782e+16
4.5947194421759e+16
4.56909806412701e+16
4.54318961565558e+16
4.51698544652808e+16
4.49047650938145e+16
4.46365335668739e+16
4.43650613519239e+16
4.40902458387204e+16
4.3811980265205e+16
4.35301536244137e+16
4.32446506200689e+16
4.29553516459671e+16
4.26621328016807e+16
4.23648658752562e+16
4.20634183274175e+16
4.17576533752094e+16
4.14474300183517e+16
4.11326029397791e+16
4.0813022426871e+16
4.04885344111841e+16
4.01589805491158e+16
3.98241982885409e+16
3.94840209589032e+16
3.91382777439146e+16
3.87867935731969e+16
3.84293891477994e+16
3.80658810236956e+16
3.76960816249537e+16
3.73197992829101e+16
3.69368383365128e+16
3.65469992368297e+16
3.61500786372752e+16
3.57458694864097e+16
3.53341612555054e+16
3.49147402169573e+16
3.44873895195676e+16
3.40518892291837e+16
3.36080165591075e+16
3.31555461147454e+16
3.269425000992e+16
3.22238980051196e+16
3.17442577389126e+16
3.12550950099452e+16
3.07561741607608e+16
3.02472584294624e+16
2.97281101420547e+16
2.91984908890463e+16
2.86581617153031e+16
2.81068834678246e+16
2.75444173001506e+16
2.69705249977777e+16
2.63849693611797e+16
2.57875147222134e+16
2.51779273344943e+16
2.45559759065596e+16
2.39214323560366e+16
2.32740726297634e+16
2.26136774888929e+16
2.19400329245958e+16
2.12529304276002e+16
2.05521619139988e+16
1.98375045374183e+16
1.91087084247223e+16
1.83654977063362e+16
1.76075737419194e+16
1.68346134935838e+16
1.60462706261067e+16
1.52421893888102e+16
1.44220452214181e+16
1.35856236136298e+16
1.27329649231786e+16
1.18645810339597e+16
1.0981705801343e+16
1.00866158698948e+16
9.18296149916789e+15
8.27602271162705e+15
7.3729826143315e+15
6.48301411991842e+15
5.61703278621642e+15
4.78724997153208e+15
4.00643406394504e+15
3.28682696789288e+15
2.63898486120795e+15
2.07068405829237e+15
1.58599339711865e+15
1.18484904152261e+15
863189763714178
613562335039380
426156883209532
290029981970333
194263625858385
128862880661551
85396589429051.8
56473863265834.2
37097912079428.4
24243442410690.8
15813010801157.6
10438444828121.1
7137511949623.34
5189688978656.54
4073627568746.81
3430889946448.64
3046253468046.35
2803411642947.7
2641046553264.56
2526249998127.18
2440582728776.68
2373198489977.4
2317434681424.2
2269107056480.39
2225458663409.73
2184633850709.98
2145385835913.75
2106879060222.42
2068545245575.61
2030010814920.11
1991041906166.81
1951505768655.04
1911345055376.94
1870557443265.4
1829155418878.08
1787185312708.03
1744740787551.39
1701934659363.79
1658890933789.41
1615737996344.14
1572602612535.43
1529607456460.76
1486868609826.33
1444493918931.2
1402583291275.11
1361226663418.77
1320504403795.49
1280487802042.21
1241238477306.6
1202808515673.97
1165242001896.26
1128574088852.07
1092832196270.78
1058037187325.91
1024202953187.47
991338404491.612
959447373399.123
928529017297.449
898578279467.308
869584523301.542
841533512262.209
814408012249.125
788188421492.348
762855476538.589
738389663232.08
714770141782.092
691974699681.424
669980533310.67
648765013898.292
628305601610.89
608577352414.957
589554427869.25
571214113968.558
553534678689.807
536493080400.184
520066691759.476
504232898741.812
488969610145.143
474255675336.445
460069124707.854
446388158098.27
433192292586.573
420461762773.311
408177381879.441
396321917670.784
384879943685.263
373837601506.755
363181838482.554
352900428335.306
342981814050.605
333414905702.574
324189514815.408
315296373546.584
306726865570.808
298471887800.253
290521517857.629
282853829853.564
275445363971.349
268291306812.912
261396741183.915
254767845782.904
248410884498.199
242308094984.557
236438747847.315
230819180027.972
225482227613.957
220424482613.25
215673830002.467
211300563267.683
207415059652.661
204247240449.707
202163399860.449
201828250822.074
)
;

boundaryField
{
    electrode
    {
        type            calculated;
        value           uniform 6.01466352109389e+16;
    }
    ground
    {
        type            calculated;
        value           uniform 203013091739.977;
    }
    otherfaces
    {
        type            empty;
    }
}


// ************************************************************************* //
