/*--------------------------------*- C++ -*----------------------------------*\
| =========                 |                                                 |
| \\      /  F ield         | foam-extend: Open Source CFD                    |
|  \\    /   O peration     | Version:     4.0                                |
|   \\  /    A nd           | Web:         http://www.foam-extend.org         |
|    \\/     M anipulation  |                                                 |
\*---------------------------------------------------------------------------*/
FoamFile
{
    version     2.0;
    format      ascii;
    class       volScalarField;
    location    "3.4e-06";
    object      Sy_electron;
}
// * * * * * * * * * * * * * * * * * * * * * * * * * * * * * * * * * * * * * //

dimensions      [1 -3 -1 0 0 0 0];

internalField   nonuniform List<scalar> 
300
(
6.84426628142049e-10
6.84537992222379e-10
6.84577642493226e-10
6.84556992053784e-10
6.84533850367117e-10
6.84498744895329e-10
6.84452141913982e-10
6.84395005194554e-10
6.84327064199624e-10
6.84248342648017e-10
6.84158859751755e-10
6.84058613563396e-10
6.83947612343357e-10
6.83825866691556e-10
6.83693389334266e-10
6.8355019566114e-10
6.83396303380931e-10
6.83231732370987e-10
6.83056504510123e-10
6.82870643484484e-10
6.82674174591243e-10
6.82467124529683e-10
6.82249521178295e-10
6.82021393362237e-10
6.81782770578879e-10
6.81533682819498e-10
6.81274160226088e-10
6.81004232829964e-10
6.80723930282011e-10
6.80433281511945e-10
6.8013231439103e-10
6.79821055480618e-10
6.79499529655721e-10
6.79167759716486e-10
6.7882576604204e-10
6.78473566211306e-10
6.78111174602376e-10
6.77738602007263e-10
6.77355855205699e-10
6.7696293652878e-10
6.76559843421888e-10
6.76146567994542e-10
6.75723096550624e-10
6.75289409111839e-10
6.74845478927696e-10
6.74391271974482e-10
6.7392674643844e-10
6.73451852196824e-10
6.72966530264879e-10
6.72470712277354e-10
6.71964319899652e-10
6.71447264322578e-10
6.70919445611273e-10
6.70380752187426e-10
6.69831060174627e-10
6.69270232822663e-10
6.6869811985636e-10
6.68114556871283e-10
6.67519364701432e-10
6.66912348776518e-10
6.66293298482276e-10
6.65661986493105e-10
6.65018168103634e-10
6.64361580539473e-10
6.63691942334531e-10
6.63008952637661e-10
6.62312290432038e-10
6.61601613853881e-10
6.60876559465404e-10
6.60136741545226e-10
6.59381751472107e-10
6.58611157908837e-10
6.57824497800377e-10
6.57041955653058e-10
6.56366702422831e-10
6.55675523674479e-10
6.54968145832542e-10
6.54244018676979e-10
6.53502530190121e-10
6.5274303718458e-10
6.51964865018171e-10
6.5116730791279e-10
6.50349628906161e-10
6.49511059505384e-10
6.48650799101761e-10
6.47768014388195e-10
6.46861838649753e-10
6.45931371067755e-10
6.44975676075944e-10
6.43993782788442e-10
6.42984684357127e-10
6.41947337383184e-10
6.4088066160575e-10
6.39783539160265e-10
6.38654814183546e-10
6.37493292372277e-10
6.36297740556311e-10
6.35066886291443e-10
6.33799417474101e-10
6.32493982024301e-10
6.31149187551377e-10
6.29763601038151e-10
6.28335748531182e-10
6.26864115034691e-10
6.25347144149126e-10
6.23783237936124e-10
6.22170756789338e-10
6.20508019215886e-10
6.18793301820704e-10
6.17024839167005e-10
6.15200823712984e-10
6.13319405787152e-10
6.11378693555687e-10
6.09376753040218e-10
6.07311608130268e-10
6.05181240584545e-10
6.02983590092631e-10
6.0071655437949e-10
5.98377989150071e-10
5.95965708157378e-10
5.93477483215705e-10
5.90911044287126e-10
5.88264079356883e-10
5.85534234501617e-10
5.82719113742348e-10
5.79816278880212e-10
5.76823249268842e-10
5.7373750162101e-10
5.70556469526479e-10
5.67277543005506e-10
5.63898067853045e-10
5.60415344897862e-10
5.56826629039182e-10
5.53129128072777e-10
5.49320001333802e-10
5.45396358152445e-10
5.41355255838536e-10
5.37193697413462e-10
5.32908629029232e-10
5.28496936956152e-10
5.239554440001e-10
5.19280905492329e-10
5.14470004645405e-10
5.09519347293955e-10
5.04425455888054e-10
4.99184762715217e-10
4.93793602082849e-10
4.88248201657072e-10
4.82544672631441e-10
4.76678998718217e-10
4.70647024178069e-10
4.64444439217894e-10
4.58066765631693e-10
4.51509348737436e-10
4.44767312173258e-10
4.37835585489961e-10
4.30709180944012e-10
4.23382234174994e-10
4.15851262136866e-10
4.08116987891842e-10
4.0019223805662e-10
3.92092372401691e-10
3.83782388853926e-10
3.75195332552294e-10
3.6630605281025e-10
3.57125989863051e-10
3.47650805342717e-10
3.3785967016401e-10
3.27713466349435e-10
3.17113590710708e-10
3.0597917752616e-10
2.94354032540187e-10
2.82816152786816e-10
2.71749156566822e-10
2.6004504771803e-10
2.47909747884446e-10
2.35340922296879e-10
2.22390817732028e-10
2.09457648301554e-10
1.96802644166956e-10
1.847505431347e-10
1.73995830945172e-10
1.65714943209759e-10
1.63690680402283e-10
1.6715633761311e-10
1.81243059068848e-10
2.1318535186671e-10
2.69707646291265e-10
3.57507606643328e-10
4.73235092246728e-10
6.39420536898716e-10
8.86491048024392e-10
1.26943245848956e-09
1.91332845300771e-09
3.0491488546171e-09
4.44544976606048e-09
5.71260010455373e-09
7.04171327814219e-09
7.38292531987817e-09
6.75771260396616e-09
5.58569480059097e-09
4.39473529170842e-09
3.41481430630824e-09
2.71714143748393e-09
2.24498836775359e-09
1.93822935193913e-09
1.7477098205037e-09
1.62805357526226e-09
1.55664240026306e-09
1.51186863336701e-09
1.48923215282832e-09
1.48040052602649e-09
1.47604405045386e-09
1.47499175065059e-09
1.47641756480701e-09
1.47859195630248e-09
1.48033769685673e-09
1.48085922030506e-09
1.47963152580831e-09
1.47632639569473e-09
1.47074056349325e-09
1.46274640980917e-09
1.4518665188435e-09
1.43783903540901e-09
1.42167708267905e-09
1.40353260021667e-09
1.38357918100163e-09
1.36200246382086e-09
1.33899310868853e-09
1.31474207810422e-09
1.28943698602261e-09
1.26325933759206e-09
1.23638245647526e-09
1.20896996292882e-09
1.18117471545751e-09
1.15313812860782e-09
1.12498980331426e-09
1.09684741714261e-09
1.06881681945049e-09
1.04099230231707e-09
1.01345701232515e-09
9.86283478219067e-10
9.59534426033588e-10
9.33263956752087e-10
9.07518131357876e-10
8.82334905094722e-10
8.57743983599784e-10
8.33768271866993e-10
8.1041650223796e-10
7.87692889147671e-10
7.65606010747285e-10
7.44160598029903e-10
7.23357717302167e-10
7.03194969910297e-10
6.83666650059024e-10
6.64766842214133e-10
6.46483998849483e-10
6.28801730964121e-10
6.11705841092674e-10
5.95183966537707e-10
5.79220445516273e-10
5.63798828194997e-10
5.48902078559218e-10
5.34512923932115e-10
5.20613597282504e-10
5.07186319989931e-10
4.94205220005282e-10
4.81645231165715e-10
4.69490292844696e-10
4.5772535890976e-10
4.46336594680722e-10
4.3531070745121e-10
4.24634986104051e-10
4.14297309451209e-10
4.04286191926926e-10
3.94590825746072e-10
3.85201123873572e-10
3.76107764618059e-10
3.67302227292438e-10
3.58776815649395e-10
3.50524408510682e-10
3.42289588232988e-10
3.3398821146507e-10
3.25894888181732e-10
3.17987530268986e-10
3.10274224763624e-10
3.02765897911609e-10
2.95473994260097e-10
2.88340772303378e-10
2.80329679176942e-10
2.72472842152035e-10
2.64809525743038e-10
2.57372212513285e-10
2.48203980482508e-10
2.39277823032816e-10
2.29372347979642e-10
2.18116933173568e-10
2.04456850053031e-10
1.87445205234731e-10
1.63757946473783e-10
)
;

boundaryField
{
    electrode
    {
        type            zeroGradient;
    }
    ground
    {
        type            zeroGradient;
    }
    otherfaces
    {
        type            empty;
    }
}


// ************************************************************************* //
