/*--------------------------------*- C++ -*----------------------------------*\
| =========                 |                                                 |
| \\      /  F ield         | foam-extend: Open Source CFD                    |
|  \\    /   O peration     | Version:     4.0                                |
|   \\  /    A nd           | Web:         http://www.foam-extend.org         |
|    \\/     M anipulation  |                                                 |
\*---------------------------------------------------------------------------*/
FoamFile
{
    version     2.0;
    format      ascii;
    class       volScalarField;
    location    "3.5e-06";
    object      Arm;
}
// * * * * * * * * * * * * * * * * * * * * * * * * * * * * * * * * * * * * * //

dimensions      [0 0 0 1 0 0 0];

internalField   nonuniform List<scalar> 
300
(
3.57414628718923e+15
3.57602438139722e+15
3.57797350903401e+15
3.57927941344085e+15
3.58009561015217e+15
3.58047411137767e+15
3.58045912702719e+15
3.58008209126103e+15
3.57936866125234e+15
3.57834082282149e+15
3.57701434710766e+15
3.57540332047794e+15
3.57351979582874e+15
3.57137437560819e+15
3.56897651671106e+15
3.56633476604009e+15
3.56345394142454e+15
3.56034263252506e+15
3.55700918204909e+15
3.55346006834897e+15
3.54970149288739e+15
3.54573937736308e+15
3.54157941180301e+15
3.53722705515858e+15
3.53267159946838e+15
3.52793081335e+15
3.52300839114479e+15
3.51790633853287e+15
3.51263826304407e+15
3.50720905315748e+15
3.50160491784636e+15
3.49583724504149e+15
3.48992415578012e+15
3.48387102407932e+15
3.47768293619903e+15
3.47136469690423e+15
3.46491647200291e+15
3.45834478200423e+15
3.45165669896208e+15
3.44485575572324e+15
3.43794545464293e+15
3.43093107430051e+15
3.42381649471793e+15
3.41660540750471e+15
3.40930131289352e+15
3.40190747614358e+15
3.39442483981955e+15
3.38685485936211e+15
3.37918975981634e+15
3.37142814412029e+15
3.36355738200141e+15
3.35559001068226e+15
3.34752060626736e+15
3.3393669122741e+15
3.33113704881533e+15
3.3228474027987e+15
3.31450126569445e+15
3.30610155365314e+15
3.29765084008582e+15
3.28914953843282e+15
3.28060196872126e+15
3.27201024452367e+15
3.26337102774544e+15
3.25466632765826e+15
3.24590012280353e+15
3.23709803339062e+15
3.22826213516123e+15
3.21939426786266e+15
3.21049601731524e+15
3.20156874458167e+15
3.19261160726275e+15
3.18361744493687e+15
3.17458471812066e+15
3.16552089594463e+15
3.15641240817028e+15
3.1472603207946e+15
3.13807098966255e+15
3.12884025759153e+15
3.11958816298354e+15
3.11028405446257e+15
3.10096259578698e+15
3.09162589176195e+15
3.08227084995083e+15
3.07289974859058e+15
3.0634977367805e+15
3.05407257110332e+15
3.04463596932838e+15
3.0351882524481e+15
3.02571748461059e+15
3.01623144663595e+15
3.00672414374113e+15
2.99715041016082e+15
2.98756564130511e+15
2.97797143419458e+15
2.96836781651934e+15
2.95875481459385e+15
2.94913221009658e+15
2.93949957861022e+15
2.92984596692243e+15
2.92017131759238e+15
2.91048190283289e+15
2.90077902490671e+15
2.89103084315934e+15
2.88126666451161e+15
2.8714772388171e+15
2.86165320125155e+15
2.85180962253793e+15
2.84192683736683e+15
2.83201529832781e+15
2.82208045900628e+15
2.81212044373957e+15
2.80213297008304e+15
2.79211028862699e+15
2.78205019158095e+15
2.77195047073678e+15
2.76179346241609e+15
2.75156024372143e+15
2.74127566914618e+15
2.73094059994298e+15
2.72054696392755e+15
2.71006832596376e+15
2.69951771404083e+15
2.68886607385831e+15
2.67812383064813e+15
2.66730242726526e+15
2.65639967284617e+15
2.64538739821669e+15
2.63428309804211e+15
2.62307591469888e+15
2.61176382517521e+15
2.60033116572643e+15
2.58877407676783e+15
2.57708757646149e+15
2.56524556912081e+15
2.55321153779147e+15
2.54100439426945e+15
2.52862807318307e+15
2.51605750304375e+15
2.50327380797133e+15
2.49028615180397e+15
2.47707852794232e+15
2.46363429314066e+15
2.44992128971706e+15
2.43590741295269e+15
2.42156802029349e+15
2.40692297543311e+15
2.39195738437189e+15
2.37665489336617e+15
2.36098496842292e+15
2.34489865539683e+15
2.32840846301555e+15
2.31148964329965e+15
2.2940798492003e+15
2.27617795566877e+15
2.2577657177961e+15
2.23879337578492e+15
2.21921764996424e+15
2.19903803791121e+15
2.1782353998144e+15
2.15676474717809e+15
2.13459046466756e+15
2.11169749609098e+15
2.08804752944602e+15
2.06365316946988e+15
2.03850143432401e+15
2.01253766073232e+15
1.98578271134082e+15
1.95828118664829e+15
1.93006203146863e+15
1.9011672040431e+15
1.87166535600205e+15
1.84158973841307e+15
1.81103271798433e+15
1.78016585142208e+15
1.74918312366217e+15
1.71825435559177e+15
1.68755872537173e+15
1.6572952153177e+15
1.62770272495746e+15
1.5989367545673e+15
1.57115157830673e+15
1.54449427288991e+15
1.51904610741956e+15
1.49492195140049e+15
1.47212155523595e+15
1.45055434555114e+15
1.43025987758063e+15
1.41118649807136e+15
1.39324528772765e+15
1.37634756281505e+15
1.36037609359948e+15
1.34531588885702e+15
1.33146617534505e+15
1.32334921463489e+15
1.34580452751543e+15
1.40294281352471e+15
1.46453453161202e+15
1.49655398935322e+15
1.49930949354332e+15
1.48318106493937e+15
1.45706346071336e+15
1.42957481898356e+15
1.40569177963544e+15
1.38691717941064e+15
1.37281666135166e+15
1.36238618331486e+15
1.35413761871318e+15
1.34775366145554e+15
1.34267184166907e+15
1.33845720237846e+15
1.33441612356689e+15
1.33032680051203e+15
1.32617402529996e+15
1.32201146421137e+15
1.31780621221222e+15
1.31347724917317e+15
1.30896337027817e+15
1.30427327529995e+15
1.29937973407335e+15
1.29427905316756e+15
1.28898805162706e+15
1.28350151862171e+15
1.27782019623301e+15
1.27181687059497e+15
1.2655663647341e+15
1.25922505313346e+15
1.25282716728173e+15
1.24638407952497e+15
1.23992118402349e+15
1.23346848716948e+15
1.22703221442484e+15
1.22063344007339e+15
1.21429712635629e+15
1.20803049768378e+15
1.20184334552289e+15
1.19576125576807e+15
1.18977587562806e+15
1.18391259240657e+15
1.17816523941766e+15
1.1725483504292e+15
1.16706533849487e+15
1.1617104864449e+15
1.15649990237439e+15
1.15142003001801e+15
1.14647694758518e+15
1.14168540463421e+15
1.13703022800171e+15
1.13251734659311e+15
1.12814711078647e+15
1.12390910782811e+15
1.11980801285496e+15
1.11583748404524e+15
1.11199253962853e+15
1.1082763533177e+15
1.10468040610248e+15
1.1012022502535e+15
1.09784051239243e+15
1.09457974109354e+15
1.09142892068608e+15
1.08838039356719e+15
1.08544024423271e+15
1.08259619506875e+15
1.07985151870046e+15
1.07719842906444e+15
1.07463520111719e+15
1.07215865334948e+15
1.06976180128875e+15
1.0674423162171e+15
1.06519045217274e+15
1.06301307952155e+15
1.06090341788862e+15
1.05886771479067e+15
1.05689363187152e+15
1.05498763884222e+15
1.05313826220751e+15
1.05134463685463e+15
1.04960555115152e+15
1.0479214667215e+15
1.04629476386532e+15
1.04471939276919e+15
1.04319449577461e+15
1.04168918530232e+15
1.0401309265734e+15
1.03859026640459e+15
1.03709341283624e+15
1.03563079230193e+15
1.03420966127846e+15
1.0328307601209e+15
1.03148372314116e+15
1.02997467801838e+15
1.02845607371822e+15
1.02697811786826e+15
1.02554155902054e+15
1.0238590667224e+15
1.02217933641383e+15
1.02041545618054e+15
1.01842462715207e+15
1.01620667959973e+15
1.0136668018422e+15
1.01059264343118e+15
)
;

boundaryField
{
    electrode
    {
        type            zeroGradient;
    }
    ground
    {
        type            zeroGradient;
    }
    otherfaces
    {
        type            empty;
    }
}


// ************************************************************************* //
