/*--------------------------------*- C++ -*----------------------------------*\
| =========                 |                                                 |
| \\      /  F ield         | foam-extend: Open Source CFD                    |
|  \\    /   O peration     | Version:     4.0                                |
|   \\  /    A nd           | Web:         http://www.foam-extend.org         |
|    \\/     M anipulation  |                                                 |
\*---------------------------------------------------------------------------*/
FoamFile
{
    version     2.0;
    format      ascii;
    class       volScalarField;
    location    "3.5e-06";
    object      Arp1;
}
// * * * * * * * * * * * * * * * * * * * * * * * * * * * * * * * * * * * * * //

dimensions      [0 0 0 1 0 0 0];

internalField   nonuniform List<scalar> 
300
(
5.86810272384959e+16
5.87194227996712e+16
5.86961974890844e+16
5.86901900643967e+16
5.86808129175868e+16
5.86673882336578e+16
5.86515174179812e+16
5.86326894638867e+16
5.86109369321124e+16
5.85862919360834e+16
5.85587458447198e+16
5.85283037802672e+16
5.84949704714003e+16
5.84587502055472e+16
5.84196479433523e+16
5.83776689666577e+16
5.83328188721762e+16
5.82851035798478e+16
5.82345293090016e+16
5.81811025598922e+16
5.81248300957645e+16
5.80657189232144e+16
5.80037762708239e+16
5.79390095675073e+16
5.78714264203603e+16
5.78010345903129e+16
5.77278419676831e+16
5.76518565468796e+16
5.75730863999278e+16
5.74915396488601e+16
5.74072244376829e+16
5.73201489035283e+16
5.72303211464129e+16
5.71377491990333e+16
5.70424409945937e+16
5.69444043357055e+16
5.68436468598588e+16
5.67401760079408e+16
5.66339989878828e+16
5.65251227409597e+16
5.64135539062581e+16
5.629929878425e+16
5.61823633004576e+16
5.60627529687242e+16
5.59404728533993e+16
5.58155275317041e+16
5.56879210559829e+16
5.55576569151942e+16
5.54247379954257e+16
5.52891665434141e+16
5.51509441251578e+16
5.50100715885856e+16
5.48665490249188e+16
5.4720375728946e+16
5.45715501609593e+16
5.44200699088198e+16
5.42659316494357e+16
5.41091311109799e+16
5.39496630365516e+16
5.3787521146757e+16
5.36226981034877e+16
5.34551854761577e+16
5.32849737048209e+16
5.311205206882e+16
5.29364086527671e+16
5.27580303151156e+16
5.25769026580521e+16
5.23930099984386e+16
5.2206335339285e+16
5.2016860343985e+16
5.18245653115119e+16
5.16294291525848e+16
5.14314293691856e+16
5.1230542034504e+16
5.10267417754369e+16
5.08200017567829e+16
5.06102936691331e+16
5.03975877165908e+16
5.01818526086478e+16
4.99630555545607e+16
4.97411622596813e+16
4.95161369242566e+16
4.92879422466807e+16
4.90565394282039e+16
4.88218881801142e+16
4.85839467374583e+16
4.83426718718313e+16
4.80980189097435e+16
4.78499417553953e+16
4.75983929148977e+16
4.73433235252088e+16
4.70846833872307e+16
4.68224210028997e+16
4.65564836148488e+16
4.6286817251593e+16
4.60133667769312e+16
4.57360759425548e+16
4.54548874457304e+16
4.51697429912748e+16
4.48805833580484e+16
4.45873484700667e+16
4.42899774719697e+16
4.39884088090736e+16
4.36825803131788e+16
4.33724292916722e+16
4.30578926225804e+16
4.27389068540201e+16
4.24154083085007e+16
4.20873331925265e+16
4.17546177110396e+16
4.14171981858784e+16
4.10750111814987e+16
4.0727993633209e+16
4.03760829816204e+16
4.00192173127501e+16
3.96573355018402e+16
3.92903773629483e+16
3.89182838042777e+16
3.85409969868453e+16
3.81584604904184e+16
3.77706194834942e+16
3.73774208986282e+16
3.69788136134525e+16
3.6574748637419e+16
3.61651793042382e+16
3.5750061469864e+16
3.53293537172632e+16
3.49030175682879e+16
3.44710177013442e+16
3.40333221788915e+16
3.3589902681912e+16
3.31407347544255e+16
3.26857980597262e+16
3.22250766474329e+16
3.17585592356489e+16
3.1286239509431e+16
3.08081164378171e+16
3.03241946139888e+16
2.98344846212832e+16
2.93390034300601e+16
2.88377748297799e+16
2.83308302649375e+16
2.78182104585694e+16
2.72999629863822e+16
2.67761442904865e+16
2.6246820717802e+16
2.5712069414828e+16
2.51719793777476e+16
2.46266526833882e+16
2.40762059471136e+16
2.35207719184597e+16
2.2960501915048e+16
2.23955682991285e+16
2.18261632145363e+16
2.12525163838098e+16
2.06748944720366e+16
2.00934575864321e+16
1.9508920098149e+16
1.89211081399954e+16
1.8329584810517e+16
1.77394099314211e+16
1.71556583138948e+16
1.65718393039864e+16
1.59843940634081e+16
1.53964976220226e+16
1.48104484698718e+16
1.42352775241121e+16
1.36626842917612e+16
1.31071676874504e+16
1.25580763180701e+16
1.20021673651831e+16
1.14566632410759e+16
1.09514023013282e+16
1.04535655131245e+16
9.93702033512006e+15
9.47958160456635e+15
9.05039572447063e+15
8.58584173415954e+15
8.196742569963e+15
7.83385501702614e+15
7.44509025335541e+15
7.12029633210653e+15
6.84036146742353e+15
6.51829410622395e+15
6.26128834195712e+15
6.03682363120874e+15
5.81625029071836e+15
5.59749554694811e+15
5.42484863983409e+15
5.27583260526638e+15
5.13118238827602e+15
4.98282371250439e+15
4.86920351269869e+15
4.77555039201352e+15
4.7157575457368e+15
4.6787146956796e+15
4.64610979100688e+15
4.65262864269044e+15
4.67415403930178e+15
4.7001009211362e+15
4.72734451265607e+15
4.72372879643354e+15
4.70525664286216e+15
4.66373260186677e+15
4.61580575276482e+15
4.5666429910962e+15
4.52129473920412e+15
4.47789502403665e+15
4.43986078055631e+15
4.40447021395999e+15
4.3746229915183e+15
4.33888435208714e+15
4.29618940242057e+15
4.25623660716706e+15
4.22083015636897e+15
4.18751781188346e+15
4.15827456642831e+15
4.13067003811605e+15
4.10679524124855e+15
4.08418842949989e+15
4.06502270091809e+15
4.04671272931217e+15
4.03161930640534e+15
4.01695178037214e+15
3.99845925377664e+15
3.97351780188598e+15
3.95155209966797e+15
3.92948099574854e+15
3.91014036421051e+15
3.89039978287645e+15
3.87322984072666e+15
3.85541298452795e+15
3.8401343896606e+15
3.8240205206653e+15
3.81048881387382e+15
3.79598547620495e+15
3.78410114158548e+15
3.77109306826112e+15
3.76072478096905e+15
3.74908302159846e+15
3.7400693218776e+15
3.72964532960002e+15
3.71815112801104e+15
3.69990537715581e+15
3.68432534905616e+15
3.66713822450823e+15
3.65267288265088e+15
3.63646995582725e+15
3.6230346299967e+15
3.60774553304045e+15
3.59530307428681e+15
3.58087352176466e+15
3.56938425316362e+15
3.55577155216977e+15
3.54520528649059e+15
3.53237990758981e+15
3.52268847417795e+15
3.51061161152022e+15
3.50175312343907e+15
3.49036785803068e+15
3.48227625552509e+15
3.47152942975744e+15
3.46415068911647e+15
3.45398882656628e+15
3.44728372040477e+15
3.43767536665624e+15
3.43161897726894e+15
3.42254862661466e+15
3.41145080190113e+15
3.39718379727692e+15
3.38647922583084e+15
3.3727496852883e+15
3.36265731998627e+15
3.34943290265416e+15
3.33991828038386e+15
3.32717165505738e+15
3.3182006590813e+15
3.30590274936064e+15
3.29744238181978e+15
3.28557090958991e+15
3.27758872097675e+15
3.26610886728016e+15
3.25857582819364e+15
3.24746051617841e+15
3.24036934334303e+15
3.22960474833655e+15
3.22296012153942e+15
3.21253220738207e+15
3.20634841621187e+15
3.19625546567053e+15
3.19050802271005e+15
3.18071977668464e+15
3.17537735278608e+15
3.16587401477046e+15
3.16086787133011e+15
3.15159579959743e+15
3.14687284259279e+15
3.13776812869744e+15
3.13324308450208e+15
3.12194989929512e+15
)
;

boundaryField
{
    electrode
    {
        type            driftDiffusionPositiveIonDensity;
        seec            0;
        fieldName       Arp1;
        value           uniform 5.85194425761798e+16;
    }
    ground
    {
        type            driftDiffusionPositiveIonDensity;
        seec            0;
        fieldName       Arp1;
        value           uniform 3.12194989929512e+15;
    }
    otherfaces
    {
        type            empty;
    }
}


// ************************************************************************* //
