/*--------------------------------*- C++ -*----------------------------------*\
| =========                 |                                                 |
| \\      /  F ield         | foam-extend: Open Source CFD                    |
|  \\    /   O peration     | Version:     4.0                                |
|   \\  /    A nd           | Web:         http://www.foam-extend.org         |
|    \\/     M anipulation  |                                                 |
\*---------------------------------------------------------------------------*/
FoamFile
{
    version     2.0;
    format      ascii;
    class       volVectorField;
    location    "3.5e-06";
    object      E;
}
// * * * * * * * * * * * * * * * * * * * * * * * * * * * * * * * * * * * * * //

dimensions      [0 0 0 1 0 0 0];

internalField   nonuniform List<vector> 
300
(
(5.53420073517997 -0 -0)
(11.213471293181 -0 -0)
(19.6632216384329 -0 -0)
(27.5521506609702 -0 -0)
(35.3615732695537 -0 -0)
(43.2330144892195 -0 -0)
(51.0903832531834 -0 -0)
(58.9487948329791 -0 -0)
(66.8096465275555 -0 -0)
(74.6713890345537 -0 -0)
(82.5345535665473 -0 -0)
(90.3992733045098 -0 -0)
(98.2656769538136 -0 -0)
(106.133971120024 -0 -0)
(114.00438612308 -0 -0)
(121.877189603049 -0 -0)
(129.752690650184 -0 -0)
(137.631241291238 -0 -0)
(145.513239720176 -0 -0)
(153.399133162588 -0 -0)
(161.289420952395 -0 -0)
(169.184657550227 -0 -0)
(177.085455745071 -0 -0)
(184.992489735138 -0 -0)
(192.906498537595 -0 -0)
(200.828289169393 -0 -0)
(208.758740057049 -0 -0)
(216.698804492157 -0 -0)
(224.649514057868 -0 -0)
(232.611982238509 -0 -0)
(240.58740799168 -0 -0)
(248.577079391082 -0 -0)
(256.582377340689 -0 -0)
(264.604779412508 -0 -0)
(272.645863590105 -0 -0)
(280.707312236313 -0 -0)
(288.790915989352 -0 -0)
(296.898577802013 -0 -0)
(305.03231701343 -0 -0)
(313.194273449145 -0 -0)
(321.38671161024 -0 -0)
(329.612024903315 -0 -0)
(337.872739977795 -0 -0)
(346.171521027549 -0 -0)
(354.511174249817 -0 -0)
(362.894652278272 -0 -0)
(371.325058705277 -0 -0)
(379.805652690783 -0 -0)
(388.339853611736 -0 -0)
(396.931245696873 -0 -0)
(405.58358289787 -0 -0)
(414.300793580331 -0 -0)
(423.086985479242 -0 -0)
(431.946450624209 -0 -0)
(440.883670375967 -0 -0)
(449.903320444334 -0 -0)
(459.010276071581 -0 -0)
(468.209617239581 -0 -0)
(477.506633945929 -0 -0)
(486.906831620496 -0 -0)
(496.415936569787 -0 -0)
(506.03990147797 -0 -0)
(515.784911156504 -0 -0)
(525.657388225682 -0 -0)
(535.66399901134 -0 -0)
(545.811659556692 -0 -0)
(556.107541745185 -0 -0)
(566.559079563541 -0 -0)
(577.173975571719 -0 -0)
(587.960207471038 -0 -0)
(598.926034991891 -0 -0)
(610.080006784098 -0 -0)
(621.430967784392 -0 -0)
(632.988066603818 -0 -0)
(644.760763371453 -0 -0)
(656.758837747134 -0 -0)
(668.992397324806 -0 -0)
(681.471886367143 -0 -0)
(694.208095000716 -0 -0)
(707.21216871835 -0 -0)
(720.495618454577 -0 -0)
(734.070331121014 -0 -0)
(747.948580741139 -0 -0)
(762.143040165882 -0 -0)
(776.666793445089 -0 -0)
(791.533348985632 -0 -0)
(806.756653411267 -0 -0)
(822.351106427668 -0 -0)
(838.331576445525 -0 -0)
(854.713417433678 -0 -0)
(871.512486769288 -0 -0)
(888.745164316468 -0 -0)
(906.428372864176 -0 -0)
(924.579600081278 -0 -0)
(943.216921875192 -0 -0)
(962.35902763429 -0 -0)
(982.025247320381 -0 -0)
(1002.23558048125 -0 -0)
(1023.01072763832 -0 -0)
(1044.37212401925 -0 -0)
(1066.34197591916 -0 -0)
(1088.94329999427 -0 -0)
(1112.19996563338 -0 -0)
(1136.13674082002 -0 -0)
(1160.77934167608 -0 -0)
(1186.15448615755 -0 -0)
(1212.28995216111 -0 -0)
(1239.21464056942 -0 -0)
(1266.95864358107 -0 -0)
(1295.55331905397 -0 -0)
(1325.03137107039 -0 -0)
(1355.42693775902 -0 -0)
(1386.77568682604 -0 -0)
(1419.11491950156 -0 -0)
(1452.48368413218 -0 -0)
(1486.92289990675 -0 -0)
(1522.47549216905 -0 -0)
(1559.1865403787 -0 -0)
(1597.10343996501 -0 -0)
(1636.27607980155 -0 -0)
(1676.75703689631 -0 -0)
(1718.60179013737 -0 -0)
(1761.8689553718 -0 -0)
(1806.62054421487 -0 -0)
(1852.92224936341 -0 -0)
(1900.84375955323 -0 -0)
(1950.45910754993 -0 -0)
(2001.84705551709 -0 -0)
(2055.09152209509 -0 -0)
(2110.28205655851 -0 -0)
(2167.51436608276 -0 -0)
(2226.89090289987 -0 -0)
(2288.52151931441 -0 -0)
(2352.52419975665 -0 -0)
(2419.02588016567 -0 -0)
(2488.16336711357 -0 -0)
(2560.08437073633 -0 -0)
(2634.94866841492 -0 -0)
(2712.92941978781 -0 -0)
(2794.21465960105 -0 -0)
(2879.00901068835 -0 -0)
(2967.5357223497 -0 -0)
(3060.03915964214 -0 -0)
(3156.78736126403 -0 -0)
(3258.07468401803 -0 -0)
(3364.22503447663 -0 -0)
(3475.59571043412 -0 -0)
(3592.58186026812 -0 -0)
(3715.62165309634 -0 -0)
(3845.20228207432 -0 -0)
(3981.8669458268 -0 -0)
(4126.22305168194 -0 -0)
(4278.95177389404 -0 -0)
(4440.81893397386 -0 -0)
(4612.68974583423 -0 -0)
(4795.54334359887 -0 -0)
(4990.48217963053 -0 -0)
(5198.80295041696 -0 -0)
(5421.94696214942 -0 -0)
(5661.50585984755 -0 -0)
(5920.29932962054 -0 -0)
(6203.18542026634 -0 -0)
(6514.97573208937 -0 -0)
(6858.80833865276 -0 -0)
(7237.75775823634 -0 -0)
(7656.4630230209 -0 -0)
(8122.17237257359 -0 -0)
(8643.07323237659 -0 -0)
(9228.92888857257 -0 -0)
(9889.79225105771 -0 -0)
(10631.0056490402 -0 -0)
(11458.9461308392 -0 -0)
(12389.4316057016 -0 -0)
(13436.636652267 -0 -0)
(14601.7625428679 -0 -0)
(15895.4044286932 -0 -0)
(17335.7602719863 -0 -0)
(18918.6624903656 -0 -0)
(20647.1691178021 -0 -0)
(22534.766611231 -0 -0)
(24568.3067736299 -0 -0)
(26739.571655953 -0 -0)
(29054.4759791949 -0 -0)
(31489.0193663365 -0 -0)
(34021.9302292572 -0 -0)
(36650.5950607189 -0 -0)
(39355.1332454495 -0 -0)
(42107.2023981042 -0 -0)
(44892.2451316219 -0 -0)
(47703.9208377371 -0 -0)
(50527.2558659846 -0 -0)
(53341.4365794454 -0 -0)
(56137.8679084791 -0 -0)
(58916.4581198607 -0 -0)
(61687.183412069 -0 -0)
(64457.1947433963 -0 -0)
(67219.2094721178 -0 -0)
(69988.8347920662 -0 -0)
(72781.2284211186 -0 -0)
(75594.2516184674 -0 -0)
(78427.8337897262 -0 -0)
(81272.0925095891 -0 -0)
(84111.950185618 -0 -0)
(86935.0978427814 -0 -0)
(89732.040904452 -0 -0)
(92500.0897956629 -0 -0)
(95239.8352691738 -0 -0)
(97952.928627476 -0 -0)
(100641.527564715 -0 -0)
(103308.027146851 -0 -0)
(105954.877927372 -0 -0)
(108581.963899731 -0 -0)
(111185.40698526 -0 -0)
(113763.930501504 -0 -0)
(116319.729432428 -0 -0)
(118854.805565899 -0 -0)
(121371.017193206 -0 -0)
(123870.085688592 -0 -0)
(126353.630462558 -0 -0)
(128823.1593996 -0 -0)
(131280.093817529 -0 -0)
(133725.730607058 -0 -0)
(136161.298785608 -0 -0)
(138587.898023291 -0 -0)
(141004.504368666 -0 -0)
(143408.020404846 -0 -0)
(145797.399600995 -0 -0)
(148173.508469946 -0 -0)
(150537.13950467 -0 -0)
(152888.996263132 -0 -0)
(155229.734002324 -0 -0)
(157559.933383442 -0 -0)
(159880.165199854 -0 -0)
(162190.943343833 -0 -0)
(164492.794851968 -0 -0)
(166786.205576208 -0 -0)
(169071.672414781 -0 -0)
(171349.646344361 -0 -0)
(173620.584551367 -0 -0)
(175884.899031981 -0 -0)
(178142.998196671 -0 -0)
(180395.249132136 -0 -0)
(182640.903541603 -0 -0)
(184877.602298395 -0 -0)
(187104.11295333 -0 -0)
(189320.754475612 -0 -0)
(191527.862715034 -0 -0)
(193725.734206679 -0 -0)
(195914.679287505 -0 -0)
(198094.973174892 -0 -0)
(200266.914973551 -0 -0)
(202430.763596209 -0 -0)
(204586.806157586 -0 -0)
(206735.288682373 -0 -0)
(208876.489127573 -0 -0)
(211010.644818253 -0 -0)
(213138.019021609 -0 -0)
(215258.837157206 -0 -0)
(217373.350371359 -0 -0)
(219481.766751856 -0 -0)
(221584.317349223 -0 -0)
(223681.194421645 -0 -0)
(225772.61268847 -0 -0)
(227858.748311331 -0 -0)
(229939.804169007 -0 -0)
(232015.946946301 -0 -0)
(234087.37207692 -0 -0)
(236154.241540735 -0 -0)
(238215.034681134 -0 -0)
(240268.184078851 -0 -0)
(242313.808144043 -0 -0)
(244352.068775647 -0 -0)
(246383.150417794 -0 -0)
(248407.205231222 -0 -0)
(250424.407278665 -0 -0)
(252434.900490744 -0 -0)
(254438.848653984 -0 -0)
(256436.386940806 -0 -0)
(258427.669194282 -0 -0)
(260412.823881063 -0 -0)
(262391.995078172 -0 -0)
(264365.300710773 -0 -0)
(266332.876122821 -0 -0)
(268294.831168305 -0 -0)
(270251.298920662 -0 -0)
(272202.385051989 -0 -0)
(274148.224194769 -0 -0)
(276088.917673179 -0 -0)
(278024.60430955 -0 -0)
(279955.385102375 -0 -0)
(281881.3914791 -0 -0)
(283802.715177088 -0 -0)
(285719.478281042 -0 -0)
(287631.766547271 -0 -0)
(289539.681117374 -0 -0)
(291443.291538313 -0 -0)
(293342.682344088 -0 -0)
(295237.903515129 -0 -0)
(297129.018402401 -0 -0)
(299015.365284922 -0 -0)
)
;

boundaryField
{
    electrode
    {
        type            calculated;
        value           uniform (4.28299997111026 -0 -0);
    }
    ground
    {
        type            calculated;
        value           uniform (299956.835212687 -0 -0);
    }
    otherfaces
    {
        type            empty;
    }
}


// ************************************************************************* //
