/*--------------------------------*- C++ -*----------------------------------*\
| =========                 |                                                 |
| \\      /  F ield         | foam-extend: Open Source CFD                    |
|  \\    /   O peration     | Version:     4.0                                |
|   \\  /    A nd           | Web:         http://www.foam-extend.org         |
|    \\/     M anipulation  |                                                 |
\*---------------------------------------------------------------------------*/
FoamFile
{
    version     2.0;
    format      ascii;
    class       volScalarField;
    location    "3.5e-06";
    object      electron;
}
// * * * * * * * * * * * * * * * * * * * * * * * * * * * * * * * * * * * * * //

dimensions      [0 0 0 1 0 0 0];

internalField   nonuniform List<scalar> 
300
(
5.86907214482966e+16
5.86890412946622e+16
5.86847715015552e+16
5.86775539977069e+16
5.86674428947517e+16
5.86544228131629e+16
5.86384909802588e+16
5.86196510703384e+16
5.85979052019759e+16
5.85732562852081e+16
5.85457077190781e+16
5.85152632480444e+16
5.84819270087682e+16
5.84457035088604e+16
5.84065976114919e+16
5.83646145227301e+16
5.83197597762966e+16
5.82720392175397e+16
5.82214589864939e+16
5.81680254999243e+16
5.81117454323942e+16
5.80526256963498e+16
5.79906734212262e+16
5.79258959315937e+16
5.78583007243374e+16
5.77878954448845e+16
5.77146878625082e+16
5.76386858446982e+16
5.75598973306302e+16
5.74783303037455e+16
5.73939927634546e+16
5.7306892695998e+16
5.72170380444822e+16
5.71244366781055e+16
5.70290963606107e+16
5.69310247179906e+16
5.68302292054704e+16
5.67267170738053e+16
5.66204953349165e+16
5.651157072691e+16
5.63999496785135e+16
5.62856382729706e+16
5.61686422114258e+16
5.60489667758518e+16
5.59266167915624e+16
5.58015965893557e+16
5.5673909967346e+16
5.55435601525247e+16
5.54105497621055e+16
5.52748807647214e+16
5.51365544415178e+16
5.49955713472106e+16
5.4851931271179e+16
5.47056331986402e+16
5.45566752719843e+16
5.44050547523409e+16
5.42507679814503e+16
5.40938103439063e+16
5.39341762298554e+16
5.37718589982253e+16
5.3606850940561e+16
5.34391432455661e+16
5.32687259644201e+16
5.30955879769589e+16
5.29197169588201e+16
5.27410993496322e+16
5.25597203223421e+16
5.23755637537816e+16
5.21886121965642e+16
5.19988468524107e+16
5.18062475469987e+16
5.16107927064454e+16
5.14124593355196e+16
5.12112229976819e+16
5.10070577970657e+16
5.07999363624917e+16
5.05898298336329e+16
5.03767078494294e+16
5.0160538538854e+16
4.99412885141384e+16
4.97189228665697e+16
4.94934051649553e+16
4.92646974568612e+16
4.90327602727252e+16
4.87975526329542e+16
4.85590320580992e+16
4.83171545822118e+16
4.80718747694732e+16
4.7823145734196e+16
4.757091916429e+16
4.73151453482707e+16
4.70557732059111e+16
4.67927503226129e+16
4.65260229875659e+16
4.62555362357791e+16
4.59812338940537e+16
4.5703058630944e+16
4.54209520107784e+16
4.51348545517896e+16
4.48447057883858e+16
4.45504443376096e+16
4.42520079698084e+16
4.39493336835353e+16
4.36423577846901e+16
4.3331015969902e+16
4.30152434141415e+16
4.26949748625399e+16
4.23701447263846e+16
4.20406871832468e+16
4.17065362811733e+16
4.13676260468755e+16
4.10238905978306e+16
4.06752642581753e+16
4.032168167829e+16
3.99630779579189e+16
3.95993887726717e+16
3.9230550503736e+16
3.88565003705876e+16
3.84771765664884e+16
3.80925183965294e+16
3.77024664179379e+16
3.73069625823629e+16
3.69059503798212e+16
3.6499374983953e+16
3.60871833982084e+16
3.56693246025574e+16
3.52457497002944e+16
3.48164120644714e+16
3.4381267483458e+16
3.39402743051075e+16
3.34933935789736e+16
3.30405891959998e+16
3.25818280250804e+16
3.21170800458643e+16
3.1646318477165e+16
3.11695199003189e+16
3.06866643768012e+16
3.0197735559337e+16
2.97027207954922e+16
2.92016112220314e+16
2.86944018462701e+16
2.81810916043043e+16
2.76616833755361e+16
2.71361839710188e+16
2.66046041337935e+16
2.60669585491593e+16
2.5523265848263e+16
2.49735485976092e+16
2.44178332731356e+16
2.38561502205235e+16
2.32885336061604e+16
2.2715021363364e+16
2.21356551396472e+16
2.15504802754643e+16
2.09595457786671e+16
2.0362904224988e+16
1.97606122698797e+16
1.91527292290577e+16
1.85393150711849e+16
1.79204301628925e+16
1.72960920864239e+16
1.66661699441269e+16
1.60303623993474e+16
1.53883398800766e+16
1.47398709865246e+16
1.40848193337139e+16
1.34230599698934e+16
1.27544535766693e+16
1.20788954364161e+16
1.13964059283696e+16
1.07073986068022e+16
1.00128831084928e+16
9.31429488337024e+15
8.613449126584e+15
7.9129873954714e+15
7.21646379936404e+15
6.52799432201423e+15
5.85247882031108e+15
5.19563673692489e+15
4.56345637641626e+15
3.96209578012168e+15
3.39767098371554e+15
2.87558565946825e+15
2.40025947175283e+15
1.97492446093121e+15
1.60103047543067e+15
1.27833982796898e+15
1.0052455051505e+15
778782825177228
594841197957688
448468182142749
334175189728725
246610864511580
180644039384476
131468578568771
93753044373127
65336781364793.9
44908928903611.5
30025526275433.6
19317198010062.9
12081477587416.9
7544641537327.91
4875230693926.72
3356569288113.22
2494360056942.26
1996356942697.94
1702079153068.73
1524516612230.78
1416272899857.19
1350238666938.78
1310321647731.51
1286912602546.87
1273733250863.64
1266631190414.4
1262906645018.83
1260757689485.25
1258952091213.88
1256651716889.77
1253292842498.63
1248509715920.42
1242060783896.88
1233789119859.71
1223644479269.61
1211663024033.51
1197925630129.41
1182546292649.17
1165660503794.93
1147416488598.13
1127968816342.08
1107474027348.82
1086087244227.4
1063959583037.51
1041236171962.18
1018054675925.12
994544235993.467
970824754722.989
947006472128.505
923189781643.454
899465242794.117
875913750881.783
852606843595.483
829607112727.212
806968883365.841
784739159660.082
762958067425.983
741658697345.032
720867218553.961
700602084919.939
680871310710.835
661681489674.408
643041147823.761
624954855362.938
607423913636.245
590446573337.827
574018215524.239
558134020111.906
542784602410.535
527954888200.256
513633634391.476
499810369298.215
486471562912.314
473603139597.605
461190496186.114
449218822831.505
437672916915.331
426537573556.724
415791449498.089
405412913930.428
395387256420.714
385701509398.697
376343705495.343
367302392542.856
358566623191.597
350125969407.905
341970562974.855
334091136012.895
326479063169.405
319126405186.255
312025947319.419
305171221799.063
298556324662.333
292175210533.126
286016440466.49
280049714979.988
274255960584.138
268642432949.488
263219718883.329
257999391244.064
252992871161.116
248168250286.324
243503996189.017
239038490704.847
234808249400.395
230808673933.809
227086231213.682
223721224131.214
220848618577.193
218763256870.088
217904278804.717
219089979276.186
)
;

boundaryField
{
    electrode
    {
        type            driftDiffusionElectronDensity;
        seec            0.05;
        Edepend         1;
        field_emission  0;
        field_enhancement_factor 55;
        work_function   5;
        value           uniform 5.86907214482966e+16;
    }
    ground
    {
        type            driftDiffusionElectronDensity;
        seec            0.05;
        Edepend         1;
        field_emission  0;
        field_enhancement_factor 55;
        work_function   5;
        value           uniform 221283893614.979;
    }
    otherfaces
    {
        type            empty;
    }
}


// ************************************************************************* //
