/*--------------------------------*- C++ -*----------------------------------*\
| =========                 |                                                 |
| \\      /  F ield         | foam-extend: Open Source CFD                    |
|  \\    /   O peration     | Version:     4.0                                |
|   \\  /    A nd           | Web:         http://www.foam-extend.org         |
|    \\/     M anipulation  |                                                 |
\*---------------------------------------------------------------------------*/
FoamFile
{
    version     2.0;
    format      ascii;
    class       volScalarField;
    location    "3.5e-06";
    object      N_electronMean;
}
// * * * * * * * * * * * * * * * * * * * * * * * * * * * * * * * * * * * * * //

dimensions      [0 0 0 1 0 0 0];

internalField   nonuniform List<scalar> 
300
(
6.01054226187334e+16
6.01039878041284e+16
6.00998805205498e+16
6.0092554109607e+16
6.00820289784666e+16
6.00682574458652e+16
6.00512066603434e+16
6.00308558821662e+16
6.00071871008716e+16
5.99801867827724e+16
5.99498452516119e+16
5.99161563337484e+16
5.98791170801783e+16
5.9838727499234e+16
5.97949903684071e+16
5.97479110475523e+16
5.96974973219381e+16
5.964375926842e+16
5.958670912589e+16
5.95263611734335e+16
5.94627316237656e+16
5.93958385231046e+16
5.93257016551539e+16
5.92523424429125e+16
5.91757838795596e+16
5.90960504764303e+16
5.90131681605305e+16
5.89271641729211e+16
5.88380669878362e+16
5.87459062005085e+16
5.86507124583181e+16
5.8552517449946e+16
5.84513538048409e+16
5.83472549252055e+16
5.82402548685614e+16
5.81303882562357e+16
5.80176901837451e+16
5.79021961399427e+16
5.77839419178064e+16
5.76629635238308e+16
5.75392971058837e+16
5.74129788788132e+16
5.72840450329047e+16
5.71525316504149e+16
5.70184746345469e+16
5.68819096403655e+16
5.67428720109415e+16
5.66013967215849e+16
5.64575183392826e+16
5.63112709970606e+16
5.61626884036507e+16
5.60118038543656e+16
5.58586501850814e+16
5.57032596782792e+16
5.55456639243565e+16
5.53858936782805e+16
5.5223978737149e+16
5.50599478448507e+16
5.48938286197352e+16
5.4725647484321e+16
5.45554296026364e+16
5.43831988222761e+16
5.42089776094466e+16
5.40327870372947e+16
5.38546468382486e+16
5.36745753399514e+16
5.34925892920968e+16
5.33087037622775e+16
5.31229320842861e+16
5.29352858043853e+16
5.27457746261199e+16
5.25544063828773e+16
5.23611870638193e+16
5.21661207814477e+16
5.19692096718225e+16
5.17704538911007e+16
5.1569851647524e+16
5.13673991460641e+16
5.11630904505328e+16
5.0956917394009e+16
5.07488695578506e+16
5.05389341269366e+16
5.03270957490901e+16
5.01133364784713e+16
4.98976357422478e+16
4.96799703472663e+16
4.94603144057864e+16
4.92386391944054e+16
4.90149130810325e+16
4.87891015016183e+16
4.85611668922027e+16
4.83310686971037e+16
4.80987633977009e+16
4.78642043377071e+16
4.76273415569785e+16
4.73881217327256e+16
4.71464881187491e+16
4.69023804853302e+16
4.66557350591884e+16
4.64064844846768e+16
4.61545577828403e+16
4.58998802683828e+16
4.56423735295236e+16
4.5381955447412e+16
4.51185400990882e+16
4.48520376861339e+16
4.45823545077984e+16
4.43093929097313e+16
4.40330512669779e+16
4.37532239149779e+16
4.34698010622438e+16
4.31826687504494e+16
4.28917088377485e+16
4.25967990174826e+16
4.22978128049372e+16
4.19946195256642e+16
4.16870844005025e+16
4.13750685750389e+16
4.10584290269396e+16
4.07370184934577e+16
4.04106855141385e+16
4.00792745133395e+16
3.97426258691937e+16
3.94005760053932e+16
3.90529573689765e+16
3.86995983293941e+16
3.8340323207635e+16
3.79749523616756e+16
3.76033022035911e+16
3.72251852418907e+16
3.68404101832267e+16
3.64487820380749e+16
3.60501022124534e+16
3.56441686020266e+16
3.52307758169918e+16
3.48097154561987e+16
3.43807761837639e+16
3.39437437718175e+16
3.34984013273639e+16
3.30445295327115e+16
3.25819067609373e+16
3.21103092123376e+16
3.16295111410156e+16
3.11392851302027e+16
3.06394024660723e+16
3.01296334798961e+16
2.96097477350208e+16
2.9079514198157e+16
2.85387014231748e+16
2.79870778880048e+16
2.74244124835014e+16
2.68504748283537e+16
2.62650356401465e+16
2.56678672367449e+16
2.50587439149039e+16
2.44374424691656e+16
2.38037429337814e+16
2.31574293377648e+16
2.24982904723742e+16
2.18261201596033e+16
2.11407164864049e+16
2.04418743420613e+16
1.9729369208824e+16
1.90029485821416e+16
1.82623374083101e+16
1.75072415737822e+16
1.6737343795795e+16
1.59523039638476e+16
1.51517737940347e+16
1.43354388472993e+16
1.35031029543232e+16
1.26548347865375e+16
1.17911737741679e+16
1.09133721680909e+16
1.00237193035555e+16
9.12586547550756e+15
8.22506084777e+15
7.32842702199994e+15
6.44504193270474e+15
5.58568415543924e+15
4.76239538894075e+15
3.9877558296493e+15
3.27381263784037e+15
2.63094609944754e+15
2.06679994629388e+15
1.5853677905455e+15
1.18657641017212e+15
866423898735782
617577316553571
430384614008853
294071680422312
197872191887343
131921325194249
87881664113930.9
58436317745777.6
38579274862674.8
25316321261658.8
16570918056548.1
10944578460799.2
7448458975642.35
5362809693307.87
4158660987744.67
3464213770654.03
3050771989556.93
2792226070361.4
2621371331045.64
2502068142070.96
2414139449888.5
2345806270217.96
2289883622417.87
2241880818137.86
2198863484247.6
2158860226560.29
2120548109842.39
2083042999638.87
2045744147545.65
2008255403171.35
1970327002443.1
1931814876380.8
1892653599904.34
1852834624488.78
1812366029748.25
1771291674132.27
1729703836065.19
1687714623946.18
1645447923485.99
1603032454358.18
1560595697566.19
1518261316454.07
1476146605657.18
1434360801142.26
1393005296811.65
1352171616229.51
1311941763992.7
1272388672854.81
1233575610473.81
1195556302416.9
1158376416243.07
1122072658985.31
1086673947376.64
1052202560247.09
1018673747270.71
986097683149.736
954479400094.994
923819193341.135
894113066373.281
865351402782.732
837520905013.17
810605029314.102
784584857268.331
759441892124.79
735157283901.516
711710805260.235
689080809896.381
667244997344.754
646181230741.529
625867335451.329
606278641196.34
587389710611.177
569178168696.19
551622512023.352
534699947884.205
518388072014.233
502664487826.778
487507295483.069
472895509658.328
458807162774.297
445220459119.561
432115091957.797
419471487688.637
407270664242.201
395495552612.446
384130852735.531
373162802870.484
362578440260.96
352365622283.186
342512874995.487
333009197956.079
323844487222.215
315009554635.088
306495860778.558
298294389593.992
290395168182.809
282776032669.297
275413657286.635
268303573566.511
261451021594.125
254862333468.537
248543919880.508
242477607569.215
236642645265.645
231056008246.385
225750631768.335
220723075457.501
216001764045.968
211657271311.749
207800674381.174
204663764747.843
202614921188.224
202323253411.415
)
;

boundaryField
{
    electrode
    {
        type            calculated;
        value           uniform 6.01054226190703e+16;
    }
    ground
    {
        type            calculated;
        value           uniform 203536960591.294;
    }
    otherfaces
    {
        type            empty;
    }
}


// ************************************************************************* //
