/*--------------------------------*- C++ -*----------------------------------*\
| =========                 |                                                 |
| \\      /  F ield         | foam-extend: Open Source CFD                    |
|  \\    /   O peration     | Version:     4.0                                |
|   \\  /    A nd           | Web:         http://www.foam-extend.org         |
|    \\/     M anipulation  |                                                 |
\*---------------------------------------------------------------------------*/
FoamFile
{
    version     2.0;
    format      ascii;
    class       volScalarField;
    location    "3.5e-06";
    object      Phi;
}
// * * * * * * * * * * * * * * * * * * * * * * * * * * * * * * * * * * * * * //

dimensions      [0 0 0 1 0 0 0];

internalField   nonuniform List<scalar> 
300
(
699.999928616667
699.999702436617
699.999181051914
699.998391555175
699.99734424187
699.996034116957
699.994462040904
699.992628091407
699.990532121249
699.988174114971
699.985554028647
699.9826718114
699.979527410426
699.97612076627
699.972451812351
699.968520473862
699.964326666378
699.959870294485
699.955151250291
699.950169411837
699.944924641414
699.939416783774
699.933645664244
699.927611086725
699.921312831594
699.914750653489
699.907924278983
699.900833404152
699.893477692017
699.885856769881
699.877970226535
699.869817609348
699.861398421242
699.852712117525
699.843758102615
699.834535726619
699.825044281799
699.815282998887
699.805251043279
699.794947511086
699.784371425049
699.773521730312
699.762397290055
699.75099688098
699.739319188653
699.727362802697
699.715126211835
699.702607798783
699.689805834988
699.676718475209
699.663343751942
699.649679569683
699.635723699036
699.621473770651
699.606927268995
699.592081525959
699.576933714298
699.561480840888
699.545719739816
699.529647065292
699.513259284374
699.49655266952
699.479523290942
699.462167008777
699.444479465061
699.426456075509
699.40809202109
699.389382239393
699.370321415786
699.350903974355
699.331124068621
699.310975572023
699.290452068168
699.269546840837
699.248252863728
699.226562789946
699.204468941211
699.181963296791
699.15903748212
699.135682757124
699.111890004206
699.087649715894
699.062951982131
699.037786477178
699.01214244612
698.986008690948
698.959373556188
698.932224914054
698.904550149093
698.876336142291
698.847569254597
698.818235309839
698.788319576976
698.757806751648
698.726680936971
698.694925623523
698.662523668462
698.629457273702
698.595707963096
698.561256558526
698.526083154828
698.490167093465
698.453486934829
698.416020429089
698.377744485441
698.338635139644
698.298667519697
698.2578158095
698.216053210326
698.173351899927
698.129682989056
698.085016475189
698.039321193205
697.992564762735
697.944713531905
697.895732517126
697.845585338578
697.794234150981
697.741639569219
697.687760588317
697.632554497232
697.575976785857
697.517981044556
697.458518855499
697.397539674942
697.334990705541
697.270816757639
697.204960098371
697.137360287271
697.067953996898
696.996674816834
696.923453039159
696.848215423307
696.770884937872
696.691380476657
696.60961654586
696.525502918849
696.438944254478
696.349839674288
696.258082293159
696.163558696982
696.066148359113
695.965722982159
695.86214574847
695.755270491408
695.644940769535
695.530988822443
695.41323438884
695.291483365091
695.165526278633
695.035136546287
694.900068482245
694.760055009508
694.614805030652
694.464000413909
694.30729238093
694.144297524336
693.974593568954
693.797710660975
693.613130438144
693.420276936985
693.21844381617
693.0067312423
692.784112100697
692.549477353057
692.301594916815
692.039046484855
691.760116758643
691.462841602697
691.144854832739
690.803522119293
690.436121122803
690.039592377237
689.610159015756
689.143816600419
688.636708179565
688.08412297184
687.480990828099
686.822878805815
686.104512886912
685.320561031733
684.46662576867
683.537922921336
682.529660703391
681.43865496358
680.26153202144
678.995281959532
677.637856471743
676.188135132992
674.645040129636
673.007873743809
671.276556405237
669.451777971846
667.534031878005
665.524014097189
663.421552983867
661.226867780962
658.940272352392
656.560945461492
654.088190457651
651.521328686927
648.859668205002
646.103189186288
643.252204859295
640.307515996769
637.270068798998
634.140843343724
630.92074644772
627.610648101893
624.211311276739
620.723446292102
617.147652748247
613.484648698787
609.735292282564
605.900386665353
601.980643653735
597.976732960961
593.889242507521
589.718727248387
585.465667143352
581.130516621747
576.713660888849
572.21546791461
567.636240969808
562.976274713057
558.235940678564
553.415740019401
548.516114038497
543.537506121405
538.480304738186
533.344906370529
528.131655804698
522.840910811633
517.472978124707
512.028181255378
506.506791801242
500.90910088363
495.23534697359
489.48579112734
483.660641336832
477.760131191875
471.784441457055
465.733781249732
459.608381220948
453.408607763172
447.134773690725
440.787224131466
434.366249509722
427.872175184353
421.305270890556
414.665843639361
407.954143225652
401.170459399613
394.315022815147
387.388106820788
380.389923539974
373.320730499572
366.180722271867
358.970141355758
351.689165580443
344.338023572301
336.916877757163
329.425943944191
321.865370244598
314.235360723436
306.536049966664
298.767630927015
290.930225161536
283.0240148243
275.04922284946
267.00613588571
258.894968973191
250.715997967332
242.469425612002
234.155517618584
225.77446512676
217.326524252535
208.811875216494
200.230765123149
191.583363936876
182.869910197745
174.090564264997
165.245556817027
156.335039190143
147.359234739139
138.318285928766
129.212409069006
120.041737649114
110.806481224129
101.506764028476
92.142788883968
82.7146712632048
73.2226078721637
63.6667060444676
54.0471567690131
44.3640606366443
34.6176039997922
24.8078818137044
14.9350770987817
4.99928058687652
)
;

boundaryField
{
    electrode
    {
        type            fixedValue;
        value           uniform 700;
    }
    ground
    {
        type            fixedValue;
        value           uniform 0;
    }
    otherfaces
    {
        type            empty;
    }
}


// ************************************************************************* //
