/*--------------------------------*- C++ -*----------------------------------*\
| =========                 |                                                 |
| \\      /  F ield         | foam-extend: Open Source CFD                    |
|  \\    /   O peration     | Version:     4.0                                |
|   \\  /    A nd           | Web:         http://www.foam-extend.org         |
|    \\/     M anipulation  |                                                 |
\*---------------------------------------------------------------------------*/
FoamFile
{
    version     2.0;
    format      ascii;
    class       volScalarField;
    location    "3.5e-06";
    object      PhiMean;
}
// * * * * * * * * * * * * * * * * * * * * * * * * * * * * * * * * * * * * * //

dimensions      [0 0 0 1 0 0 0];

internalField   nonuniform List<scalar> 
300
(
699.979008716154
699.977044764529
699.974830312902
699.972381014259
699.969706526739
699.966799130905
699.963657147988
699.96027885354
699.956662631662
699.952807270954
699.948711788393
699.944375449865
699.939797718244
699.934978239522
699.929916825561
699.924613437281
699.91906817117
699.913281250547
699.907253014271
699.900983906234
699.894474468273
699.887725332707
699.880737215542
699.87351090958
699.866047276647
699.858347257847
699.850411856627
699.842242132928
699.833839202336
699.825204223631
699.81633838996
699.807242948869
699.797919190637
699.788368424844
699.778591976145
699.768591178817
699.758367370343
699.747921889118
699.737256067991
699.7263712266
699.715268668658
699.703949679538
699.692415516441
699.680667403928
699.668706529426
699.656534038696
699.64415103133
699.631558558044
699.618757617733
699.605749160287
699.592534087381
699.579113270097
699.565487535101
699.551657667855
699.537624386993
699.523388334838
699.508950059853
699.494310009926
699.479468526711
699.46442583838
699.449182054649
699.433737160912
699.418091011065
699.402243320048
699.386193690832
699.369941606237
699.353486389453
699.336827198638
699.319963021128
699.302892666184
699.285614757649
699.268127724547
699.250429812975
699.232519084876
699.214393386509
699.196050354836
699.177487431441
699.158701843274
699.139690590668
699.120450406386
699.100977795439
699.081268976948
699.061319868896
699.041126081956
699.020682900874
698.999985298848
698.97902791603
698.957805025171
698.936310515842
698.914537894161
698.892480259333
698.870130284257
698.847480258685
698.824522007968
698.801246868599
698.777645672098
698.753708721357
698.729425772057
698.704786003637
698.679778002455
698.654389740093
698.62860853842
698.602421033896
698.57581319344
698.548770243782
698.52127664277
698.493316059345
698.464871314421
698.435924370368
698.406456271445
698.376447089662
698.345875882948
698.314720641343
698.28295824937
698.250564433513
698.21751368666
698.183779241973
698.149333019018
698.114145518428
698.078185735448
698.041421077119
698.003817311442
697.9653384499
697.925946694196
697.885602300841
697.844263428999
697.801886009847
697.758423638698
697.713827390977
697.668045664171
697.621024001534
697.57270490583
697.523027622623
697.471927898312
697.419337737452
697.365185195345
697.309394024152
697.251883302679
697.192567084976
697.131354019008
697.068146845867
697.002841875835
696.935328420493
696.86548815434
696.793194426416
696.718311496417
696.640693564612
696.560183733334
696.47661279059
696.38979785005
696.299540913734
696.205627055392
696.107822363036
696.005871688353
695.899495815724
695.788388315448
695.672211862408
695.550593886633
695.42312137976
695.289334817582
695.148720390724
695.000700414109
694.844612322246
694.679688445939
694.505043107211
694.319651738283
694.12231853779
693.911635615544
693.685934622509
693.443229076686
693.181159361853
692.896945381527
692.587362117291
692.248629110745
691.876386480184
691.465785761319
691.011335250159
690.506957032424
689.946297765085
689.322534928142
688.628643429168
687.857767910861
687.003246438205
686.058721240844
685.018887952986
683.879123897453
682.63569791279
681.286162143356
679.829121602818
678.263893794791
676.590567695534
674.80992782942
672.923341403009
670.932482048808
668.838760817201
666.643322789179
664.347113958778
661.950691783001
659.454602823274
656.859368795475
654.16557756178
651.373897318341
648.485106061798
645.500241401902
642.420518500828
639.247072563707
635.980965115553
632.623162385518
629.17456144973
625.635970390618
622.008140108896
618.291742513558
614.487538450908
610.596397387145
606.619139086057
602.556512561827
598.409228981597
594.177937833812
589.863260821728
585.465765291499
580.985999395053
576.424463115649
571.781644764105
567.057990635416
562.25394365573
557.370011245526
552.40679655424
547.364860239331
542.244757934608
537.047005371731
531.77211744672
526.420570970329
520.992847229829
515.489395066265
509.910671819802
504.257100996884
498.52911697905
492.727120645571
486.851526478258
480.902715951264
474.881087094316
468.78700626059
462.62086348739
456.383086905811
450.074181627934
443.694606267627
437.244844521167
430.725332892966
424.13653538079
417.478867826284
410.752776086463
403.958656533765
397.096938296269
390.167999259266
383.172253069573
376.110060022473
368.981819330583
361.787874553745
354.528611335063
347.204357369727
339.815485438803
332.362308162682
324.845186205212
317.264417568251
309.620351510688
301.913277895951
294.143551097093
286.311465246302
278.417413579697
270.461744526869
262.444883691622
254.367166242408
246.229007345821
238.030727520891
229.772732169839
221.455327573609
213.078909999009
204.643771948526
196.15030112678
187.598776724203
178.989578422483
170.322972459066
161.599331054476
152.818907839662
143.982068254091
135.089053716977
126.140223448416
117.135806929721
108.0761576711
98.9614934733611
89.7921625755796
80.5683715904878
71.2904641921112
61.9586360870054
52.573226767537
43.1344216435903
33.6425568886626
24.0978080515981
14.5005091176238
4.8508265991425
)
;

boundaryField
{
    electrode
    {
        type            calculated;
        value           uniform 700.00000000062;
    }
    ground
    {
        type            calculated;
        value           uniform 0;
    }
    otherfaces
    {
        type            empty;
    }
}


// ************************************************************************* //
