/*--------------------------------*- C++ -*----------------------------------*\
| =========                 |                                                 |
| \\      /  F ield         | foam-extend: Open Source CFD                    |
|  \\    /   O peration     | Version:     4.0                                |
|   \\  /    A nd           | Web:         http://www.foam-extend.org         |
|    \\/     M anipulation  |                                                 |
\*---------------------------------------------------------------------------*/
FoamFile
{
    version     2.0;
    format      ascii;
    class       volScalarField;
    location    "3.5e-06";
    object      Sy_electron;
}
// * * * * * * * * * * * * * * * * * * * * * * * * * * * * * * * * * * * * * //

dimensions      [1 -3 -1 0 0 0 0];

internalField   nonuniform List<scalar> 
300
(
1.11222470762089e-09
1.11243057658215e-09
1.11251022753885e-09
1.11248677906238e-09
1.1124650454825e-09
1.11242698025121e-09
1.11237379767126e-09
1.11230723123202e-09
1.1122267487154e-09
1.11213240109062e-09
1.11202421107054e-09
1.11190216347381e-09
1.11176626195561e-09
1.11161651267165e-09
1.11145292469508e-09
1.11127551095634e-09
1.11108428759487e-09
1.11087927373232e-09
1.11066049120928e-09
1.11042796426797e-09
1.11018171924157e-09
1.10992178421649e-09
1.10964818867507e-09
1.10936096312611e-09
1.10906013868271e-09
1.10874574672937e-09
1.1084178184173e-09
1.10807638423789e-09
1.10772147358115e-09
1.10735311420901e-09
1.10697133173236e-09
1.10657614916325e-09
1.10616758633962e-09
1.10574565932445e-09
1.10531037984483e-09
1.10486175469117e-09
1.10439978508464e-09
1.103924466056e-09
1.10343578577519e-09
1.10293372486161e-09
1.10241825569513e-09
1.10188934169955e-09
1.1013469366002e-09
1.10079098366916e-09
1.10022141495458e-09
1.09963815048355e-09
1.09904109745308e-09
1.09843014940392e-09
1.09780518536097e-09
1.09716606899618e-09
1.0965126477189e-09
1.09584475184237e-09
1.09516219360236e-09
1.09446476629572e-09
1.09375224328852e-09
1.09302437708512e-09
1.09228089832708e-09
1.09152151483247e-09
1.09074591060067e-09
1.08995374480296e-09
1.08914465077602e-09
1.08831823498495e-09
1.08747407598199e-09
1.08661172334776e-09
1.0857306966991e-09
1.08483048462847e-09
1.08391054357064e-09
1.08297029676916e-09
1.08200913320878e-09
1.08102640654105e-09
1.08002143400766e-09
1.07899349536077e-09
1.07794183181233e-09
1.07686564496837e-09
1.07576409571942e-09
1.07463630323603e-09
1.07348134390695e-09
1.07229825026943e-09
1.07108601003048e-09
1.06984356493096e-09
1.06856980992137e-09
1.06726359201348e-09
1.06592370934853e-09
1.06454891025443e-09
1.06313789227588e-09
1.06168930131428e-09
1.06020173070917e-09
1.05867372034114e-09
1.05710375578979e-09
1.05549026756699e-09
1.05383163027623e-09
1.05212616181964e-09
1.05037212288711e-09
1.04856771603178e-09
1.04671108509076e-09
1.04480031457268e-09
1.04283342907475e-09
1.04080839273808e-09
1.03872310872913e-09
1.03657541881053e-09
1.03436310290762e-09
1.03208387871239e-09
1.02973540130237e-09
1.02731526297756e-09
1.02482099286304e-09
1.02225005674494e-09
1.01959985692977e-09
1.01686773202534e-09
1.0140509569327e-09
1.01114674272929e-09
1.00815223663819e-09
1.00506452203759e-09
1.00188061847865e-09
9.98597481747782e-10
9.95212003930269e-10
9.91721013465333e-10
9.88121275252015e-10
9.84409490798286e-10
9.80582298197893e-10
9.76636272214413e-10
9.72567924293359e-10
9.68373702627549e-10
9.64049991982066e-10
9.59593113671219e-10
9.54999325283651e-10
9.50264820338547e-10
9.45385727821375e-10
9.4035811168626e-10
9.3517796998787e-10
9.29841233963937e-10
9.24343766804202e-10
9.18681362218605e-10
9.12849742646964e-10
9.0684455712086e-10
9.00661378771754e-10
8.94295701973609e-10
8.87742938845924e-10
8.80998415344082e-10
8.74057367011098e-10
8.66914934644592e-10
8.59566160996409e-10
8.52744026264797e-10
8.46372411506647e-10
8.39788085288613e-10
8.32985158411924e-10
8.25957556300443e-10
8.18699008394006e-10
8.11203033605291e-10
8.03462922877354e-10
7.95471719000055e-10
7.8722219496933e-10
7.78706830381045e-10
7.69917775376693e-10
7.60846844800439e-10
7.5148553155959e-10
7.41824651447543e-10
7.31855564197525e-10
7.21569599266215e-10
7.10956710710163e-10
7.00028882577088e-10
6.88832978662938e-10
6.77371068526069e-10
6.65545578289151e-10
6.53255577421127e-10
6.40472863476481e-10
6.27222504839885e-10
6.13502410704919e-10
5.99262783871706e-10
5.84426605129801e-10
5.68795219590542e-10
5.52196252167501e-10
5.34736164473291e-10
5.16487939755367e-10
4.97155815606873e-10
4.79545441779613e-10
4.61758673584207e-10
4.4315844370783e-10
4.23775948342175e-10
4.04437277097049e-10
3.85632266789088e-10
3.67961580566274e-10
3.53865789052182e-10
3.45705881900947e-10
3.44423876032623e-10
3.52228864319082e-10
3.75734842137756e-10
4.13521662485612e-10
4.71021067932351e-10
5.50344589076542e-10
6.58825771605153e-10
8.18168505536873e-10
1.0522483229372e-09
1.40963031026203e-09
2.00004470512818e-09
3.03970072779825e-09
4.35887208079308e-09
5.55684962132363e-09
6.90238415135385e-09
7.47727388310496e-09
7.01995460238184e-09
5.96712206591391e-09
4.74070157627614e-09
3.67084531821865e-09
2.87952719292869e-09
2.34404743171271e-09
1.99587998788235e-09
1.77846830732357e-09
1.63638675651151e-09
1.55479895017722e-09
1.5010384501377e-09
1.47276631895273e-09
1.46046200708686e-09
1.45494086903075e-09
1.45273719996114e-09
1.45371107327255e-09
1.45593255399759e-09
1.45808065735207e-09
1.45925928998812e-09
1.45886937087165e-09
1.45652786761787e-09
1.45198500837353e-09
1.44508033567634e-09
1.43514663267347e-09
1.42223466914269e-09
1.40718005597913e-09
1.39012169752863e-09
1.37122292750439e-09
1.35066143272836e-09
1.32862190096139e-09
1.30529100778091e-09
1.2808535180597e-09
1.25548930693446e-09
1.22937107663124e-09
1.20266265680235e-09
1.1755177815297e-09
1.1480792664367e-09
1.12047852129381e-09
1.0928353414612e-09
1.0652579262689e-09
1.03784308054937e-09
1.01067657478744e-09
9.83833625865567e-10
9.57379694961286e-10
9.31371614930592e-10
9.05858111059046e-10
8.80879594321561e-10
8.56468302497343e-10
8.32647360536758e-10
8.09427299954082e-10
7.86817060987597e-10
7.64828069626331e-10
7.4346693080018e-10
7.22736359211036e-10
7.02635424484989e-10
6.8315972201753e-10
6.64304690988868e-10
6.460595697868e-10
6.28408744757512e-10
6.11339164438986e-10
5.94839389053892e-10
5.78894205944557e-10
5.63487755120032e-10
5.48603501141114e-10
5.34224628029111e-10
5.20333800295407e-10
5.06913736694776e-10
4.93939665792149e-10
4.81386423399394e-10
4.69237217294583e-10
4.57477203373972e-10
4.46092678657049e-10
4.35070500818964e-10
4.24398081845549e-10
4.14063403949587e-10
4.04055065480487e-10
3.94362326408622e-10
3.84975154230753e-10
3.75884271210915e-10
3.67081193657479e-10
3.5855825390557e-10
3.50308379975102e-10
3.42087029258545e-10
3.33788580486648e-10
3.25698762414442e-10
3.17794822729007e-10
3.10084847420664e-10
3.02579748864631e-10
2.95291012577329e-10
2.88171309908665e-10
2.80163679056245e-10
2.72310704377368e-10
2.64651016181455e-10
2.5721753053636e-10
2.48064409861302e-10
2.39141784433221e-10
2.29252204073825e-10
2.18000708239007e-10
2.04357984760875e-10
1.87365427311223e-10
1.63698959088104e-10
)
;

boundaryField
{
    electrode
    {
        type            zeroGradient;
    }
    ground
    {
        type            zeroGradient;
    }
    otherfaces
    {
        type            empty;
    }
}


// ************************************************************************* //
