/*--------------------------------*- C++ -*----------------------------------*\
| =========                 |                                                 |
| \\      /  F ield         | foam-extend: Open Source CFD                    |
|  \\    /   O peration     | Version:     4.0                                |
|   \\  /    A nd           | Web:         http://www.foam-extend.org         |
|    \\/     M anipulation  |                                                 |
\*---------------------------------------------------------------------------*/
FoamFile
{
    version     2.0;
    format      ascii;
    class       volScalarField;
    location    "3.5e-06";
    object      Te;
}
// * * * * * * * * * * * * * * * * * * * * * * * * * * * * * * * * * * * * * //

dimensions      [0 0 0 1 0 0 0];

internalField   nonuniform List<scalar> 
300
(
38937.8117959422
38938.1044708218
38938.302158915
38938.4417313195
38938.6509814128
38938.9080849591
38939.2146453207
38939.5727637041
38939.9817977751
38940.4418142321
38940.9528430065
38941.5148687416
38942.1278995324
38942.791947296
38943.5070286214
38944.2731662095
38945.090388424
38945.9587293562
38946.878228892
38947.8489327364
38948.8708924619
38949.9441655537
38951.0688154554
38952.2449116255
38953.4725295964
38954.7517510279
38956.0826637798
38957.4653619769
38958.8999460845
38960.3865229901
38961.9252060801
38963.5161153317
38965.1593774108
38966.8551257654
38968.6035007317
38970.4046496464
38972.2587269617
38974.1658943698
38976.1263209337
38978.1401832197
38980.2076654441
38982.3289596266
38984.5042657452
38986.7337919042
38989.0177545095
38991.3563784526
38993.7498973037
38996.1985535175
38998.7025986392
39001.2622935318
39003.8779086094
39006.5497240764
39009.2780301918
39012.0631275347
39014.9053272819
39017.8049515058
39020.762333482
39023.77781801
39026.8517617536
39029.9845335929
39033.1765149938
39036.4281003956
39039.7396976181
39043.111728283
39046.544628259
39050.0388481259
39053.5948536584
39057.2131263384
39060.8941638833
39064.6384808086
39068.4466090052
39072.3190983517
39076.2565173563
39080.2594538236
39084.3285155584
39088.4643310954
39092.6675504712
39096.9388460308
39101.2789132744
39105.6884717383
39110.1682659261
39114.7190662846
39119.341670226
39124.0369031975
39128.8056198121
39133.6487050255
39138.5670753844
39143.5616803296
39148.6335035694
39153.783564528
39159.0129198586
39164.3226650445
39169.7139360913
39175.1879112938
39180.7458131126
39186.3889101503
39192.118519235
39197.9360076199
39203.8427953143
39209.8403575389
39215.9302273323
39222.1139983061
39228.3933275655
39234.769938805
39241.2456255944
39247.8222548683
39254.5017706311
39261.2861978994
39268.1776469051
39275.1783175648
39282.2905042448
39289.5166008598
39296.8591063046
39304.3206302751
39311.9038994932
39319.6117643772
39327.4472062041
39335.4133447971
39343.5134467925
39351.7509345416
39360.1293957
39368.6525935819
39377.3244783486
39386.1491991105
39395.1311170501
39404.2748196447
39413.5851361389
39423.067154376
39432.726239143
39442.5680522043
39452.5985742057
39462.8241286677
39473.2514083257
39483.8875040763
39494.7399368704
39505.8166929292
39517.126262728
39528.6776843302
39540.4805918929
39552.5452707461
39564.8827222289
39577.5047419304
39590.4240059657
39603.6541324719
39617.2097631654
39631.1066820386
39645.3619444124
39659.9940202941
39675.0229567859
39690.4705633216
39706.3606258114
39722.7191547741
39739.5746575948
39756.9585054134
39774.9053943711
39793.4533115233
39812.6460212431
39832.533049543
39853.1685153688
39874.6510350393
39897.1526944182
39920.7970306171
39945.5632164024
39971.4366710766
39998.5394247488
40027.1094037642
40057.3702902627
40089.4968309934
40123.6505382935
40159.7815003398
40197.8849679408
40238.5324177609
40282.2848961193
40328.9188760317
40378.6756443896
40432.8478417826
40491.8110282296
40556.1188389512
40628.2276632483
40710.093737606
40804.1952115369
40916.0325774258
41051.7873019653
41219.1926376994
41432.4400887418
41708.3306025814
42065.9662820408
42536.8571603806
43164.6682810503
44010.5847065543
45164.2990436339
46739.1532396785
48907.8659706712
51953.3959525696
56373.2352592467
62081.8193074819
69242.4865015892
80278.4391419811
95597.1189596819
115992.892882073
143633.858644617
180164.359521606
226055.243888654
279659.298305113
337489.749726908
395618.257948062
450999.939641092
501726.789917493
547109.661540628
587151.952926618
622211.465321113
652946.722870477
679942.850503693
703739.819056382
724849.807641739
743713.736291692
760695.63017051
776098.178554188
790171.662186392
803125.616072859
815130.216881418
826319.499233711
836812.195098197
846711.860279729
856101.026981642
865048.488012503
873611.208799964
881836.204740155
889762.041039731
897420.156460779
904835.864294551
912029.182950166
919015.516607613
925806.224017888
932409.09600731
938828.759039545
945067.021729097
951123.172350995
956994.239512618
962675.21702288
968159.266972114
973437.864659563
978500.949308531
983337.224687377
987934.352973222
992278.91854261
996356.793549604
1000153.42666849
1003650.63232155
1006830.84393862
1009678.75087787
1012176.82226325
1014307.17953044
1016051.527911
1017390.51754465
1018306.41467281
1018767.24699839
1018777.6864352
1018305.37952615
1017331.43231405
1015834.87396043
1013795.3703689
1011192.24465357
1008004.74739272
1004211.65016985
999793.820384496
994728.161924941
988990.384096246
982560.236620944
975414.954526433
967531.020031193
958883.960566391
949448.438771203
939198.133708022
928105.620304246
916142.217355636
903277.816399845
889480.68719988
874717.256064422
858951.92579227
842146.906245958
824263.622421115
805265.526205101
785101.028562132
763716.487099149
741060.097551825
717063.196085229
691649.020057093
664748.812409435
636270.668764417
606101.929940646
574126.880871431
540200.664926766
504137.148594045
465716.59356741
424655.358077329
380556.092813904
332874.012080363
280807.426806622
223308.039017616
)
;

boundaryField
{
    electrode
    {
        type            electronTemperature;
        seec            0.05;
        Tse             1000;
        Edepend         1;
        TFN             1000;
        field_emission  0;
        field_enhancement_factor 55;
        work_function   5;
        value           uniform 38937.8117959422;
    }
    ground
    {
        type            electronTemperature;
        seec            0.05;
        Tse             1000;
        Edepend         1;
        TFN             1000;
        field_emission  0;
        field_enhancement_factor 55;
        work_function   5;
        value           uniform 190659.758062598;
    }
    otherfaces
    {
        type            empty;
    }
}


// ************************************************************************* //
