/*--------------------------------*- C++ -*----------------------------------*\
| =========                 |                                                 |
| \\      /  F ield         | foam-extend: Open Source CFD                    |
|  \\    /   O peration     | Version:     4.0                                |
|   \\  /    A nd           | Web:         http://www.foam-extend.org         |
|    \\/     M anipulation  |                                                 |
\*---------------------------------------------------------------------------*/
FoamFile
{
    version     2.0;
    format      ascii;
    class       volScalarField;
    location    "4.7e-06";
    object      Arp1;
}
// * * * * * * * * * * * * * * * * * * * * * * * * * * * * * * * * * * * * * //

dimensions      [0 0 0 1 0 0 0];

internalField   nonuniform List<scalar> 
300
(
6.05630203641365e+16
6.06047265706128e+16
6.05795343213516e+16
6.05747044425479e+16
6.05656045359718e+16
6.0552662123237e+16
6.05374335588398e+16
6.05192719040584e+16
6.04982727743192e+16
6.04744515102202e+16
6.04477934091902e+16
6.04183015565404e+16
6.03859752223971e+16
6.03508136226904e+16
6.03128163179542e+16
6.02719827470452e+16
6.02283123479797e+16
6.01818045393809e+16
6.01324587032745e+16
6.00802741779293e+16
6.00252502458005e+16
5.99673861221345e+16
5.9906680942861e+16
5.98431337520245e+16
5.97767434892384e+16
5.97075089790771e+16
5.96354289207074e+16
5.9560501877723e+16
5.94827262558463e+16
5.94021002446447e+16
5.93186217167287e+16
5.92322881335654e+16
5.91430967086583e+16
5.90510453019253e+16
5.8956134116185e+16
5.88583643548752e+16
5.87577236507242e+16
5.86542062821968e+16
5.85478074564985e+16
5.84385216625972e+16
5.83263429908973e+16
5.82112651748906e+16
5.80932815903442e+16
5.79723852401848e+16
5.78485687346582e+16
5.77218242715879e+16
5.75921436168869e+16
5.74595180852736e+16
5.73239385228743e+16
5.71853952904849e+16
5.70438782471294e+16
5.68993767357258e+16
5.67518795691382e+16
5.66013750169335e+16
5.64478507937004e+16
5.62912940483165e+16
5.613169135376e+16
5.59690286983297e+16
5.58032914782421e+16
5.5634464490401e+16
5.5462531927158e+16
5.5287477372074e+16
5.51092837962085e+16
5.49279335564039e+16
5.47434083946452e+16
5.45556894380603e+16
5.43647572010755e+16
5.4170591588655e+16
5.39731719003557e+16
5.37724768365315e+16
5.35684845058488e+16
5.33611724336398e+16
5.31505175725095e+16
5.29364963143065e+16
5.27190845030268e+16
5.24982574501668e+16
5.22739899512551e+16
5.20462563037491e+16
5.18150303269258e+16
5.15802853835502e+16
5.13419944026293e+16
5.11001299041665e+16
5.08546640258854e+16
5.06055685509222e+16
5.03528149376198e+16
5.00963743511557e+16
4.98362176962057e+16
4.95723156516952e+16
4.93046387072112e+16
4.90331572004834e+16
4.87578413568755e+16
4.84786613303865e+16
4.81955872458146e+16
4.79085892423614e+16
4.76176375191882e+16
4.73227023814417e+16
4.70237542880746e+16
4.67207639009408e+16
4.64137021344687e+16
4.61025402068268e+16
4.57872496921175e+16
4.54678025730269e+16
4.51441712943809e+16
4.48163288178382e+16
4.44842486765265e+16
4.41479050303378e+16
4.38072727219852e+16
4.3462327332789e+16
4.31130452386529e+16
4.27594036666052e+16
4.24013807505286e+16
4.20389555869161e+16
4.16721082906951e+16
4.13008200499755e+16
4.09250731804508e+16
4.05448511794947e+16
4.01601387789524e+16
3.97709219972501e+16
3.93771881909352e+16
3.89789261046e+16
3.8576125920271e+16
3.81687793056789e+16
3.77568794612549e+16
3.73404211663716e+16
3.69194008248525e+16
3.64938165095164e+16
3.60636680057751e+16
3.56289568555216e+16
3.518968640875e+16
3.47458618366123e+16
3.42974902209528e+16
3.38445807409771e+16
3.33871437710637e+16
3.29251936833292e+16
3.24587440800329e+16
3.19878132300958e+16
3.15124197876035e+16
3.10325875983914e+16
3.05483437396691e+16
3.00596990391265e+16
2.95666768756997e+16
2.90693937969618e+16
2.85678292841884e+16
2.80620025028572e+16
2.75519576177248e+16
2.70377381009451e+16
2.65193914449552e+16
2.59969685181528e+16
2.54705298280269e+16
2.49401345964856e+16
2.44058602557653e+16
2.38677875077761e+16
2.33259835274225e+16
2.27806233880273e+16
2.22316802485302e+16
2.1679478351775e+16
2.112406594175e+16
2.05653234886473e+16
2.0004693078252e+16
1.94395442864665e+16
1.88750469796283e+16
1.83048870625529e+16
1.77348665497541e+16
1.71772097977372e+16
1.6616976237273e+16
1.60509762377204e+16
1.54864834842181e+16
1.49217570551378e+16
1.43672567213361e+16
1.38185599714995e+16
1.32798737683187e+16
1.2754320088407e+16
1.22223454852812e+16
1.16856664519763e+16
1.119926046426e+16
1.07241716192892e+16
1.02101098161157e+16
9.76355284718357e+15
9.35441254016638e+15
8.88449733004131e+15
8.5017307125535e+15
8.14979369165279e+15
7.75445986784172e+15
7.432237570842e+15
7.15214538030629e+15
6.82837057001665e+15
6.56137924185842e+15
6.34286275618578e+15
6.10821842872002e+15
5.89138997604957e+15
5.70883927294106e+15
5.56688446669784e+15
5.40013291467107e+15
5.25880553672048e+15
5.13420708961486e+15
5.04904020416878e+15
4.97853993331009e+15
4.92592751788871e+15
4.87919037522824e+15
4.88130305374346e+15
4.89464166251987e+15
4.92262491290696e+15
4.9472763055154e+15
4.93832905816784e+15
4.91097125901153e+15
4.86474316737832e+15
4.81601003486159e+15
4.76642120553775e+15
4.71998938609214e+15
4.67606897367067e+15
4.63709995493956e+15
4.60170366250667e+15
4.55773636965696e+15
4.50823806109498e+15
4.4639825275168e+15
4.42261635609124e+15
4.38598681095617e+15
4.3516996709129e+15
4.32171352722783e+15
4.29353599707076e+15
4.26926085121602e+15
4.24633632497312e+15
4.22696709592667e+15
4.20852898395032e+15
4.18875350600469e+15
4.15915704318996e+15
4.13295315046923e+15
4.10676075348892e+15
4.0837100495757e+15
4.06042246420876e+15
4.04004451642255e+15
4.01921242655165e+15
4.00112299796558e+15
3.98242180918452e+15
3.966386100213e+15
3.94962180026084e+15
3.93550711562147e+15
3.92047344157767e+15
3.90813931259542e+15
3.8945653795672e+15
3.8838577297508e+15
3.87151982227164e+15
3.85290578541742e+15
3.83220228883247e+15
3.81453680663527e+15
3.79503177686626e+15
3.77866248539017e+15
3.76028100509243e+15
3.74510400327638e+15
3.72775306992037e+15
3.71363574768336e+15
3.69723705253036e+15
3.68408978577932e+15
3.66856143912754e+15
3.65637030278564e+15
3.64168556034663e+15
3.63042570608806e+15
3.61660329035278e+15
3.60627276257776e+15
3.59325606664683e+15
3.58382228844503e+15
3.5715649521233e+15
3.56295713324032e+15
3.55137432078628e+15
3.54352801059201e+15
3.53256557456364e+15
3.52315482971281e+15
3.50664755751811e+15
3.49398806637631e+15
3.47807929048229e+15
3.46609103017208e+15
3.4507357889218e+15
3.43938057697282e+15
3.4245509044681e+15
3.41381742330746e+15
3.39949698406525e+15
3.38936242744456e+15
3.37553022997086e+15
3.36598023588653e+15
3.35261477656732e+15
3.34362030115526e+15
3.33067284488039e+15
3.32218574676076e+15
3.3096061918952e+15
3.30159414008816e+15
3.28935501285512e+15
3.28179155211423e+15
3.26986789992159e+15
3.26272900799182e+15
3.25111660013301e+15
3.24439841715654e+15
3.23309459266053e+15
3.22680228389539e+15
3.21581137743372e+15
3.20992340461435e+15
3.19920173084277e+15
3.19369704587806e+15
3.18319012632117e+15
3.17799161485583e+15
3.16507200105714e+15
)
;

boundaryField
{
    electrode
    {
        type            driftDiffusionPositiveIonDensity;
        seec            0;
        fieldName       Arp1;
        value           uniform 6.0386655951506e+16;
    }
    ground
    {
        type            driftDiffusionPositiveIonDensity;
        seec            0;
        fieldName       Arp1;
        value           uniform 3.16507200105714e+15;
    }
    otherfaces
    {
        type            empty;
    }
}


// ************************************************************************* //
