/*--------------------------------*- C++ -*----------------------------------*\
| =========                 |                                                 |
| \\      /  F ield         | foam-extend: Open Source CFD                    |
|  \\    /   O peration     | Version:     4.0                                |
|   \\  /    A nd           | Web:         http://www.foam-extend.org         |
|    \\/     M anipulation  |                                                 |
\*---------------------------------------------------------------------------*/
FoamFile
{
    version     2.0;
    format      ascii;
    class       volVectorField;
    location    "4.7e-06";
    object      E;
}
// * * * * * * * * * * * * * * * * * * * * * * * * * * * * * * * * * * * * * //

dimensions      [0 0 0 1 0 0 0];

internalField   nonuniform List<vector> 
300
(
(5.48422631474477 -0 -0)
(10.8487160838111 -0 -0)
(19.1625811135632 -0 -0)
(26.8381615597949 -0 -0)
(34.4633186447056 -0 -0)
(42.1540691269988 -0 -0)
(49.8340340493458 -0 -0)
(57.5245410014402 -0 -0)
(65.2257693398169 -0 -0)
(72.9374342672847 -0 -0)
(80.6611554632337 -0 -0)
(88.3979272406363 -0 -0)
(96.1488456061042 -0 -0)
(103.91505867041 -0 -0)
(111.697728262529 -0 -0)
(119.49805120426 -0 -0)
(127.317258152845 -0 -0)
(135.156615595213 -0 -0)
(143.017428533289 -0 -0)
(150.90104261983 -0 -0)
(158.808846431603 -0 -0)
(166.742273705058 -0 -0)
(174.70280547632 -0 -0)
(182.691972341888 -0 -0)
(190.711356856668 -0 -0)
(198.76259637341 -0 -0)
(206.847386456656 -0 -0)
(214.967483926079 -0 -0)
(223.124706294481 -0 -0)
(231.320921509351 -0 -0)
(239.55802464645 -0 -0)
(247.837917779997 -0 -0)
(256.162560068077 -0 -0)
(264.534212672557 -0 -0)
(272.955914595808 -0 -0)
(281.431613392864 -0 -0)
(289.965006605748 -0 -0)
(298.558875551297 -0 -0)
(307.215709854956 -0 -0)
(315.938040650086 -0 -0)
(324.728496013605 -0 -0)
(333.589814001424 -0 -0)
(342.524847805925 -0 -0)
(351.536567455499 -0 -0)
(360.628060551461 -0 -0)
(369.802532854164 -0 -0)
(379.063308858431 -0 -0)
(388.413832526395 -0 -0)
(397.857668164899 -0 -0)
(407.398501429875 -0 -0)
(417.040140558754 -0 -0)
(426.786517697438 -0 -0)
(436.641690396057 -0 -0)
(446.609843257662 -0 -0)
(456.6952897606 -0 -0)
(466.902474108208 -0 -0)
(477.235973352132 -0 -0)
(487.700499531056 -0 -0)
(498.30090199089 -0 -0)
(509.042169820389 -0 -0)
(519.929434460215 -0 -0)
(530.967972347977 -0 -0)
(542.163207745199 -0 -0)
(553.520715800058 -0 -0)
(565.046225583951 -0 -0)
(576.745623388831 -0 -0)
(588.624956231255 -0 -0)
(600.690435363528 -0 -0)
(612.94844016241 -0 -0)
(625.405522115877 -0 -0)
(638.068409054711 -0 -0)
(650.944009569848 -0 -0)
(664.03941777766 -0 -0)
(677.361918280247 -0 -0)
(690.918991452864 -0 -0)
(704.718319029306 -0 -0)
(718.76779008232 -0 -0)
(733.075507314342 -0 -0)
(747.649793837807 -0 -0)
(762.499200312859 -0 -0)
(777.632512603906 -0 -0)
(793.058759983392 -0 -0)
(808.787223851977 -0 -0)
(824.827447039403 -0 -0)
(841.189243873468 -0 -0)
(857.88271084446 -0 -0)
(874.91823808776 -0 -0)
(892.30652173403 -0 -0)
(910.058577055322 -0 -0)
(928.18575273277 -0 -0)
(946.699746062858 -0 -0)
(965.612619355051 -0 -0)
(984.936817534461 -0 -0)
(1004.68518718654 -0 -0)
(1024.87099687667 -0 -0)
(1045.50795920765 -0 -0)
(1066.61025448135 -0 -0)
(1088.19255625175 -0 -0)
(1110.27005886566 -0 -0)
(1132.85850714001 -0 -0)
(1155.97422846425 -0 -0)
(1179.63416741847 -0 -0)
(1203.85592314876 -0 -0)
(1228.65778982132 -0 -0)
(1254.05880030417 -0 -0)
(1280.07877346776 -0 -0)
(1306.73836537647 -0 -0)
(1334.05912467756 -0 -0)
(1362.06355271242 -0 -0)
(1390.77516858016 -0 -0)
(1420.21857983967 -0 -0)
(1450.41955913628 -0 -0)
(1481.40512757602 -0 -0)
(1513.20364523714 -0 -0)
(1545.84490970349 -0 -0)
(1579.36026337038 -0 -0)
(1613.78271023877 -0 -0)
(1649.14704342976 -0 -0)
(1685.48998425688 -0 -0)
(1722.85033421277 -0 -0)
(1761.26914122768 -0 -0)
(1800.78988150747 -0 -0)
(1841.4586589828 -0 -0)
(1883.32442403344 -0 -0)
(1926.43921374208 -0 -0)
(1970.85841609651 -0 -0)
(2016.64106085092 -0 -0)
(2063.85014036263 -0 -0)
(2112.55296403306 -0 -0)
(2162.821547966 -0 -0)
(2214.73305199404 -0 -0)
(2268.37026533635 -0 -0)
(2323.82209889886 -0 -0)
(2381.18428096908 -0 -0)
(2440.55992373897 -0 -0)
(2502.06021325824 -0 -0)
(2565.80534211213 -0 -0)
(2631.92567494687 -0 -0)
(2700.56280074234 -0 -0)
(2771.86843551741 -0 -0)
(2846.00742581933 -0 -0)
(2923.17148129805 -0 -0)
(3003.57407561702 -0 -0)
(3087.43816674374 -0 -0)
(3175.00355561275 -0 -0)
(3266.5336346362 -0 -0)
(3362.31844085717 -0 -0)
(3462.67780307362 -0 -0)
(3567.96540127925 -0 -0)
(3678.57282125329 -0 -0)
(3794.93520872063 -0 -0)
(3917.53725474315 -0 -0)
(4046.91812132717 -0 -0)
(4183.68616889778 -0 -0)
(4328.51551193158 -0 -0)
(4482.17370516053 -0 -0)
(4645.52895443793 -0 -0)
(4819.53088261923 -0 -0)
(5005.3539524147 -0 -0)
(5204.15132712672 -0 -0)
(5417.52325253665 -0 -0)
(5647.06149004309 -0 -0)
(5894.99511181789 -0 -0)
(6166.86656112761 -0 -0)
(6467.98874027953 -0 -0)
(6800.6609801974 -0 -0)
(7167.72935840098 -0 -0)
(7573.75732690031 -0 -0)
(8025.71055490917 -0 -0)
(8532.33628978324 -0 -0)
(9103.08240719484 -0 -0)
(9748.54216976689 -0 -0)
(10475.7590035607 -0 -0)
(11288.9801854127 -0 -0)
(12203.9652210177 -0 -0)
(13238.6811486487 -0 -0)
(14392.3357186605 -0 -0)
(15674.685307872 -0 -0)
(17109.3495672219 -0 -0)
(18690.6427328689 -0 -0)
(20420.7322896452 -0 -0)
(22318.9426686865 -0 -0)
(24371.542880242 -0 -0)
(26570.3860497859 -0 -0)
(28924.7091771707 -0 -0)
(31411.298467907 -0 -0)
(34007.251178821 -0 -0)
(36712.2352699567 -0 -0)
(39505.6569897608 -0 -0)
(42357.825762305 -0 -0)
(45253.6266892569 -0 -0)
(48187.7096931249 -0 -0)
(51139.6672930955 -0 -0)
(54086.3725477941 -0 -0)
(57021.8213045735 -0 -0)
(59945.6958919454 -0 -0)
(62864.0759898 -0 -0)
(65778.2671766247 -0 -0)
(68680.3520675881 -0 -0)
(71583.7333201265 -0 -0)
(74507.7265763859 -0 -0)
(77452.9308922643 -0 -0)
(80418.7878278827 -0 -0)
(83393.3656588412 -0 -0)
(86359.5827750935 -0 -0)
(89305.2446733947 -0 -0)
(92223.1875054154 -0 -0)
(95111.9202624345 -0 -0)
(97971.9110078122 -0 -0)
(100804.768952706 -0 -0)
(103612.693744733 -0 -0)
(106398.232848364 -0 -0)
(109159.862093058 -0 -0)
(111893.318008352 -0 -0)
(114598.508709539 -0 -0)
(117277.88257022 -0 -0)
(119933.737705544 -0 -0)
(122568.206353708 -0 -0)
(125183.289559514 -0 -0)
(127780.831043825 -0 -0)
(130362.554527519 -0 -0)
(132930.044203953 -0 -0)
(135484.780483244 -0 -0)
(138028.117659497 -0 -0)
(140559.934215411 -0 -0)
(143076.866108859 -0 -0)
(145576.975618359 -0 -0)
(148061.290305608 -0 -0)
(150530.762039264 -0 -0)
(152986.267715816 -0 -0)
(155428.61417572 -0 -0)
(157858.542646256 -0 -0)
(160276.743907508 -0 -0)
(162683.861103357 -0 -0)
(165080.514014944 -0 -0)
(167467.287101057 -0 -0)
(169844.759986799 -0 -0)
(172213.454798764 -0 -0)
(174573.908692841 -0 -0)
(176926.561992338 -0 -0)
(179271.905277587 -0 -0)
(181610.31123934 -0 -0)
(183939.395386859 -0 -0)
(186256.63476954 -0 -0)
(188562.315193678 -0 -0)
(190856.797920701 -0 -0)
(193140.473692516 -0 -0)
(195413.681121073 -0 -0)
(197676.779536686 -0 -0)
(199930.07949134 -0 -0)
(202173.900291031 -0 -0)
(204408.528836603 -0 -0)
(206634.257390915 -0 -0)
(208851.348120776 -0 -0)
(211060.089049227 -0 -0)
(213260.734408476 -0 -0)
(215453.564524752 -0 -0)
(217638.839192662 -0 -0)
(219816.838557187 -0 -0)
(221987.805160187 -0 -0)
(224152.009212476 -0 -0)
(226309.679450503 -0 -0)
(228461.064715955 -0 -0)
(230606.36818216 -0 -0)
(232745.819256819 -0 -0)
(234879.604791801 -0 -0)
(237007.252715256 -0 -0)
(239127.09053235 -0 -0)
(241238.138291575 -0 -0)
(243340.576317532 -0 -0)
(245434.606797346 -0 -0)
(247520.396467171 -0 -0)
(249598.136083179 -0 -0)
(251667.983954681 -0 -0)
(253730.127404613 -0 -0)
(255784.71983959 -0 -0)
(257831.94171755 -0 -0)
(259871.940122188 -0 -0)
(261904.891190829 -0 -0)
(263930.935535969 -0 -0)
(265950.240567673 -0 -0)
(267962.932198406 -0 -0)
(269969.163285589 -0 -0)
(271969.044703124 -0 -0)
(273962.719586928 -0 -0)
(275950.290454783 -0 -0)
(277931.892544304 -0 -0)
(279907.620880608 -0 -0)
(281877.603317258 -0 -0)
(283841.933626893 -0 -0)
(285800.738600021 -0 -0)
(287754.111081771 -0 -0)
(289702.179379592 -0 -0)
(291645.037766878 -0 -0)
(293582.80787366 -0 -0)
(295515.570655254 -0 -0)
(297443.440882721 -0 -0)
(299366.482743815 -0 -0)
(301284.792897341 -0 -0)
(303197.640930371 -0 -0)
)
;

boundaryField
{
    electrode
    {
        type            calculated;
        value           uniform (4.53017697509495 -0 -0);
    }
    ground
    {
        type            calculated;
        value           uniform (304152.115596556 -0 -0);
    }
    otherfaces
    {
        type            empty;
    }
}


// ************************************************************************* //
