/*--------------------------------*- C++ -*----------------------------------*\
| =========                 |                                                 |
| \\      /  F ield         | foam-extend: Open Source CFD                    |
|  \\    /   O peration     | Version:     4.0                                |
|   \\  /    A nd           | Web:         http://www.foam-extend.org         |
|    \\/     M anipulation  |                                                 |
\*---------------------------------------------------------------------------*/
FoamFile
{
    version     2.0;
    format      ascii;
    class       volScalarField;
    location    "4.7e-06";
    object      electron;
}
// * * * * * * * * * * * * * * * * * * * * * * * * * * * * * * * * * * * * * //

dimensions      [0 0 0 1 0 0 0];

internalField   nonuniform List<scalar> 
300
(
6.05746026095786e+16
6.05730887615524e+16
6.05690835578416e+16
6.05622128859339e+16
6.05525344889866e+16
6.0540026513674e+16
6.05246849336035e+16
6.0506510589801e+16
6.04855022014961e+16
6.04616591355597e+16
6.04349807899722e+16
6.04054665414178e+16
6.03731157970576e+16
6.03379279684274e+16
6.02999024654048e+16
6.02590386888161e+16
6.02153360210966e+16
6.0168793816944e+16
6.01194113933269e+16
6.00671880189503e+16
6.00121229032257e+16
5.99542151847551e+16
5.9893463919366e+16
5.98298680677113e+16
5.97634264824074e+16
5.96941378946463e+16
5.96220009001867e+16
5.95470139448303e+16
5.94691753101924e+16
5.93884831018635e+16
5.9304935242793e+16
5.92185294712716e+16
5.91292633290389e+16
5.90371340991328e+16
5.89421386396257e+16
5.8844273136137e+16
5.87435330113218e+16
5.86399131119735e+16
5.85334079102443e+16
5.84240115662707e+16
5.8311717929862e+16
5.81965205245412e+16
5.80784125262982e+16
5.79573867412937e+16
5.78334355839323e+16
5.7706551055756e+16
5.75767247252994e+16
5.74439477089502e+16
5.73082106528158e+16
5.71695037155975e+16
5.70278165524633e+16
5.68831382999136e+16
5.67354575616442e+16
5.65847623954101e+16
5.64310403008865e+16
5.62742782085515e+16
5.61144624695986e+16
5.59515788468916e+16
5.57856125069915e+16
5.56165480132719e+16
5.54443693201435e+16
5.52690597684209e+16
5.50906020818671e+16
5.49089783649256e+16
5.472417010168e+16
5.45361581560824e+16
5.43449227734604e+16
5.41504435833512e+16
5.39526996036892e+16
5.37516692463665e+16
5.35473303242043e+16
5.33396600593662e+16
5.31286350932318e+16
5.29142314977546e+16
5.26964247883321e+16
5.24751899382058e+16
5.22505013944083e+16
5.20223330952721e+16
5.17906584895124e+16
5.1555450556891e+16
5.13166818304744e+16
5.1074324420477e+16
5.0828350039692e+16
5.05787300305102e+16
5.03254353935075e+16
5.00684368175866e+16
4.98077047116616e+16
4.95432092378506e+16
4.92749203461549e+16
4.90028078105858e+16
4.87268412666935e+16
4.84469902504603e+16
4.8163224238503e+16
4.7875512689517e+16
4.75838250869048e+16
4.72881309825179e+16
4.69884000414238e+16
4.66846020876189e+16
4.63767071505875e+16
4.60646855126127e+16
4.5748507756724e+16
4.54281448151633e+16
4.51035680182492e+16
4.47747491435029e+16
4.44416604648936e+16
4.41042748020539e+16
4.3762565569303e+16
4.34165068243149e+16
4.30660733162503e+16
4.27112405331674e+16
4.2351984748518e+16
4.19882830665229e+16
4.16201134662144e+16
4.1247454843922e+16
4.08702870539726e+16
4.04885909473556e+16
4.01023484081109e+16
3.97115423871761e+16
3.93161569334183e+16
3.89161772215778e+16
3.8511589576821e+16
3.81023814956151e+16
3.76885416626101e+16
3.72700599631984e+16
3.68469274914262e+16
3.64191365529104e+16
3.59866806624084e+16
3.55495545356692e+16
3.51077540751494e+16
3.46612763493235e+16
3.42101195651222e+16
3.37542830320386e+16
3.3293767121761e+16
3.28285732147971e+16
3.23587036379572e+16
3.18841616037611e+16
3.14049511338355e+16
3.09210769514618e+16
3.04325443459849e+16
2.99393591518321e+16
2.94415277335902e+16
2.89390559760144e+16
2.84319479695784e+16
2.79202062773344e+16
2.7403832790481e+16
2.6882828884133e+16
2.63571952510816e+16
2.58269316872971e+16
2.52920368453918e+16
2.47525079817186e+16
2.42083406896912e+16
2.36595285736041e+16
2.3106063062332e+16
2.25479329290232e+16
2.19851241659181e+16
2.14176197879067e+16
2.08453987883247e+16
2.02684378485256e+16
1.96867076094965e+16
1.91001766990192e+16
1.85088064559978e+16
1.79125421354923e+16
1.73113034229901e+16
1.67048506596944e+16
1.6092719285102e+16
1.54744226496764e+16
1.48495977028076e+16
1.42179669037701e+16
1.35792565591325e+16
1.29331438926841e+16
1.22793030093626e+16
1.16174956384805e+16
1.0947781351943e+16
1.02707545729262e+16
9.58748396659728e+15
8.89936935133024e+15
8.20861654728687e+15
7.51844597293755e+15
6.83261413800597e+15
6.15570563629192e+15
5.49331314919839e+15
4.85139702402251e+15
4.23623746481944e+15
3.65431529037449e+15
3.11157935591857e+15
2.61316743565925e+15
2.16318238857999e+15
1.76416582291756e+15
1.41693890325743e+15
1.12069823697933e+15
873068939718077
670325469054482
507503856956810
379313401360582
280416644424811
205472956015416
149398024086582
106819598697870
74505797497437.4
51061214115280.8
34166565178693.4
21957683042447.9
13594760111231.5
8293354720409.55
5175127939524.81
3425814756540.27
2455314951217.41
1908972464786.67
1593741553719.22
1407508838280.92
1296004880641.52
1229214521800.39
1189826457602.07
1167549420882.39
1155872796991.88
1150551660392.25
1148764258693.7
1148600459255.59
1148890767492.11
1148853188694.85
1147847213290.37
1145446928292.7
1141431544173.86
1135685691018.01
1128174381244.3
1118920212920.22
1107988760979.39
1095475332746.74
1081495232934.84
1066176902179.32
1049656564939.29
1032074055551.92
1013569530702.97
994280894415.111
974341797691.358
953880115019.092
933016813790.391
911865158993.663
890530192616.36
869108418434.958
847687768762.1
826347133198.47
805157878850.201
784174469954.148
763445215047.592
743021919193.472
722949541505.536
703266535269.237
684004766617.033
665190046581.232
646842642242.672
628977811608.646
611606328757.656
594735029538.152
578367478387.508
562505404944.832
547144945365.282
532277605958.126
517897536055.498
503998215344.793
490569911367.9
477601858652.658
465082348269.583
452999053549.124
441339216017.903
430089803345.727
419237741688.783
408769758161.919
398672787092.906
388925355920.247
379505540126.137
370400719043.449
361600167091.614
353094130048.765
344873386324.263
336929237619.766
329253534294.35
321838727601.701
314677930240.487
307764953101.483
301094379799.196
294660988487.403
288459557640.447
282471092443.188
276665803587.848
271034686443.52
265588044780.197
260338812761.011
255300685013.075
250461921847.397
245796142157.688
241318277086.641
237081157600.246
233080923554.344
229343614764.096
225964997624.909
223082729038.981
220975665572.771
220095319311.212
221263104412.651
)
;

boundaryField
{
    electrode
    {
        type            driftDiffusionElectronDensity;
        seec            0.05;
        Edepend         1;
        field_emission  0;
        field_enhancement_factor 55;
        work_function   5;
        value           uniform 6.05746026095786e+16;
    }
    ground
    {
        type            driftDiffusionElectronDensity;
        seec            0.05;
        Edepend         1;
        field_emission  0;
        field_enhancement_factor 55;
        work_function   5;
        value           uniform 223450657286.756;
    }
    otherfaces
    {
        type            empty;
    }
}


// ************************************************************************* //
