/*--------------------------------*- C++ -*----------------------------------*\
| =========                 |                                                 |
| \\      /  F ield         | foam-extend: Open Source CFD                    |
|  \\    /   O peration     | Version:     4.0                                |
|   \\  /    A nd           | Web:         http://www.foam-extend.org         |
|    \\/     M anipulation  |                                                 |
\*---------------------------------------------------------------------------*/
FoamFile
{
    version     2.0;
    format      ascii;
    class       volVectorField;
    location    "4.7e-06";
    object      J_electron;
}
// * * * * * * * * * * * * * * * * * * * * * * * * * * * * * * * * * * * * * //

dimensions      [1 -1 -1 0 0 0 0];

internalField   nonuniform List<vector> 
300
(
(-1.27803022685654e+19 0 0)
(-1.31115649198464e+19 0 0)
(-1.54804675395198e+19 0 0)
(-1.50174924223268e+19 0 0)
(-1.50181542736489e+19 0 0)
(-1.50062806387354e+19 0 0)
(-1.49469493722588e+19 0 0)
(-1.49027109574141e+19 0 0)
(-1.48562072107142e+19 0 0)
(-1.48091180801491e+19 0 0)
(-1.47623756590035e+19 0 0)
(-1.47155306742589e+19 0 0)
(-1.46686717530909e+19 0 0)
(-1.46218029423543e+19 0 0)
(-1.45749133798737e+19 0 0)
(-1.45280041452326e+19 0 0)
(-1.4481073023726e+19 0 0)
(-1.44341178403536e+19 0 0)
(-1.43871365163574e+19 0 0)
(-1.43401267276001e+19 0 0)
(-1.42930860498605e+19 0 0)
(-1.42460119706517e+19 0 0)
(-1.41989017076198e+19 0 0)
(-1.41517522049077e+19 0 0)
(-1.41045599415857e+19 0 0)
(-1.40573209609766e+19 0 0)
(-1.40100317717154e+19 0 0)
(-1.39626917140723e+19 0 0)
(-1.39153065523815e+19 0 0)
(-1.38678883275426e+19 0 0)
(-1.38204395892216e+19 0 0)
(-1.37729048414705e+19 0 0)
(-1.37250984868605e+19 0 0)
(-1.36767132939154e+19 0 0)
(-1.36276664928502e+19 0 0)
(-1.35787538097061e+19 0 0)
(-1.35304322524413e+19 0 0)
(-1.34822787779074e+19 0 0)
(-1.34340696538048e+19 0 0)
(-1.33857379032988e+19 0 0)
(-1.33372585625585e+19 0 0)
(-1.32886207882514e+19 0 0)
(-1.32398182894824e+19 0 0)
(-1.31908460064176e+19 0 0)
(-1.31416989689272e+19 0 0)
(-1.3092372043264e+19 0 0)
(-1.30428597759448e+19 0 0)
(-1.29931564073746e+19 0 0)
(-1.29432558860097e+19 0 0)
(-1.28931518114879e+19 0 0)
(-1.28428375813687e+19 0 0)
(-1.27923063209145e+19 0 0)
(-1.27415509276266e+19 0 0)
(-1.26905640854149e+19 0 0)
(-1.2639338391971e+19 0 0)
(-1.25878661930604e+19 0 0)
(-1.25361398022967e+19 0 0)
(-1.24841513924839e+19 0 0)
(-1.24318930765142e+19 0 0)
(-1.23793568771961e+19 0 0)
(-1.23265348723857e+19 0 0)
(-1.22734190977588e+19 0 0)
(-1.22200015204285e+19 0 0)
(-1.21662742873975e+19 0 0)
(-1.21122295256549e+19 0 0)
(-1.2057859403916e+19 0 0)
(-1.20031563135097e+19 0 0)
(-1.19481126341425e+19 0 0)
(-1.18927209608509e+19 0 0)
(-1.18369740175733e+19 0 0)
(-1.17808647618143e+19 0 0)
(-1.17243862784795e+19 0 0)
(-1.16675319229629e+19 0 0)
(-1.16102952759735e+19 0 0)
(-1.15526701894069e+19 0 0)
(-1.14946507580213e+19 0 0)
(-1.14362314248206e+19 0 0)
(-1.13774068819855e+19 0 0)
(-1.13181722097264e+19 0 0)
(-1.12585228102447e+19 0 0)
(-1.11984544362083e+19 0 0)
(-1.11379632434027e+19 0 0)
(-1.10770457977086e+19 0 0)
(-1.1015698999348e+19 0 0)
(-1.09539202434295e+19 0 0)
(-1.08917073313121e+19 0 0)
(-1.08290584819642e+19 0 0)
(-1.07659724287115e+19 0 0)
(-1.07024482706585e+19 0 0)
(-1.06384856528406e+19 0 0)
(-1.05740846514868e+19 0 0)
(-1.05092458379949e+19 0 0)
(-1.04439701901353e+19 0 0)
(-1.03782592694898e+19 0 0)
(-1.03121149932989e+19 0 0)
(-1.02455398058793e+19 0 0)
(-1.01785365700202e+19 0 0)
(-1.01111085961063e+19 0 0)
(-1.00432596416348e+19 0 0)
(-9.97499381897075e+18 0 0)
(-9.90631565162027e+18 0 0)
(-9.83723004153981e+18 0 0)
(-9.76774217719349e+18 0 0)
(-9.69785757944408e+18 0 0)
(-9.62758199727253e+18 0 0)
(-9.55692138883606e+18 0 0)
(-9.48588191307216e+18 0 0)
(-9.41446978801867e+18 0 0)
(-9.34269133364868e+18 0 0)
(-9.27055278337635e+18 0 0)
(-9.19806036634606e+18 0 0)
(-9.12522005714515e+18 0 0)
(-9.05203763302472e+18 0 0)
(-8.97851848341324e+18 0 0)
(-8.90466751129951e+18 0 0)
(-8.83048911052787e+18 0 0)
(-8.75598688700596e+18 0 0)
(-8.68116364544023e+18 0 0)
(-8.60602117129188e+18 0 0)
(-8.53056005776448e+18 0 0)
(-8.45477962777625e+18 0 0)
(-8.37867756231328e+18 0 0)
(-8.30224980645668e+18 0 0)
(-8.22549029001416e+18 0 0)
(-8.14839066714387e+18 0 0)
(-8.0709400357655e+18 0 0)
(-7.99312458476998e+18 0 0)
(-7.91492711433005e+18 0 0)
(-7.83632751140484e+18 0 0)
(-7.75730063105694e+18 0 0)
(-7.67781296613884e+18 0 0)
(-7.59784943324286e+18 0 0)
(-7.51732914575796e+18 0 0)
(-7.43624384804133e+18 0 0)
(-7.35455344493802e+18 0 0)
(-7.27215508930796e+18 0 0)
(-7.18892496277052e+18 0 0)
(-7.10475465195939e+18 0 0)
(-7.02015686673433e+18 0 0)
(-6.9345238471719e+18 0 0)
(-6.84373027794924e+18 0 0)
(-6.75017227543773e+18 0 0)
(-6.65835590639734e+18 0 0)
(-6.56625921324063e+18 0 0)
(-6.47243858833782e+18 0 0)
(-6.37651896038851e+18 0 0)
(-6.27825538360358e+18 0 0)
(-6.17728661155794e+18 0 0)
(-6.07341196529264e+18 0 0)
(-5.96615970474689e+18 0 0)
(-5.85502053528135e+18 0 0)
(-5.74032182449485e+18 0 0)
(-5.61947437322312e+18 0 0)
(-5.49553174918935e+18 0 0)
(-5.36395073454604e+18 0 0)
(-5.22383299280739e+18 0 0)
(-5.08685616235309e+18 0 0)
(-4.91502975067147e+18 0 0)
(-4.7779737274155e+18 0 0)
(-4.56330793262357e+18 0 0)
(-4.35999938139233e+18 0 0)
(-4.07318563853749e+18 0 0)
(-3.22007417290752e+18 0 0)
(-2.54798690803882e+18 0 0)
(-2.533233479448e+18 0 0)
(-2.47500039358251e+18 0 0)
(-2.22457758021897e+18 0 0)
(-1.70661939327271e+18 0 0)
(-1.08856348989561e+18 0 0)
(-6.19837664633291e+17 0 0)
(-2.38874678649684e+17 0 0)
(-5.26392438489612e+17 0 0)
(-1.06739457414031e+18 0 0)
(-9.31552049071391e+17 0 0)
(-6.02148196418847e+17 0 0)
(-2.33082812159335e+18 0 0)
(-2.9708858498262e+18 0 0)
(-2.46048368054134e+18 0 0)
(-4.19480897544362e+18 0 0)
(-4.79158881899197e+18 0 0)
(-3.9157529964603e+18 0 0)
(-4.43490380734477e+18 0 0)
(-3.72844561925512e+18 0 0)
(-1.66355174722476e+18 0 0)
(-2.5849312403574e+17 0 0)
(1.85579442576871e+18 0 0)
(4.7297505788271e+18 0 0)
(6.97401884513717e+18 0 0)
(8.78871067264759e+18 0 0)
(1.0283469132262e+19 0 0)
(1.09218026823761e+19 0 0)
(1.18786009361204e+19 0 0)
(9.45820441579028e+18 0 0)
(8.67296019877619e+18 0 0)
(6.86259481978877e+18 0 0)
(5.51291787268135e+18 0 0)
(6.76591597004823e+18 0 0)
(-7.88428089305727e+17 0 0)
(-1.46401099406731e+18 0 0)
(8.21527876575691e+17 0 0)
(-2.03170596029888e+18 0 0)
(-2.36451721217032e+18 0 0)
(-2.26889745182182e+18 0 0)
(-2.24672080089661e+18 0 0)
(-2.40206891770336e+18 0 0)
(-2.6401673614533e+18 0 0)
(-2.83910765355258e+18 0 0)
(-2.95224908539612e+18 0 0)
(-2.99824783313721e+18 0 0)
(-3.00767673469188e+18 0 0)
(-2.98748701683762e+18 0 0)
(-2.96087667632029e+18 0 0)
(-2.9229806579972e+18 0 0)
(-2.88312317855162e+18 0 0)
(-2.84181556593577e+18 0 0)
(-2.79711209867747e+18 0 0)
(-2.75035139912771e+18 0 0)
(-2.70243234290742e+18 0 0)
(-2.65474518965162e+18 0 0)
(-2.60617674592549e+18 0 0)
(-2.55834550866762e+18 0 0)
(-2.50962531044329e+18 0 0)
(-2.46091541547658e+18 0 0)
(-2.41222383958354e+18 0 0)
(-2.36370731992291e+18 0 0)
(-2.31544144970483e+18 0 0)
(-2.26751573338219e+18 0 0)
(-2.22002323320752e+18 0 0)
(-2.17304027524868e+18 0 0)
(-2.12663660671286e+18 0 0)
(-2.08087428594671e+18 0 0)
(-2.03580833107419e+18 0 0)
(-1.99148688388786e+18 0 0)
(-1.94795133924536e+18 0 0)
(-1.90523680037573e+18 0 0)
(-1.86337212398226e+18 0 0)
(-1.82238064324127e+18 0 0)
(-1.78228001539145e+18 0 0)
(-1.74308292250397e+18 0 0)
(-1.70479870019535e+18 0 0)
(-1.6674236005142e+18 0 0)
(-1.63098612189067e+18 0 0)
(-1.59533149627761e+18 0 0)
(-1.56082387219442e+18 0 0)
(-1.52708642928183e+18 0 0)
(-1.49424239914132e+18 0 0)
(-1.46226587870818e+18 0 0)
(-1.43114948694292e+18 0 0)
(-1.40087619052308e+18 0 0)
(-1.37142848327984e+18 0 0)
(-1.34278754662803e+18 0 0)
(-1.31493365617006e+18 0 0)
(-1.28784694442403e+18 0 0)
(-1.26150788093796e+18 0 0)
(-1.23590360261876e+18 0 0)
(-1.2109448724211e+18 0 0)
(-1.18673065183647e+18 0 0)
(-1.1631974790775e+18 0 0)
(-1.1402448251885e+18 0 0)
(-1.11793821834186e+18 0 0)
(-1.09622848794711e+18 0 0)
(-1.07510067970578e+18 0 0)
(-1.05453397240093e+18 0 0)
(-1.03450989478629e+18 0 0)
(-1.01500996265793e+18 0 0)
(-9.96017926440836e+17 0 0)
(-9.77511114968198e+17 0 0)
(-9.59485050904105e+17 0 0)
(-9.41809938101981e+17 0 0)
(-9.24768070051322e+17 0 0)
(-9.08075185314155e+17 0 0)
(-8.91790634043706e+17 0 0)
(-8.75902179390065e+17 0 0)
(-8.60401903908514e+17 0 0)
(-8.45277807332261e+17 0 0)
(-8.30518325469911e+17 0 0)
(-8.16112101115175e+17 0 0)
(-8.02048052816698e+17 0 0)
(-7.88315127850461e+17 0 0)
(-7.74903458886173e+17 0 0)
(-7.61795653307697e+17 0 0)
(-7.4899268769708e+17 0 0)
(-7.36344022246077e+17 0 0)
(-7.24170492397002e+17 0 0)
(-7.12417895307487e+17 0 0)
(-7.00808418042193e+17 0 0)
(-6.89467957480323e+17 0 0)
(-6.78395996657131e+17 0 0)
(-6.67379747273132e+17 0 0)
(-6.56928815741555e+17 0 0)
(-6.46918287952846e+17 0 0)
(-6.3699583034026e+17 0 0)
(-6.26858874603063e+17 0 0)
(-6.18099099703418e+17 0 0)
(-6.08839130314262e+17 0 0)
(-6.0048713245963e+17 0 0)
(-5.92393557176294e+17 0 0)
(-5.85741434509409e+17 0 0)
(-5.79582591491471e+17 0 0)
(-5.69459286098628e+17 0 0)
)
;

boundaryField
{
    electrode
    {
        type            calculated;
        value           uniform (-1.52556835422674e+19 0 0);
    }
    ground
    {
        type            calculated;
        value           uniform (-5.66900538136307e+17 0 0);
    }
    otherfaces
    {
        type            empty;
    }
}


// ************************************************************************* //
