/*--------------------------------*- C++ -*----------------------------------*\
| =========                 |                                                 |
| \\      /  F ield         | foam-extend: Open Source CFD                    |
|  \\    /   O peration     | Version:     4.0                                |
|   \\  /    A nd           | Web:         http://www.foam-extend.org         |
|    \\/     M anipulation  |                                                 |
\*---------------------------------------------------------------------------*/
FoamFile
{
    version     2.0;
    format      ascii;
    class       volScalarField;
    location    "4.7e-06";
    object      N_electronMean;
}
// * * * * * * * * * * * * * * * * * * * * * * * * * * * * * * * * * * * * * //

dimensions      [0 0 0 1 0 0 0];

internalField   nonuniform List<scalar> 
300
(
5.99433462746366e+16
5.99418776896249e+16
5.99377748831121e+16
5.99305370452062e+16
5.99201939780748e+16
5.99067049998358e+16
5.98900447739522e+16
5.98701983930682e+16
5.98471524847404e+16
5.98208972103347e+16
5.9791425663346e+16
5.97587335837536e+16
5.97228191642568e+16
5.96836828440682e+16
5.96413271659308e+16
5.95957566341322e+16
5.95469775941242e+16
5.94949981292662e+16
5.94398279605545e+16
5.93814783518628e+16
5.93199620263791e+16
5.92552930876337e+16
5.91874869433917e+16
5.911656022775e+16
5.90425307446934e+16
5.89654174241976e+16
5.88852402405782e+16
5.8802020131294e+16
5.87157789310324e+16
5.86265392823038e+16
5.85343245780909e+16
5.84391589474561e+16
5.83410671740833e+16
5.82400745644308e+16
5.81362068538506e+16
5.80294901330525e+16
5.79199507770968e+16
5.78076153807803e+16
5.76925106865813e+16
5.75746635107012e+16
5.74541006825576e+16
5.73308489825262e+16
5.72049350668819e+16
5.70763853987571e+16
5.6945226188397e+16
5.68114833348731e+16
5.66751823717527e+16
5.6536348418828e+16
5.63950061452371e+16
5.62511797437774e+16
5.61048929315905e+16
5.595616895185e+16
5.58050305331973e+16
5.56514998135965e+16
5.54955982310296e+16
5.53373464108704e+16
5.51767640690075e+16
5.50138699353229e+16
5.48486816945236e+16
5.46812159286927e+16
5.45114880657709e+16
5.43395123318018e+16
5.41653016982123e+16
5.39888678690741e+16
5.38102213163219e+16
5.36293712286185e+16
5.3446325379297e+16
5.32610900460696e+16
5.30736699701507e+16
5.28840683142702e+16
5.2692286619998e+16
5.2498324786165e+16
5.23021810874633e+16
5.21038521500401e+16
5.19033328774159e+16
5.17006164486201e+16
5.14956943432307e+16
5.12885563018939e+16
5.10791902259179e+16
5.0867582113396e+16
5.06537160469822e+16
5.04375740900546e+16
5.02191361866072e+16
4.99983801242589e+16
4.97752815152252e+16
4.95498138076964e+16
4.93219482375839e+16
4.90916537311502e+16
4.88588968589762e+16
4.86236418276306e+16
4.83858504387342e+16
4.81454821053862e+16
4.79024938846005e+16
4.76568403588589e+16
4.74084735246918e+16
4.71573427619049e+16
4.69033948020022e+16
4.66465736977494e+16
4.63868207934433e+16
4.61240747116282e+16
4.58582713388551e+16
4.55893437807071e+16
4.53172223642578e+16
4.50418346705601e+16
4.47631054809753e+16
4.4480956743163e+16
4.41953075706922e+16
4.39060742249632e+16
4.3613170123089e+16
4.33165058074468e+16
4.30159889019615e+16
4.27115241040044e+16
4.24030131938657e+16
4.20903550707996e+16
4.17734457654362e+16
4.14521784534568e+16
4.11264435413308e+16
4.07961287106251e+16
4.04611188712717e+16
4.01212961296675e+16
3.97765398422819e+16
3.94267266985552e+16
3.9071730793233e+16
3.87114237151264e+16
3.83456745503075e+16
3.79743498258784e+16
3.75973135496767e+16
3.72144272908675e+16
3.68255502084474e+16
3.64305390971895e+16
3.6029248476284e+16
3.5621530679269e+16
3.52072359317665e+16
3.47862124284331e+16
3.43583065063029e+16
3.39233628472665e+16
3.34812245356428e+16
3.30317330542004e+16
3.25747283603852e+16
3.21100490200262e+16
3.16375322971046e+16
3.1157014246954e+16
3.06683298898099e+16
3.01713134336813e+16
2.96657985466424e+16
2.91516185798794e+16
2.86286066653792e+16
2.80965957961194e+16
2.75554189095536e+16
2.70049090816384e+16
2.644489982574e+16
2.58752252651042e+16
2.52957203328382e+16
2.47062210834202e+16
2.4106564895034e+16
2.34965907988217e+16
2.2876139929254e+16
2.22450560692381e+16
2.16031857173895e+16
2.09503777457339e+16
2.02864793458245e+16
1.96113152616884e+16
1.89246568808628e+16
1.8226221430075e+16
1.75157088960527e+16
1.67928282460738e+16
1.60572873486825e+16
1.53087765114364e+16
1.45469739653042e+16
1.37715880718889e+16
1.29824502303981e+16
1.21796746407915e+16
1.13638505616495e+16
1.0536208559789e+16
9.69886824380312e+15
8.85514524878342e+15
8.00974804253082e+15
7.16895580787212e+15
6.34069572957891e+15
5.53434630259752e+15
4.76034592166198e+15
4.0295979548272e+15
3.35260609311614e+15
2.73851830720162e+15
2.19423714363963e+15
1.72366717417113e+15
1.32732317507912e+15
1.00238859222519e+15
743170313838590
541882069713359
389563991671661
277007036858357
195572470059673
137730873023263
96714648429915.7
67512609093328.8
46719967812567.1
31932083931246.1
21644194201570.8
14640370505096.6
9921890774751.09
6830287482997.96
4889718698889.59
3721307967246.84
3035164666798.93
2630863164509.69
2385530117672.37
2229775415011.46
2125607872677.16
2052015263802.42
1997010551559.37
1953466859781.03
1916994129845.95
1884767178039.98
1854953062320.6
1826326525630.64
1798071987621.27
1769656796899.8
1740747046778.99
1711138733922.1
1680709793092.02
1649389325467.72
1617174449509.69
1584121934591.54
1550319596760.88
1515875773879.49
1480910851677.39
1445549905909.33
1409918724189.8
1374140448136.72
1338333179233.89
1302609257584.84
1267073062975.89
1231820745304.37
1196940154792.83
1162510103472.55
1128600247979.49
1095272058804.67
1062578072976.2
1030562739059.09
999263295397.903
968709513402.278
938925323053.317
909928623279.188
881731359890.039
854340493688.893
827757477093.861
801979618995.609
777000694380.401
752811730079.383
729402908404.095
706762993855.977
684878684721.568
663734710858.131
643314567314.07
623601492572.401
604577346941.823
586221015585.654
568511565681.089
551430243151.812
534958177869.376
519075329509.089
503761753248.814
488997393827.281
474762477104.483
461037844733.032
447803299057.15
435038209524.501
422722762270
410837876115.452
399365789918.527
388290921535.932
377599179877.727
367277770757.879
357314623046.787
347698414866.234
338418471547.977
329464633012.412
320827582961.541
312498867640.852
304470707102.259
296734930555.46
289282395037.657
282089627493.072
275132638323.617
268408640116.39
261924205573.858
255687184122.03
249705511048.827
243959837788.216
238428706060.759
233131831590.413
228105238082.011
223344824578.174
218880868456.706
214788608623.339
211185905375.248
208317820610.186
206571293934.852
206653724050.734
)
;

boundaryField
{
    electrode
    {
        type            calculated;
        value           uniform 5.99433462748878e+16;
    }
    ground
    {
        type            calculated;
        value           uniform 208114829160.594;
    }
    otherfaces
    {
        type            empty;
    }
}


// ************************************************************************* //
