/*--------------------------------*- C++ -*----------------------------------*\
| =========                 |                                                 |
| \\      /  F ield         | foam-extend: Open Source CFD                    |
|  \\    /   O peration     | Version:     4.0                                |
|   \\  /    A nd           | Web:         http://www.foam-extend.org         |
|    \\/     M anipulation  |                                                 |
\*---------------------------------------------------------------------------*/
FoamFile
{
    version     2.0;
    format      ascii;
    class       volScalarField;
    location    "4.7e-06";
    object      Phi;
}
// * * * * * * * * * * * * * * * * * * * * * * * * * * * * * * * * * * * * * //

dimensions      [0 0 0 1 0 0 0];

internalField   nonuniform List<scalar> 
300
(
699.99992449705
699.999709887862
699.999201249312
699.998432382454
699.997412038541
699.996134827878
699.994601767266
699.992812558942
699.990766797866
699.988464174319
699.985904302248
699.983086763955
699.980011107098
699.976676840914
699.97308343652
699.969230325697
699.965116899773
699.960742508487
699.956106458734
699.951208013251
699.946046389226
699.940620756822
699.934930237645
699.928973903124
699.922750772822
699.916259812667
699.909499933064
699.902469986903
699.895168767469
699.887595006484
699.879747372702
699.871624471507
699.86322484485
699.854546967503
699.845589230671
699.83634990653
699.826827123111
699.81701890609
699.806923198075
699.796537858766
699.785860662031
699.774889292365
699.763621341098
699.752054302512
699.740185569934
699.728012431808
699.715532067744
699.702741544551
699.689637812242
699.676217700007
699.662477912147
699.648415023969
699.634025477633
699.619305577943
699.604251488083
699.588859225292
699.573124656476
699.557043493736
699.54061128984
699.523823433603
699.506675145185
699.489161471306
699.471277280362
699.453017257456
699.434375899309
699.415347509084
699.395926191083
699.376105845335
699.355880162059
699.335242615991
699.314186460584
699.292704722054
699.270790193279
699.248435427536
699.225632732061
699.202374161439
699.178651510792
699.154456308767
699.129779810304
699.104612989178
699.078946530284
699.052770821671
699.026075946284
698.998851673414
698.971087449815
698.942772390489
698.913895269092
698.88444450795
698.854408167643
698.823773936146
698.792529117461
698.760660619742
698.728154942838
698.694998165239
698.661175930359
698.626673432114
698.591475399745
698.555566081815
698.518929229328
698.481548077891
698.443405328852
698.404483129327
698.364763051024
698.324226067783
698.282852531703
698.240622147763
698.197513946805
698.153506256738
698.108576671826
698.062702019891
698.015858327254
697.968020781235
697.919163689978
697.869260439396
697.818283446963
697.766204112083
697.712992762738
697.658618598067
697.603049626509
697.546252599117
697.488192937562
697.428834656368
697.368140278795
697.306070745769
697.242585317192
697.177641464853
697.111194756119
697.043198727463
696.973604746762
696.902361863194
696.829416643564
696.754712993061
696.678191959208
696.599791519801
696.519446340477
696.437087524885
696.35264232626
696.266033835411
696.177180614597
696.085996315361
695.992389385562
695.896262486974
695.797511286809
695.696024215266
695.591682075693
695.484357311558
695.373913166717
695.260202748834
695.143067979845
695.022338388749
694.897829791762
694.769342708168
694.636660641446
694.499548166746
694.357748230186
694.210980465951
694.058936649841
693.901278535655
693.737634591
693.567588272161
693.390691169192
693.206420055325
693.014220403188
692.813420381204
692.60309596578
692.382221131852
692.1497185671
691.904372507959
691.644801411974
691.369325137632
691.075978992655
690.762452977152
690.426076181337
690.064069043581
689.673477502309
689.25047136218
688.790898759066
688.290982314269
687.745919738541
687.150359009788
686.499876889684
685.788976857145
685.011947378437
684.164207331795
683.240588308452
682.23589338665
681.146501743925
679.968743308062
678.699019392594
677.335032842078
675.875164341774
674.318124396127
672.662650362233
670.908813243254
669.05689219238
667.107358489617
665.06051246625
662.916420090296
660.675294654475
658.337729952457
655.903045766467
653.370548180698
650.739517040316
648.009295658839
645.179959329727
642.251990140499
639.2262763515
636.103777640139
632.885481667338
629.572316906284
626.165163737157
622.664803989967
619.071948213933
615.387479850432
611.612393680044
607.747579269795
603.793868175362
599.751996756092
595.622654418448
591.406444118792
587.10393234886
582.71560715029
578.24192940193
573.683288451407
569.040054891297
564.31262617038
559.501597150706
554.607494462488
549.630844463666
544.572110326538
539.431759949278
534.210202714823
528.907857106194
523.525086454322
518.062266365971
512.519718853326
506.897780559233
501.196734854206
495.416883572649
489.558474274682
483.621779439827
477.607013922844
471.514425357204
465.34438756372
459.097316372567
452.773566550808
446.373529844522
439.897534971306
433.345951103116
426.719083002195
420.017279137028
413.240822982792
406.390043881253
399.465205823399
392.466620673201
385.394533220115
378.249238379304
371.030962251798
363.739982433127
356.376506347986
348.940795422447
341.433039067156
333.85348345908
326.202301419425
318.47972558027
310.685913468971
302.821085260815
294.885429954621
286.879279225326
278.802887401849
270.656574137491
262.440580282025
254.155214373011
245.800704543145
237.377348776032
228.885362716172
220.325034120061
211.696566601669
203.000238111915
194.236240522281
185.404842409517
176.506224484435
167.540646929624
158.508280265396
149.409377282748
140.244098959602
131.012691252429
121.715306123314
112.352183193723
102.923465902163
93.4293876185946
83.8700833288298
74.2457802131448
64.5566047035227
54.8027776953538
44.9844175119469
35.1017396516701
25.1548547864315
15.1439741354138
5.06920192660765
)
;

boundaryField
{
    electrode
    {
        type            fixedValue;
        value           uniform 700;
    }
    ground
    {
        type            fixedValue;
        value           uniform 0;
    }
    otherfaces
    {
        type            empty;
    }
}


// ************************************************************************* //
