/*--------------------------------*- C++ -*----------------------------------*\
| =========                 |                                                 |
| \\      /  F ield         | foam-extend: Open Source CFD                    |
|  \\    /   O peration     | Version:     4.0                                |
|   \\  /    A nd           | Web:         http://www.foam-extend.org         |
|    \\/     M anipulation  |                                                 |
\*---------------------------------------------------------------------------*/
FoamFile
{
    version     2.0;
    format      ascii;
    class       volScalarField;
    location    "4.7e-06";
    object      PhiMean;
}
// * * * * * * * * * * * * * * * * * * * * * * * * * * * * * * * * * * * * * //

dimensions      [0 0 0 1 0 0 0];

internalField   nonuniform List<scalar> 
300
(
699.984348890195
699.982829849783
699.981047875605
699.979022982185
699.976764727443
699.974265971922
699.971525734063
699.968542689391
699.965315558719
699.961843394525
699.958125404269
699.954160976013
699.949949639549
699.945491054885
699.94078499944
699.935831355166
699.930630098137
699.925181291638
699.919485077411
699.913541667441
699.907351338128
699.900914424386
699.894231313971
699.887302441971
699.880128284329
699.87270936505
699.86504624291
699.857139506492
699.848989772931
699.840597677964
699.831963868649
699.823089017529
699.813973813155
699.804618941855
699.795025083652
699.785192907574
699.775123066226
699.764816193559
699.754272899184
699.743493761734
699.732479325913
699.72123009972
699.70974654607
699.698029078535
699.686078056783
699.673893782288
699.661476493723
699.648826363909
699.635943496371
699.622827926329
699.609479619969
699.595898486386
699.582084365995
699.568037031575
699.55375616787
699.539241363208
699.524492094899
699.509507722984
699.494287484347
699.478830485992
699.463135699714
699.447201956181
699.431027937994
699.414612172518
699.397953050229
699.381048817034
699.363897542988
699.346497116552
699.328845238455
699.310939414403
699.292776947681
699.274354930175
699.255670249289
699.236719584856
699.217499383663
699.198005861941
699.178235013565
699.158182593419
699.137844106089
699.117214772992
699.096289559517
699.07506312919
699.053529829682
699.031683685431
699.009518381045
698.987027269098
698.964203351009
698.941039248517
698.917527188513
698.893658999644
698.869426091249
698.844819435339
698.81982959495
698.794446659713
698.768660223497
698.742459368125
698.71583264125
698.688768037815
698.661252973433
698.633274266742
698.604818117664
698.575870075689
698.546415007176
698.516437100765
698.485919807988
698.454845814644
698.423197018345
698.390954476342
698.358098389098
698.324608046807
698.290461779309
698.255636914501
698.220109727252
698.183855399429
698.146847968135
698.109060255737
698.070463835898
698.031028977715
697.990724550325
697.94951794044
697.907374970999
697.864259842135
697.820135020871
697.774961176608
697.728697053509
697.681299328041
697.632722480049
697.582918678045
697.531837604611
697.479426297837
697.425628975313
697.370386846574
697.313637898106
697.255316654315
697.195353932114
697.133676616039
697.07020731284
697.004863999282
696.937559621946
696.868201705947
696.796691870152
696.722925299305
696.646790175472
696.568167050429
696.486928149681
696.402936593618
696.316045438991
696.226096639087
696.132919836284
696.036331006756
695.936131002532
695.832103749576
695.724014220335
695.611606148086
695.494599298426
695.372686269597
695.245528977594
695.112754187
694.973948755289
694.828652841986
694.676354164122
694.516472680971
694.348328888677
694.171122506685
693.983936843708
693.785731147507
693.575304198131
693.351243890337
693.111879209934
692.855223305323
692.578930300517
692.280271292623
691.956145626592
691.602948577775
691.216501734388
690.792205633765
690.324930256904
689.808978420837
689.238385244785
688.606832302503
687.907779545713
687.134795322267
686.281678476195
685.342459070774
684.312010093002
683.185888896636
681.960439664054
680.633015728259
679.201979347064
677.666435156253
676.026134617265
674.281413733899
672.43323609987
670.482947376621
668.431703560928
666.280444876308
664.029891251298
661.68048205284
659.232679336648
656.686770308716
654.043000294182
651.301691932346
648.463250132451
645.528425876964
642.498220244238
639.373671784045
636.155815126671
632.845612254675
629.443973597857
625.951719893671
622.369618157358
618.698347180463
614.938652048773
611.091419236104
607.157494235362
603.137644035027
599.032594927673
594.843003834935
590.569497400079
586.212640458397
581.772976531476
577.250993681532
572.64716649635
567.961920119513
563.195674415979
558.348913862854
553.422232438314
548.416175265186
543.331284488301
538.168056209389
532.926988209047
527.608534223556
522.213154941359
516.741271655982
511.193316738929
505.569682424514
499.870774771792
494.096960110037
488.248621483001
482.326102621187
476.329766939112
470.259939470967
464.116970959727
457.901261310894
451.613287669165
445.253478380056
438.822288548903
432.320123852398
425.747419188016
419.104559139627
412.391960020012
405.609986625664
398.759038118163
391.839460588131
384.851637294698
377.79589658577
370.672606870346
363.482079646258
356.224669356922
348.900671517167
341.510427347959
334.054217168359
326.532369719014
318.94515063796
311.292876882944
303.57580438856
295.794250778415
287.94847340331
280.038834564129
272.0656567281
264.029335290982
255.930179330387
247.768573483853
239.544812542039
231.259271055809
222.912229993815
214.504054446445
206.035012048312
197.505459001903
188.915650088904
180.265933160828
171.556550535848
162.787842258087
153.960038557864
145.073472335766
136.128362173988
127.125034361765
118.063696132308
108.944667641285
99.7681450507927
90.5344427890533
81.2437464718436
71.8963655054585
62.4924752556228
53.0323804605202
43.5162468977033
33.944375508392
24.3169229651711
14.6341875508643
4.89631776141241
)
;

boundaryField
{
    electrode
    {
        type            calculated;
        value           uniform 700.000000000267;
    }
    ground
    {
        type            calculated;
        value           uniform 0;
    }
    otherfaces
    {
        type            empty;
    }
}


// ************************************************************************* //
