/*--------------------------------*- C++ -*----------------------------------*\
| =========                 |                                                 |
| \\      /  F ield         | foam-extend: Open Source CFD                    |
|  \\    /   O peration     | Version:     4.0                                |
|   \\  /    A nd           | Web:         http://www.foam-extend.org         |
|    \\/     M anipulation  |                                                 |
\*---------------------------------------------------------------------------*/
FoamFile
{
    version     2.0;
    format      ascii;
    class       volScalarField;
    location    "4.7e-06";
    object      TeMean;
}
// * * * * * * * * * * * * * * * * * * * * * * * * * * * * * * * * * * * * * //

dimensions      [0 0 0 1 0 0 0];

internalField   nonuniform List<scalar> 
300
(
33448.3043865753
33448.5944379195
33448.7016086392
33448.6558763108
33448.6120975757
33448.5515223529
33448.4768411738
33448.3912364122
33448.2950244969
33448.1890433925
33448.0740589789
33447.9507985645
33447.8199703771
33447.6822389098
33447.5382462024
33447.3886098176
33447.2339211849
33447.0747520216
33446.9116537062
33446.7451570225
33446.5757759318
33446.4040046965
33446.230321135
33446.0551856128
33445.8790404876
33445.702325068
33445.5254656634
33445.3488719729
33445.1729487704
33444.9980800794
33444.8246274139
33444.652963145
33444.4834671193
33444.3164998286
33444.1524098183
33443.9915281702
33443.8341797493
33443.6806954901
33443.5314004414
33443.386607484
33443.2466200663
33443.111747665
33442.9822946061
33442.8585561563
33442.7408232581
33442.6293821427
33442.5245136601
33442.4264919622
33442.335580067
33442.2520297637
33442.1760819867
33442.1079868436
33442.0480149032
33441.9964321743
33441.9535066265
33441.9195163114
33441.8947278481
33441.8793991094
33441.8737967788
33441.8781876806
33441.8928366383
33441.9180188377
33441.9539868909
33442.0009848271
33442.0592962224
33442.1292239879
33442.2110650176
33442.3051129428
33442.4116632703
33442.5310199845
33442.6634844654
33442.8093435613
33442.9689049706
33443.1424921969
33443.330415439
33443.5329750016
33443.7504992647
33443.9833549744
33444.2318950392
33444.4964667885
33444.77745875
33445.0752729837
33445.3902953768
33445.7229059057
33446.0734919538
33446.4424792549
33446.8303259393
33447.2374849163
33447.6644069815
33448.1115674693
33448.5794364032
33449.0684942952
33449.5792979856
33450.1123975517
33450.6683419842
33451.2477260714
33451.8511510571
33452.4792392247
33453.1326267934
33453.8119760341
33454.5179960103
33455.2513812189
33456.0128474006
33456.8031838512
33457.6232009426
33458.4737290987
33459.3556234601
33460.2697751352
33461.2171278191
33462.1986587947
33463.2153849042
33464.2683610855
33465.3586739981
33466.4874843332
33467.6559868153
33468.8654079677
33470.1170217573
33471.4121884126
33472.7523579778
33474.138989912
33475.5736017427
33477.0577994599
33478.5932567132
33480.1817510524
33481.8251778326
33483.5254999177
33485.2847428398
33487.1050616381
33488.9887427651
33490.938158534
33492.9558012243
33495.0443243087
33497.2065441409
33499.4453751126
33501.7638853997
33504.1654174157
33506.6535401488
33509.2320214862
33511.9048675477
33514.6763620348
33517.5510849593
33520.5339058263
33523.6300188488
33526.8450017505
33530.1849094239
33533.6563447121
33537.266480105
33541.0231288474
33544.934720342
33549.0104466595
33553.2604965597
33557.6960499981
33562.3294269742
33567.1743909473
33572.2461830351
33577.5618546713
33583.140579613
33589.004463283
33595.1791261858
33601.6972416279
33608.6119267496
33615.9946207236
33623.8986351718
33632.3476654693
33641.3816602159
33651.0904715453
33661.5952993956
33673.0236894423
33685.4954737059
33699.1028526586
33713.884717319
33729.8945754802
33747.2951979429
33766.156624319
33786.4270707482
33808.265000777
33831.866498641
33857.4437574761
33885.7513268238
33918.0846823663
33956.4685118041
34004.5908219395
34068.2633588643
34156.1529710777
34281.7524480442
34465.1272380887
34735.5249740622
35136.5309232298
35733.5035246755
36625.8757567333
37967.677044237
40003.0232517507
43129.7514550514
48124.5451002108
55759.3811565317
66531.4832065445
82229.654840072
103621.311628961
132355.743186401
168901.462376085
212714.35900449
262208.332491965
315408.409399383
369943.78101059
423605.369390256
474595.725062818
521673.227949966
564165.549953875
601941.704874861
635248.479992105
664512.195399374
690231.863785677
712924.018883798
733055.871550431
751034.918304587
767220.037083819
781910.211927644
795350.822689838
807742.256979357
819249.49509251
830006.612079202
840122.140928679
849690.076321042
858790.672271873
867488.707453834
875837.137135946
883879.316289837
891650.423945473
899178.705433534
906486.517963609
913591.152427991
920505.517160008
927238.700851984
933796.341317896
940181.081048028
946392.989644487
952429.774656105
958287.055194584
963958.580154452
969436.43413776
974711.208404681
979772.118628491
984607.269218631
989203.799276324
993547.795347705
997624.689131182
1001419.0555502
1004914.88105335
1008095.8274343
1010944.79330735
1013444.91714516
1015579.30450368
1017330.42304847
1018680.51571563
1019611.44903761
1020104.77056258
1020138.90440595
1019699.35865218
1018772.59224188
1017335.34259552
1015368.91858266
1012854.17622506
1009772.11233607
1006103.53455632
1001829.04522616
996929.515499232
991384.998914472
985174.868679225
978278.917357419
970676.029159924
962344.479368326
953262.171310378
943406.115759163
932752.114304915
921274.712595238
908947.165441058
895741.307033804
881627.350178318
866573.729224414
850546.811200515
833510.844968937
815427.647167797
796261.631317806
775967.035119963
754490.994820195
731782.585370683
707778.93754656
682406.755595485
655594.712585107
627256.32170288
597284.736805082
565562.209125698
531952.307225221
496275.367093678
458315.059915275
417796.451534858
374331.198003757
327389.675668496
276197.376130897
219729.429823138
)
;

boundaryField
{
    electrode
    {
        type            calculated;
        value           uniform 33448.3043865779;
    }
    ground
    {
        type            calculated;
        value           uniform 187711.195280281;
    }
    otherfaces
    {
        type            empty;
    }
}


// ************************************************************************* //
