/*--------------------------------*- C++ -*----------------------------------*\
| =========                 |                                                 |
| \\      /  F ield         | foam-extend: Open Source CFD                    |
|  \\    /   O peration     | Version:     4.0                                |
|   \\  /    A nd           | Web:         http://www.foam-extend.org         |
|    \\/     M anipulation  |                                                 |
\*---------------------------------------------------------------------------*/
FoamFile
{
    version     2.0;
    format      ascii;
    class       volVectorField;
    location    "1e-10";
    object      E;
}
// * * * * * * * * * * * * * * * * * * * * * * * * * * * * * * * * * * * * * //

dimensions      [0 0 0 1 0 0 0];

internalField   nonuniform List<vector> 
252
(
(-0 1510.39821259551 -0)
(-0 1510.3203129854 -0)
(-0 1510.32030860982 -0)
(-0 1510.32030731859 -0)
(-0 1510.3203022761 -0)
(-0 1510.32029614669 -0)
(-0 1510.32029498719 -0)
(-0 1510.32029251309 -0)
(-0 1510.32028621122 -0)
(-0 1510.32028731075 -0)
(-0 1510.32029452169 -0)
(-0 1510.32029433724 -0)
(-0 1510.32028504055 -0)
(-0 1510.32027988391 -0)
(-0 1510.32028230755 -0)
(-0 1510.32028973853 -0)
(-0 1510.32029269445 -0)
(-0 1510.320294531 -0)
(-0 1510.32029689384 -0)
(-0 1510.3202977963 -0)
(-0 1510.32029783311 -0)
(-0 1510.32029485835 -0)
(-0 1510.32029007581 -0)
(-0 1510.32029129714 -0)
(-0 1510.32029614483 -0)
(-0 1510.32029782443 -0)
(-0 1510.3202988098 -0)
(-0 1510.32029926062 -0)
(-0 1510.32029832217 -0)
(-0 1510.32029730909 -0)
(-0 1510.32029592046 -0)
(-0 1510.3202975498 -0)
(-0 1510.3203014698 -0)
(-0 1510.32030415173 -0)
(-0 1510.32030732046 -0)
(-0 1510.32030749044 -0)
(-0 1510.3203085089 -0)
(-0 1510.32031367941 -0)
(-0 1510.32031603398 -0)
(-0 1510.32031491026 -0)
(-0 1510.32031050758 -0)
(-0 1510.32030535032 -0)
(-0 1510.32030803554 -0)
(-0 1510.32031180957 -0)
(-0 1510.32031368665 -0)
(-0 1510.32031549362 -0)
(-0 1510.32031761223 -0)
(-0 1510.32032337686 -0)
(-0 1510.32032600461 -0)
(-0 1510.32032628335 -0)
(-0 1510.32032504984 -0)
(-0 1510.32032772948 -0)
(-0 1510.32033351995 -0)
(-0 1510.32033467325 -0)
(-0 1510.32033220701 -0)
(-0 1510.32033109363 -0)
(-0 1510.32032917147 -0)
(-0 1510.32032218364 -0)
(-0 1510.32031865883 -0)
(-0 1510.32031626725 -0)
(-0 1510.32031270499 -0)
(-0 1510.32031054832 -0)
(-0 1510.32031241134 -0)
(-0 1510.32031528435 -0)
(-0 1510.32031703445 -0)
(-0 1510.32031973726 -0)
(-0 1510.32031983239 -0)
(-0 1510.32031879903 -0)
(-0 1510.32032022323 -0)
(-0 1510.3203201579 -0)
(-0 1510.3203159039 -0)
(-0 1510.32031454443 -0)
(-0 1510.32031656771 -0)
(-0 1510.32031855046 -0)
(-0 1510.3203162753 -0)
(-0 1510.32031407522 -0)
(-0 1510.32031086512 -0)
(-0 1510.32030430187 -0)
(-0 1510.32030506618 -0)
(-0 1510.32030855855 -0)
(-0 1510.32030714218 -0)
(-0 1510.32030405786 -0)
(-0 1510.32030131779 -0)
(-0 1510.32030045405 -0)
(-0 1510.3203018412 -0)
(-0 1510.32030846278 -0)
(-0 1510.32031699683 -0)
(-0 1510.32031970975 -0)
(-0 1510.32031527506 -0)
(-0 1510.32030620272 -0)
(-0 1510.32030210116 -0)
(-0 1510.32030724063 -0)
(-0 1510.32031479339 -0)
(-0 1510.32031673234 -0)
(-0 1510.32031808992 -0)
(-0 1510.32032125143 -0)
(-0 1510.32032011114 -0)
(-0 1510.32031337337 -0)
(-0 1510.32030802375 -0)
(-0 1510.32030810337 -0)
(-0 1510.32030782051 -0)
(-0 1510.32030242085 -0)
(-0 1510.32029866588 -0)
(-0 1510.32030320606 -0)
(-0 1510.32030377723 -0)
(-0 1510.32029669511 -0)
(-0 1510.32029148204 -0)
(-0 1510.32029739985 -0)
(-0 1510.32030302138 -0)
(-0 1510.32029965002 -0)
(-0 1510.32029922028 -0)
(-0 1510.32030167207 -0)
(-0 1510.32030263055 -0)
(-0 1510.32030539913 -0)
(-0 1510.32030763333 -0)
(-0 1510.32030760685 -0)
(-0 1510.32030743793 -0)
(-0 1510.32030359131 -0)
(-0 1510.32030318994 -0)
(-0 1510.3203001215 -0)
(-0 1510.3202935448 -0)
(-0 1510.32029387132 -0)
(-0 1510.32029653028 -0)
(-0 1510.32029701422 -0)
(-0 1510.32029960512 -0)
(-0 1510.32030416353 -0)
(-0 1510.32030559949 -0)
(-0 1510.32030757029 -0)
(-0 1510.32030815816 -0)
(-0 1510.32030736576 -0)
(-0 1510.32030869046 -0)
(-0 1510.32031076276 -0)
(-0 1510.32031119271 -0)
(-0 1510.32031003463 -0)
(-0 1510.32030974308 -0)
(-0 1510.32030976744 -0)
(-0 1510.32030805894 -0)
(-0 1510.32030661257 -0)
(-0 1510.3203076048 -0)
(-0 1510.32030855711 -0)
(-0 1510.32030601949 -0)
(-0 1510.32030377083 -0)
(-0 1510.32030546488 -0)
(-0 1510.32030565617 -0)
(-0 1510.32030710435 -0)
(-0 1510.32030823097 -0)
(-0 1510.32030940536 -0)
(-0 1510.32031225314 -0)
(-0 1510.32031447868 -0)
(-0 1510.32031666261 -0)
(-0 1510.32031453722 -0)
(-0 1510.32031397966 -0)
(-0 1510.32031669138 -0)
(-0 1510.32031657865 -0)
(-0 1510.32031582511 -0)
(-0 1510.32031545683 -0)
(-0 1510.32031528727 -0)
(-0 1510.32031527024 -0)
(-0 1510.32031567313 -0)
(-0 1510.32031551411 -0)
(-0 1510.32031416579 -0)
(-0 1510.32031229508 -0)
(-0 1510.32031122995 -0)
(-0 1510.32031008634 -0)
(-0 1510.32031070834 -0)
(-0 1510.32031345193 -0)
(-0 1510.32031417264 -0)
(-0 1510.32031548454 -0)
(-0 1510.3203181594 -0)
(-0 1510.32031842928 -0)
(-0 1510.32031621018 -0)
(-0 1510.3203146997 -0)
(-0 1510.32031321082 -0)
(-0 1510.32031328134 -0)
(-0 1510.32031409218 -0)
(-0 1510.32031136326 -0)
(-0 1510.32030799297 -0)
(-0 1510.32030831021 -0)
(-0 1510.32031101233 -0)
(-0 1510.32031097268 -0)
(-0 1510.32030866007 -0)
(-0 1510.32030846198 -0)
(-0 1510.32031017357 -0)
(-0 1510.32031120968 -0)
(-0 1510.32031081303 -0)
(-0 1510.32031177746 -0)
(-0 1510.32031211129 -0)
(-0 1510.32031231581 -0)
(-0 1510.32031546344 -0)
(-0 1510.32031618655 -0)
(-0 1510.32031665396 -0)
(-0 1510.3203176288 -0)
(-0 1510.32031830662 -0)
(-0 1510.32031673275 -0)
(-0 1510.32031174072 -0)
(-0 1510.320307817 -0)
(-0 1510.3203074141 -0)
(-0 1510.32030709773 -0)
(-0 1510.32030374209 -0)
(-0 1510.3202999734 -0)
(-0 1510.3202969863 -0)
(-0 1510.3202950747 -0)
(-0 1510.32029628547 -0)
(-0 1510.32029802105 -0)
(-0 1510.32029814228 -0)
(-0 1510.32029866794 -0)
(-0 1510.3202993512 -0)
(-0 1510.32029901492 -0)
(-0 1510.3202986152 -0)
(-0 1510.32029990499 -0)
(-0 1510.32029991074 -0)
(-0 1510.32029844008 -0)
(-0 1510.32029957186 -0)
(-0 1510.3203003 -0)
(-0 1510.32029761263 -0)
(-0 1510.32029729585 -0)
(-0 1510.32029702 -0)
(-0 1510.32029538875 -0)
(-0 1510.32029470741 -0)
(-0 1510.3202938488 -0)
(-0 1510.32029311674 -0)
(-0 1510.32029320727 -0)
(-0 1510.32029298876 -0)
(-0 1510.32029288636 -0)
(-0 1510.3202951189 -0)
(-0 1510.32029695383 -0)
(-0 1510.32029887432 -0)
(-0 1510.32030048155 -0)
(-0 1510.32029972878 -0)
(-0 1510.32029901516 -0)
(-0 1510.32029767965 -0)
(-0 1510.32029530191 -0)
(-0 1510.32029593598 -0)
(-0 1510.32029548476 -0)
(-0 1510.32029345239 -0)
(-0 1510.32029489367 -0)
(-0 1510.32029552281 -0)
(-0 1510.32029491958 -0)
(-0 1510.32029392879 -0)
(-0 1510.32029257391 -0)
(-0 1510.320291901 -0)
(-0 1510.32029051194 -0)
(-0 1510.32028979701 -0)
(-0 1510.32029010872 -0)
(-0 1510.32029155048 -0)
(-0 1510.3202925453 -0)
(-0 1510.32029336452 -0)
(-0 1510.3202939528 -0)
(-0 1510.32029248476 -0)
(-0 1510.32029157836 -0)
(-0 1510.32029125104 -0)
(-0 2265.35021481777 -0)
)
;

boundaryField
{
    dielectric_2
    {
        type            calculated;
        value           nonuniform 0();
    }
    dielectric_1
    {
        type            calculated;
        value           uniform (-0 1510.4761060325 -0);
    }
    otherfaces
    {
        type            empty;
    }
    procBoundary1to0
    {
        type            processor;
        value           uniform (-0 2265.21540499273 -0);
    }
}


// ************************************************************************* //
