/*--------------------------------*- C++ -*----------------------------------*\
| =========                 |                                                 |
| \\      /  F ield         | foam-extend: Open Source CFD                    |
|  \\    /   O peration     | Version:     4.0                                |
|   \\  /    A nd           | Web:         http://www.foam-extend.org         |
|    \\/     M anipulation  |                                                 |
\*---------------------------------------------------------------------------*/
FoamFile
{
    version     2.0;
    format      ascii;
    class       volScalarField;
    location    "8.2e-06";
    object      Ar;
}
// * * * * * * * * * * * * * * * * * * * * * * * * * * * * * * * * * * * * * //

dimensions      [0 0 0 1 0 0 0];

internalField   nonuniform List<scalar> 
300
(
3.21880200063765e+22
3.21880199636644e+22
3.21880199932352e+22
3.21880200053899e+22
3.21880200259238e+22
3.21880200543414e+22
3.21880200889268e+22
3.21880201303492e+22
3.2188020178485e+22
3.21880202333001e+22
3.21880202948e+22
3.21880203629729e+22
3.21880204378139e+22
3.21880205193196e+22
3.2188020607488e+22
3.21880207023185e+22
3.21880208038145e+22
3.21880209119761e+22
3.21880210268041e+22
3.21880211483014e+22
3.21880212764716e+22
3.2188021411319e+22
3.21880215528485e+22
3.21880217010656e+22
3.21880218559922e+22
3.21880220176223e+22
3.21880221859642e+22
3.21880223610283e+22
3.21880225428137e+22
3.21880227313287e+22
3.21880229266004e+22
3.21880231286312e+22
3.21880233374171e+22
3.21880235529672e+22
3.21880237752911e+22
3.21880240043992e+22
3.21880242403065e+22
3.21880244830224e+22
3.21880247325556e+22
3.21880249889191e+22
3.21880252521258e+22
3.21880255221874e+22
3.2188025799117e+22
3.21880260829285e+22
3.2188026373636e+22
3.21880266712541e+22
3.21880269758001e+22
3.2188027287291e+22
3.2188027605753e+22
3.21880279312066e+22
3.21880282636834e+22
3.21880286031901e+22
3.21880289497517e+22
3.21880293033701e+22
3.21880296640569e+22
3.2188030031816e+22
3.2188030406664e+22
3.21880307886185e+22
3.21880311776974e+22
3.21880315739209e+22
3.21880319773052e+22
3.21880323878693e+22
3.21880328056374e+22
3.21880332306484e+22
3.21880336629196e+22
3.21880341024465e+22
3.21880345492482e+22
3.21880350033443e+22
3.21880354647545e+22
3.21880359334989e+22
3.21880364095995e+22
3.2188036893085e+22
3.21880373839784e+22
3.21880378822934e+22
3.21880383880651e+22
3.21880389013136e+22
3.21880394220539e+22
3.21880399503113e+22
3.2188040486087e+22
3.21880410294325e+22
3.21880415803343e+22
3.21880421388111e+22
3.21880427048866e+22
3.21880432785793e+22
3.21880438599244e+22
3.21880444489345e+22
3.21880450456182e+22
3.21880456499951e+22
3.21880462620969e+22
3.21880468819356e+22
3.21880475095367e+22
3.21880481449642e+22
3.21880487881823e+22
3.2188049439208e+22
3.21880500980599e+22
3.21880507647562e+22
3.21880514393154e+22
3.2188052121756e+22
3.21880528121061e+22
3.21880535103819e+22
3.21880542165949e+22
3.21880549307688e+22
3.21880556529555e+22
3.21880563831063e+22
3.21880571212424e+22
3.21880578674379e+22
3.21880586216939e+22
3.21880593840524e+22
3.21880601545261e+22
3.21880609331328e+22
3.21880617198968e+22
3.21880625148427e+22
3.21880633179998e+22
3.21880641293917e+22
3.21880649490414e+22
3.21880657769869e+22
3.21880666132672e+22
3.21880674578771e+22
3.21880683108348e+22
3.21880691721674e+22
3.21880700419196e+22
3.21880709200968e+22
3.21880718067454e+22
3.21880727018727e+22
3.21880736054844e+22
3.21880745175996e+22
3.2188075438263e+22
3.21880763674734e+22
3.21880773052579e+22
3.21880782516344e+22
3.21880792066342e+22
3.21880801702768e+22
3.21880811425824e+22
3.21880821235925e+22
3.21880831133584e+22
3.21880841118764e+22
3.21880851191573e+22
3.2188086135241e+22
3.21880871601608e+22
3.21880881939223e+22
3.21880892365557e+22
3.2188090288092e+22
3.21880913485772e+22
3.2188092418057e+22
3.21880934965695e+22
3.21880945841077e+22
3.21880956806987e+22
3.218809678637e+22
3.21880979011625e+22
3.21880990251336e+22
3.21881001582777e+22
3.21881013006238e+22
3.2188102452236e+22
3.21881036131092e+22
3.21881047832625e+22
3.21881059627091e+22
3.21881071515195e+22
3.21881083495433e+22
3.21881095570048e+22
3.21881107733914e+22
3.21881119995239e+22
3.21881132338739e+22
3.21881144787079e+22
3.21881157298395e+22
3.21881169938108e+22
3.21881182615645e+22
3.21881195251512e+22
3.21881208010905e+22
3.21881220899083e+22
3.21881233857931e+22
3.21881246895048e+22
3.21881259896844e+22
3.2188127297556e+22
3.21881285967032e+22
3.21881298988417e+22
3.21881312300322e+22
3.2188132542131e+22
3.21881338232083e+22
3.21881351250181e+22
3.21881364155822e+22
3.2188137648772e+22
3.21881388842101e+22
3.21881400929384e+22
3.21881412129476e+22
3.21881423340505e+22
3.21881433775389e+22
3.21881443304871e+22
3.21881452468014e+22
3.2188146086489e+22
3.21881468042167e+22
3.21881474782503e+22
3.21881480714439e+22
3.218814857913e+22
3.21881489748199e+22
3.21881493317687e+22
3.2188149564845e+22
3.21881497427008e+22
3.21881498536551e+22
3.21881499483376e+22
3.2188150010121e+22
3.21881500409909e+22
3.21881500107402e+22
3.21881499831845e+22
3.21881499707849e+22
3.21881500196182e+22
3.21881500978894e+22
3.21881501912184e+22
3.2188150285047e+22
3.21881503681213e+22
3.21881504396215e+22
3.21881505006657e+22
3.2188150552247e+22
3.21881505961327e+22
3.21881506480656e+22
3.21881507040389e+22
3.21881507554068e+22
3.2188150801595e+22
3.21881508440119e+22
3.21881508825387e+22
3.21881509183356e+22
3.21881509510621e+22
3.21881509821836e+22
3.21881510111856e+22
3.21881510387494e+22
3.21881510642576e+22
3.21881511027185e+22
3.21881511408199e+22
3.21881511781407e+22
3.21881512131947e+22
3.21881512476689e+22
3.21881512800288e+22
3.21881513119841e+22
3.21881513419116e+22
3.21881513715692e+22
3.21881513992609e+22
3.21881514267927e+22
3.21881514523717e+22
3.21881514779091e+22
3.21881515014662e+22
3.21881515251014e+22
3.21881515467078e+22
3.21881515715419e+22
3.21881516019755e+22
3.21881516325304e+22
3.21881516610864e+22
3.21881516898562e+22
3.21881517166107e+22
3.21881517437057e+22
3.2188151768749e+22
3.21881517942597e+22
3.21881518176905e+22
3.21881518416957e+22
3.21881518635956e+22
3.21881518861792e+22
3.21881519066207e+22
3.2188151927851e+22
3.21881519468781e+22
3.21881519668082e+22
3.21881519844856e+22
3.21881520031727e+22
3.21881520195537e+22
3.21881520370746e+22
3.2188152052238e+22
3.21881520686486e+22
3.21881520826452e+22
3.21881521039565e+22
3.21881521236309e+22
3.21881521448935e+22
3.21881521634649e+22
3.21881521837499e+22
3.2188152201273e+22
3.21881522206362e+22
3.2188152237169e+22
3.21881522556723e+22
3.218815227127e+22
3.21881522889744e+22
3.21881523036889e+22
3.21881523206343e+22
3.21881523345003e+22
3.21881523507229e+22
3.21881523637821e+22
3.21881523793614e+22
3.21881523918671e+22
3.21881524071838e+22
3.21881524191894e+22
3.21881524339489e+22
3.21881524452789e+22
3.21881524594717e+22
3.21881524701384e+22
3.21881524841949e+22
3.21881524949348e+22
3.21881525087937e+22
3.21881525188926e+22
3.2188152532889e+22
3.21881525433039e+22
3.21881525572919e+22
3.21881525682211e+22
3.21881525833092e+22
3.21881525967871e+22
3.21881526231442e+22
)
;

boundaryField
{
    electrode
    {
        type            zeroGradient;
    }
    ground
    {
        type            zeroGradient;
    }
    otherfaces
    {
        type            empty;
    }
}


// ************************************************************************* //
