/*--------------------------------*- C++ -*----------------------------------*\
| =========                 |                                                 |
| \\      /  F ield         | foam-extend: Open Source CFD                    |
|  \\    /   O peration     | Version:     4.0                                |
|   \\  /    A nd           | Web:         http://www.foam-extend.org         |
|    \\/     M anipulation  |                                                 |
\*---------------------------------------------------------------------------*/
FoamFile
{
    version     2.0;
    format      ascii;
    class       volScalarField;
    location    "8.2e-06";
    object      Arp1;
}
// * * * * * * * * * * * * * * * * * * * * * * * * * * * * * * * * * * * * * //

dimensions      [0 0 0 1 0 0 0];

internalField   nonuniform List<scalar> 
300
(
6.66936990229433e+16
6.67363344609642e+16
6.67094376015466e+16
6.6703812658725e+16
6.66934512951441e+16
6.66788212779514e+16
6.66616000456171e+16
6.6641087542802e+16
6.66173850514819e+16
6.65905074024126e+16
6.65604362297268e+16
6.65271723504766e+16
6.64907122234931e+16
6.64510520301105e+16
6.64081881321377e+16
6.63621165710334e+16
6.63128332095736e+16
6.6260333723298e+16
6.62046135937248e+16
6.61456681132306e+16
6.60834923852029e+16
6.60180813258194e+16
6.59494296654902e+16
6.58775319500639e+16
6.58023825427763e+16
6.57239756261129e+16
6.56423052030792e+16
6.55573650996393e+16
6.54691489667019e+16
6.5377650281932e+16
6.5282862352049e+16
6.51847783155621e+16
6.50833911446331e+16
6.49786936477384e+16
6.48706784726642e+16
6.47593381086331e+16
6.46446648894478e+16
6.4526650996619e+16
6.44052884618084e+16
6.42805691703368e+16
6.41524848645953e+16
6.40210271467782e+16
6.38861874827518e+16
6.3747957205647e+16
6.3606327519026e+16
6.34612895009725e+16
6.33128341080422e+16
6.31609521786409e+16
6.30056344374993e+16
6.28468714999046e+16
6.26846538752924e+16
6.25189719721362e+16
6.23498161022817e+16
6.21771764850971e+16
6.20010432522764e+16
6.18214064527124e+16
6.16382560568973e+16
6.14515819618103e+16
6.12613739962682e+16
6.10676219252809e+16
6.08703154554989e+16
6.06694442405608e+16
6.04649978857775e+16
6.02569659537752e+16
6.00453379699942e+16
5.9830103427606e+16
5.96112517933581e+16
5.9388772513208e+16
5.91626550174326e+16
5.89328887265576e+16
5.86994630572041e+16
5.84623674272848e+16
5.82215912620758e+16
5.79771240001197e+16
5.7728955098482e+16
5.74770740390134e+16
5.72214703341488e+16
5.6962133532437e+16
5.66990532244908e+16
5.64322190491085e+16
5.61616206987249e+16
5.58872479252451e+16
5.56090905462236e+16
5.5327138450224e+16
5.50413816026646e+16
5.47518100518438e+16
5.44584139342145e+16
5.41611834801531e+16
5.38601090198945e+16
5.35551809888973e+16
5.32463899333617e+16
5.29337265143707e+16
5.2617181511824e+16
5.22967458387094e+16
5.19724105577915e+16
5.16441668580583e+16
5.13120059631834e+16
5.09759191709293e+16
5.06358984883121e+16
5.02919369856566e+16
4.9944025753698e+16
4.95921487896992e+16
4.9236294509173e+16
4.88764911827877e+16
4.85127373165777e+16
4.81449802215e+16
4.77732165355746e+16
4.73974366795629e+16
4.70176298675188e+16
4.66337854688115e+16
4.62458930734914e+16
4.58539425423197e+16
4.54579240201303e+16
4.50578279387848e+16
4.46536450185039e+16
4.42453662692429e+16
4.38329829916176e+16
4.34164867782804e+16
4.2995869516095e+16
4.25711233880463e+16
4.21422408762351e+16
4.17092147654374e+16
4.12720381471369e+16
4.08307044247313e+16
4.03852073199785e+16
3.99355408802713e+16
3.94816994877202e+16
3.90236778702598e+16
3.85614711143109e+16
3.80950746804899e+16
3.7624484422209e+16
3.71496966075684e+16
3.66707079456906e+16
3.61875156181153e+16
3.57001173157454e+16
3.52085112831332e+16
3.47126963710873e+16
3.42126720989194e+16
3.37084387288004e+16
3.31999973541393e+16
3.26873500047515e+16
3.21704997717756e+16
3.16494509587131e+16
3.11242092556476e+16
3.05947819629508e+16
3.00611782236752e+16
2.95234093752203e+16
2.89814892355718e+16
2.84354346821923e+16
2.78852659684277e+16
2.73310076328559e+16
2.6772689288846e+16
2.62103450686859e+16
2.56440208629347e+16
2.50737582840133e+16
2.44996396825621e+16
2.39216873208092e+16
2.33401062058866e+16
2.27547488052518e+16
2.21662353862076e+16
2.15738477311585e+16
2.09792022813546e+16
2.03801481888363e+16
1.97809491114086e+16
1.91751814552317e+16
1.85721095592958e+16
1.79800152033131e+16
1.73829082268745e+16
1.67807977196759e+16
1.61798886534394e+16
1.55797186321316e+16
1.49920060764434e+16
1.4405876992497e+16
1.38380039341773e+16
1.32767761352911e+16
1.26957699985851e+16
1.21420699406802e+16
1.16261224953025e+16
1.10941073328872e+16
1.05749842693797e+16
1.01109378993914e+16
9.63758265174741e+15
9.17813507152637e+15
8.78804932767408e+15
8.37050886022528e+15
7.99687699137989e+15
7.67282243219466e+15
7.3379969210588e+15
7.02703962468059e+15
6.78154301138386e+15
6.521461471386e+15
6.28397101298905e+15
6.07524877797578e+15
5.92044293465078e+15
5.72518382349928e+15
5.57352950565282e+15
5.42904037914803e+15
5.33754738097122e+15
5.24678469355645e+15
5.16936763256567e+15
5.10936676435296e+15
5.10297121937254e+15
5.11330467755089e+15
5.14768324554021e+15
5.15028318719092e+15
5.13524248730947e+15
5.10069094931238e+15
5.05325482190582e+15
5.0031102625689e+15
4.95358987266729e+15
4.9070404743685e+15
4.86436644080582e+15
4.82634629973018e+15
4.77750447192062e+15
4.72390132615126e+15
4.67457001378535e+15
4.62994407010571e+15
4.58904170209034e+15
4.55228484972886e+15
4.51868886803314e+15
4.48871813023306e+15
4.46141603710156e+15
4.43725886936607e+15
4.41535032631556e+15
4.39622942850527e+15
4.3647288111679e+15
4.3341122392934e+15
4.30476784791408e+15
4.27812990561377e+15
4.25245143193988e+15
4.22922851811483e+15
4.20669692452419e+15
4.18642124875055e+15
4.16660265010916e+15
4.14889482079575e+15
4.1314343449556e+15
4.11599242815352e+15
4.10060372664228e+15
4.0871865993971e+15
4.07364339745164e+15
4.06205626714679e+15
4.04715430410821e+15
4.02653096263914e+15
4.00566017545513e+15
3.98664010099262e+15
3.96722896418136e+15
3.94965821195952e+15
3.93155511724295e+15
3.91530188212437e+15
3.89838173607749e+15
3.88333045253421e+15
3.86749443335854e+15
3.85355407546399e+15
3.83872051891278e+15
3.825823518611e+15
3.81192624027345e+15
3.80001834857414e+15
3.78700734706751e+15
3.77604079956758e+15
3.7638664605721e+15
3.75379965104875e+15
3.74241507183548e+15
3.73320380966617e+15
3.72256787853258e+15
3.71417230301301e+15
3.69829379244713e+15
3.68389319155288e+15
3.66775020424402e+15
3.65415661520462e+15
3.63870350954543e+15
3.62587598653274e+15
3.61106969233376e+15
3.59897083782814e+15
3.58477472858351e+15
3.57337035542655e+15
3.55974787892744e+15
3.54900676421749e+15
3.53592680907134e+15
3.52581744509211e+15
3.51324981248048e+15
3.50374577004827e+15
3.49166306906544e+15
3.48273882094257e+15
3.47111619981416e+15
3.46274368401954e+15
3.45154706805166e+15
3.44370072149839e+15
3.432908962044e+15
3.42556986378612e+15
3.41516362112366e+15
3.40831263271494e+15
3.39825336516532e+15
3.39185594244836e+15
3.3821262552173e+15
3.37615686407336e+15
3.36670817536048e+15
3.36113726710088e+15
3.35190900721971e+15
3.34520360058909e+15
3.32711443623865e+15
)
;

boundaryField
{
    electrode
    {
        type            driftDiffusionPositiveIonDensity;
        seec            0;
        fieldName       Arp1;
        value           uniform 6.65104845452149e+16;
    }
    ground
    {
        type            driftDiffusionPositiveIonDensity;
        seec            0;
        fieldName       Arp1;
        value           uniform 3.32711443623865e+15;
    }
    otherfaces
    {
        type            empty;
    }
}


// ************************************************************************* //
