/*--------------------------------*- C++ -*----------------------------------*\
| =========                 |                                                 |
| \\      /  F ield         | foam-extend: Open Source CFD                    |
|  \\    /   O peration     | Version:     4.0                                |
|   \\  /    A nd           | Web:         http://www.foam-extend.org         |
|    \\/     M anipulation  |                                                 |
\*---------------------------------------------------------------------------*/
FoamFile
{
    version     2.0;
    format      ascii;
    class       volVectorField;
    location    "8.2e-06";
    object      E;
}
// * * * * * * * * * * * * * * * * * * * * * * * * * * * * * * * * * * * * * //

dimensions      [0 0 0 1 0 0 0];

internalField   nonuniform List<vector> 
300
(
(5.43699370109119 -0 -0)
(11.0497385866215 -0 -0)
(19.4571888892381 -0 -0)
(27.2496006675785 -0 -0)
(34.9975260813255 -0 -0)
(42.8132922447593 -0 -0)
(50.6225050128656 -0 -0)
(58.44665628557 -0 -0)
(66.2866430245497 -0 -0)
(74.1427954573111 -0 -0)
(82.0173370469341 -0 -0)
(89.9118595951163 -0 -0)
(97.828038074511 -0 -0)
(105.767583766234 -0 -0)
(113.732203396723 -0 -0)
(121.723618863591 -0 -0)
(129.743564650228 -0 -0)
(137.793788321241 -0 -0)
(145.876051729778 -0 -0)
(153.992131708688 -0 -0)
(162.143820994777 -0 -0)
(170.332929073926 -0 -0)
(178.561283042941 -0 -0)
(186.830728592104 -0 -0)
(195.143130871103 -0 -0)
(203.500375454964 -0 -0)
(211.904369359919 -0 -0)
(220.357042017563 -0 -0)
(228.860346290766 -0 -0)
(237.416259576964 -0 -0)
(246.026784844781 -0 -0)
(254.693951791345 -0 -0)
(263.41981796271 -0 -0)
(272.206469977027 -0 -0)
(281.056024732605 -0 -0)
(289.970630652811 -0 -0)
(298.95246901754 -0 -0)
(308.00375530459 -0 -0)
(317.126740567752 -0 -0)
(326.323712909781 -0 -0)
(335.596998944575 -0 -0)
(344.948965362615 -0 -0)
(354.382020537093 -0 -0)
(363.898616152698 -0 -0)
(373.501248995858 -0 -0)
(383.192462714884 -0 -0)
(392.974849669412 -0 -0)
(402.851052887271 -0 -0)
(412.823768082591 -0 -0)
(422.895745759348 -0 -0)
(433.069793368036 -0 -0)
(443.348777610972 -0 -0)
(453.735626820737 -0 -0)
(464.233333408218 -0 -0)
(474.844956496791 -0 -0)
(485.573624533957 -0 -0)
(496.422538197365 -0 -0)
(507.394973316195 -0 -0)
(518.494283890844 -0 -0)
(529.723905373698 -0 -0)
(541.087358031708 -0 -0)
(552.588250440799 -0 -0)
(564.230283170493 -0 -0)
(576.017252708395 -0 -0)
(587.953055433569 -0 -0)
(600.041691917244 -0 -0)
(612.2872713802 -0 -0)
(624.694016311418 -0 -0)
(637.26626744343 -0 -0)
(650.008488850611 -0 -0)
(662.925273392381 -0 -0)
(676.021348392028 -0 -0)
(689.30158163012 -0 -0)
(702.770987595494 -0 -0)
(716.434734175725 -0 -0)
(730.298149545573 -0 -0)
(744.366729571317 -0 -0)
(758.646145521195 -0 -0)
(773.142252202894 -0 -0)
(787.861096587632 -0 -0)
(802.808926869769 -0 -0)
(817.992201998602 -0 -0)
(833.417601901589 -0 -0)
(849.092038005066 -0 -0)
(865.022664672894 -0 -0)
(881.216891057508 -0 -0)
(897.682393785725 -0 -0)
(914.427130278928 -0 -0)
(931.459352994191 -0 -0)
(948.787624437212 -0 -0)
(966.420833109592 -0 -0)
(984.368210222939 -0 -0)
(1002.63934744725 -0 -0)
(1021.24421686732 -0 -0)
(1040.19319338823 -0 -0)
(1059.49707374108 -0 -0)
(1079.16708593098 -0 -0)
(1099.21491132625 -0 -0)
(1119.65278496589 -0 -0)
(1140.4936106103 -0 -0)
(1161.75066643386 -0 -0)
(1183.4368277884 -0 -0)
(1205.56558781276 -0 -0)
(1228.15589387984 -0 -0)
(1251.23220233182 -0 -0)
(1274.81642030203 -0 -0)
(1298.92658349677 -0 -0)
(1323.58103175091 -0 -0)
(1348.79910023435 -0 -0)
(1374.6010915483 -0 -0)
(1401.00834323822 -0 -0)
(1428.04329535274 -0 -0)
(1455.72956185667 -0 -0)
(1484.09200783642 -0 -0)
(1513.15683308299 -0 -0)
(1542.95166247789 -0 -0)
(1573.50564388165 -0 -0)
(1604.84955417803 -0 -0)
(1637.01591446958 -0 -0)
(1670.03911506081 -0 -0)
(1703.9555515618 -0 -0)
(1738.80377301559 -0 -0)
(1774.62464345676 -0 -0)
(1811.46151828231 -0 -0)
(1849.36043709329 -0 -0)
(1888.37033479765 -0 -0)
(1928.54327299862 -0 -0)
(1969.93469404706 -0 -0)
(2012.60370029259 -0 -0)
(2056.61336162866 -0 -0)
(2102.03105450959 -0 -0)
(2148.92883654717 -0 -0)
(2197.38386083189 -0 -0)
(2247.47883509579 -0 -0)
(2299.30253141411 -0 -0)
(2352.95035315321 -0 -0)
(2408.52496652212 -0 -0)
(2466.13700563308 -0 -0)
(2525.9058611396 -0 -0)
(2587.9605640525 -0 -0)
(2652.44077845028 -0 -0)
(2719.49791870759 -0 -0)
(2789.29640993518 -0 -0)
(2862.01511284949 -0 -0)
(2937.84893901388 -0 -0)
(3017.01068497551 -0 -0)
(3099.73312277615 -0 -0)
(3186.2713844036 -0 -0)
(3276.90569608347 -0 -0)
(3371.94450871662 -0 -0)
(3471.72811551482 -0 -0)
(3576.63282338002 -0 -0)
(3687.07571670352 -0 -0)
(3803.52047311583 -0 -0)
(3926.48337774395 -0 -0)
(4056.54209294684 -0 -0)
(4194.34182651648 -0 -0)
(4340.61290424447 -0 -0)
(4496.16658299613 -0 -0)
(4661.94307159935 -0 -0)
(4838.97248306955 -0 -0)
(5028.48236347188 -0 -0)
(5231.79267255589 -0 -0)
(5450.61533556875 -0 -0)
(5686.62825855056 -0 -0)
(5942.72558067427 -0 -0)
(6224.95773530698 -0 -0)
(6538.38795671513 -0 -0)
(6885.47494658923 -0 -0)
(7269.73153127584 -0 -0)
(7696.65402418548 -0 -0)
(8174.5235981516 -0 -0)
(8712.7272298478 -0 -0)
(9322.37365260336 -0 -0)
(10014.8139933652 -0 -0)
(10794.5029081976 -0 -0)
(11670.4078756328 -0 -0)
(12662.4903315191 -0 -0)
(13781.7423184322 -0 -0)
(15033.06367919 -0 -0)
(16433.9701348511 -0 -0)
(17995.4449801617 -0 -0)
(19717.3795319001 -0 -0)
(21612.6901906513 -0 -0)
(23681.3566317574 -0 -0)
(25913.7356059076 -0 -0)
(28313.6052809883 -0 -0)
(30867.6105775262 -0 -0)
(33551.9089937018 -0 -0)
(36359.6145097568 -0 -0)
(39272.0968138944 -0 -0)
(42258.1641756207 -0 -0)
(45299.0870148791 -0 -0)
(48386.8128710508 -0 -0)
(51496.8978062424 -0 -0)
(54604.1645696266 -0 -0)
(57700.5889063097 -0 -0)
(60786.1636698007 -0 -0)
(63861.1403375093 -0 -0)
(66922.6838261031 -0 -0)
(69966.4184947924 -0 -0)
(73003.0255090181 -0 -0)
(76057.4786985878 -0 -0)
(79136.3993448122 -0 -0)
(82231.1172639298 -0 -0)
(85326.1879035069 -0 -0)
(88409.0160896176 -0 -0)
(91468.836344922 -0 -0)
(94500.1589527647 -0 -0)
(97501.8471919352 -0 -0)
(100474.756810375 -0 -0)
(103420.860730768 -0 -0)
(106342.687736537 -0 -0)
(109238.353007799 -0 -0)
(112103.142590286 -0 -0)
(114936.901818735 -0 -0)
(117742.33347308 -0 -0)
(120521.977583229 -0 -0)
(123278.201061038 -0 -0)
(126013.204217102 -0 -0)
(128729.036855128 -0 -0)
(131427.595283039 -0 -0)
(134110.632822045 -0 -0)
(136779.7785446 -0 -0)
(139436.551827262 -0 -0)
(142078.060738772 -0 -0)
(144700.839426442 -0 -0)
(147305.539139938 -0 -0)
(149893.360789441 -0 -0)
(152465.410935576 -0 -0)
(155022.720419638 -0 -0)
(157566.239144892 -0 -0)
(160096.856732207 -0 -0)
(162615.392076303 -0 -0)
(165122.620218861 -0 -0)
(167619.252864695 -0 -0)
(170105.973851167 -0 -0)
(172583.408322401 -0 -0)
(175052.167243958 -0 -0)
(177512.807522274 -0 -0)
(179965.881127421 -0 -0)
(182410.978358911 -0 -0)
(184845.374183832 -0 -0)
(187267.268493398 -0 -0)
(189677.144747483 -0 -0)
(192075.44307236 -0 -0)
(194462.600440567 -0 -0)
(196839.011184709 -0 -0)
(199205.072463027 -0 -0)
(201561.140829162 -0 -0)
(203907.578540043 -0 -0)
(206244.712305362 -0 -0)
(208572.876894934 -0 -0)
(210892.37436853 -0 -0)
(213203.519051976 -0 -0)
(215506.593208414 -0 -0)
(217801.894597605 -0 -0)
(220089.690230074 -0 -0)
(222370.263936772 -0 -0)
(224643.867555695 -0 -0)
(226910.772207919 -0 -0)
(229171.215781711 -0 -0)
(231425.456021728 -0 -0)
(233673.718440134 -0 -0)
(235916.248756668 -0 -0)
(238151.46562824 -0 -0)
(240377.557786963 -0 -0)
(242594.445222518 -0 -0)
(244802.371077681 -0 -0)
(247001.543187136 -0 -0)
(249192.192329271 -0 -0)
(251374.513376336 -0 -0)
(253548.725917441 -0 -0)
(255715.013726896 -0 -0)
(257873.586071586 -0 -0)
(260024.615808595 -0 -0)
(262168.302780005 -0 -0)
(264304.810441204 -0 -0)
(266434.329154714 -0 -0)
(268557.013274662 -0 -0)
(270673.045199065 -0 -0)
(272782.571046529 -0 -0)
(274885.765493303 -0 -0)
(276982.767126405 -0 -0)
(279073.742265581 -0 -0)
(281158.81923498 -0 -0)
(283238.156565997 -0 -0)
(285311.876337616 -0 -0)
(287380.13133032 -0 -0)
(289443.037628854 -0 -0)
(291500.742443537 -0 -0)
(293553.35018231 -0 -0)
(295600.997472936 -0 -0)
(297643.783658489 -0 -0)
(299681.837518905 -0 -0)
(301715.243472323 -0 -0)
(303744.120913555 -0 -0)
(305768.535620441 -0 -0)
(307788.154326944 -0 -0)
(309800.293431679 -0 -0)
)
;

boundaryField
{
    electrode
    {
        type            calculated;
        value           uniform (4.27282113605543 -0 -0);
    }
    ground
    {
        type            calculated;
        value           uniform (310803.629770467 -0 -0);
    }
    otherfaces
    {
        type            empty;
    }
}


// ************************************************************************* //
