/*--------------------------------*- C++ -*----------------------------------*\
| =========                 |                                                 |
| \\      /  F ield         | foam-extend: Open Source CFD                    |
|  \\    /   O peration     | Version:     4.0                                |
|   \\  /    A nd           | Web:         http://www.foam-extend.org         |
|    \\/     M anipulation  |                                                 |
\*---------------------------------------------------------------------------*/
FoamFile
{
    version     2.0;
    format      ascii;
    class       volVectorField;
    location    "8.2e-06";
    object      J_Arp1;
}
// * * * * * * * * * * * * * * * * * * * * * * * * * * * * * * * * * * * * * //

dimensions      [1 -1 -1 0 0 0 0];

internalField   nonuniform List<vector> 
300
(
(2.05822850292277e+16 -0 -0)
(7.35236604941344e+16 -0 -0)
(1.31046527274792e+17 -0 -0)
(1.82274263602453e+17 -0 -0)
(2.34196893033172e+17 -0 -0)
(2.86435750437127e+17 -0 -0)
(3.38539055410585e+17 -0 -0)
(3.90700670449942e+17 -0 -0)
(4.42891644855568e+17 -0 -0)
(4.95111229183973e+17 -0 -0)
(5.4736688007072e+17 -0 -0)
(5.99660790897578e+17 -0 -0)
(6.5199635117092e+17 -0 -0)
(7.0437692565165e+17 -0 -0)
(7.56805759232422e+17 -0 -0)
(8.09286108632756e+17 -0 -0)
(8.61821200794184e+17 -0 -0)
(9.14414234993414e+17 -0 -0)
(9.67068383257097e+17 -0 -0)
(1.01978678764157e+18 -0 -0)
(1.0725725592522e+18 -0 -0)
(1.12542877645952e+18 -0 -0)
(1.17835848315297e+18 -0 -0)
(1.23136468758981e+18 -0 -0)
(1.28445036032925e+18 -0 -0)
(1.33761843270773e+18 -0 -0)
(1.39087179540449e+18 -0 -0)
(1.44421329656869e+18 -0 -0)
(1.49764574007151e+18 -0 -0)
(1.55117188408268e+18 -0 -0)
(1.6047944389893e+18 -0 -0)
(1.65851606593882e+18 -0 -0)
(1.71233937487548e+18 -0 -0)
(1.76626692296827e+18 -0 -0)
(1.82030121275946e+18 -0 -0)
(1.87444469023411e+18 -0 -0)
(1.9286997431589e+18 -0 -0)
(1.98306869925681e+18 -0 -0)
(2.03755382424794e+18 -0 -0)
(2.09215732018201e+18 -0 -0)
(2.14688132343131e+18 -0 -0)
(2.20172790291762e+18 -0 -0)
(2.25669905824806e+18 -0 -0)
(2.31179671766174e+18 -0 -0)
(2.36702273652655e+18 -0 -0)
(2.42237889524286e+18 -0 -0)
(2.47786689731982e+18 -0 -0)
(2.53348836758854e+18 -0 -0)
(2.5892448503379e+18 -0 -0)
(2.64513780752986e+18 -0 -0)
(2.70116861672409e+18 -0 -0)
(2.75733856941045e+18 -0 -0)
(2.81364886923726e+18 -0 -0)
(2.87010062999563e+18 -0 -0)
(2.92669487411378e+18 -0 -0)
(2.98343253038306e+18 -0 -0)
(3.04031443272371e+18 -0 -0)
(3.09734131827566e+18 -0 -0)
(3.15451382538097e+18 -0 -0)
(3.21183249223745e+18 -0 -0)
(3.26929775518838e+18 -0 -0)
(3.32690994695117e+18 -0 -0)
(3.38466929494226e+18 -0 -0)
(3.4425759200396e+18 -0 -0)
(3.50062983462049e+18 -0 -0)
(3.55883094133117e+18 -0 -0)
(3.61717903162524e+18 -0 -0)
(3.67567378404486e+18 -0 -0)
(3.73431476318934e+18 -0 -0)
(3.79310141803859e+18 -0 -0)
(3.85203308085693e+18 -0 -0)
(3.91110896582399e+18 -0 -0)
(3.97032816786918e+18 -0 -0)
(4.02968966129866e+18 -0 -0)
(4.08919229899874e+18 -0 -0)
(4.14883481088997e+18 -0 -0)
(4.20861580325899e+18 -0 -0)
(4.26853375758538e+18 -0 -0)
(4.32858702947484e+18 -0 -0)
(4.38877384791984e+18 -0 -0)
(4.4490923143342e+18 -0 -0)
(4.50954040144942e+18 -0 -0)
(4.57011595316293e+18 -0 -0)
(4.63081668287505e+18 -0 -0)
(4.69164017352572e+18 -0 -0)
(4.7525838764528e+18 -0 -0)
(4.81364511096269e+18 -0 -0)
(4.87482106337419e+18 -0 -0)
(4.93610878682477e+18 -0 -0)
(4.99750520065403e+18 -0 -0)
(5.05900708999631e+18 -0 -0)
(5.12061110423738e+18 -0 -0)
(5.18231375501584e+18 -0 -0)
(5.24411142064761e+18 -0 -0)
(5.30600035883162e+18 -0 -0)
(5.36797669446357e+18 -0 -0)
(5.43003634057636e+18 -0 -0)
(5.49217496413053e+18 -0 -0)
(5.55438840206178e+18 -0 -0)
(5.61667325004514e+18 -0 -0)
(5.67902517079947e+18 -0 -0)
(5.74143396502095e+18 -0 -0)
(5.80388810295181e+18 -0 -0)
(5.86640424736898e+18 -0 -0)
(5.92902048736491e+18 -0 -0)
(5.99174918832308e+18 -0 -0)
(6.05458485578461e+18 -0 -0)
(6.11752048135711e+18 -0 -0)
(6.18054890909581e+18 -0 -0)
(6.24366279504581e+18 -0 -0)
(6.30685468825611e+18 -0 -0)
(6.37011704116794e+18 -0 -0)
(6.43344220913247e+18 -0 -0)
(6.49682244757786e+18 -0 -0)
(6.56024990901278e+18 -0 -0)
(6.62371663967357e+18 -0 -0)
(6.68721457591322e+18 -0 -0)
(6.75073554007206e+18 -0 -0)
(6.81427123666525e+18 -0 -0)
(6.87781324753811e+18 -0 -0)
(6.94135302741843e+18 -0 -0)
(7.00488189885267e+18 -0 -0)
(7.06839104694786e+18 -0 -0)
(7.13187151377518e+18 -0 -0)
(7.19531419262389e+18 -0 -0)
(7.2587098218466e+18 -0 -0)
(7.32204897829428e+18 -0 -0)
(7.38532207060945e+18 -0 -0)
(7.44851933185339e+18 -0 -0)
(7.51163081208383e+18 -0 -0)
(7.57464637009594e+18 -0 -0)
(7.63755566515946e+18 -0 -0)
(7.7003481479838e+18 -0 -0)
(7.76301305127487e+18 -0 -0)
(7.82553937959519e+18 -0 -0)
(7.88791589902736e+18 -0 -0)
(7.95013112586418e+18 -0 -0)
(8.01217331476022e+18 -0 -0)
(8.07403044634785e+18 -0 -0)
(8.13569021394283e+18 -0 -0)
(8.19714000973407e+18 -0 -0)
(8.25836690970629e+18 -0 -0)
(8.31935765886985e+18 -0 -0)
(8.38009865307025e+18 -0 -0)
(8.44057592591265e+18 -0 -0)
(8.50077512158104e+18 -0 -0)
(8.56068149302164e+18 -0 -0)
(8.6202798517926e+18 -0 -0)
(8.67955459854868e+18 -0 -0)
(8.73848961931238e+18 -0 -0)
(8.79706835384491e+18 -0 -0)
(8.85527385279743e+18 -0 -0)
(8.91308789955702e+18 -0 -0)
(8.97049408033366e+18 -0 -0)
(9.02746931700654e+18 -0 -0)
(9.0840046078365e+18 -0 -0)
(9.14005494519055e+18 -0 -0)
(9.19565865357424e+18 -0 -0)
(9.25066709572326e+18 -0 -0)
(9.30530495082666e+18 -0 -0)
(9.35911716301818e+18 -0 -0)
(9.41280157315143e+18 -0 -0)
(9.46511242949106e+18 -0 -0)
(9.51823871001776e+18 -0 -0)
(9.56856277265549e+18 -0 -0)
(9.62098645695125e+18 -0 -0)
(9.67132654922393e+18 -0 -0)
(9.7213156471537e+18 -0 -0)
(9.77040703597997e+18 -0 -0)
(9.81947652393289e+18 -0 -0)
(9.86660856955025e+18 -0 -0)
(9.91552339645415e+18 -0 -0)
(9.95972265478298e+18 -0 -0)
(1.00090438273037e+19 -0 -0)
(1.00514838283385e+19 -0 -0)
(1.0095330971892e+19 -0 -0)
(1.01393502627364e+19 -0 -0)
(1.01835898747984e+19 -0 -0)
(1.02196397368031e+19 -0 -0)
(1.02621984091501e+19 -0 -0)
(1.03017779715742e+19 -0 -0)
(1.03342521977646e+19 -0 -0)
(1.0370221186513e+19 -0 -0)
(1.0408242698401e+19 -0 -0)
(1.04291739852512e+19 -0 -0)
(1.04699679300472e+19 -0 -0)
(1.0489737141202e+19 -0 -0)
(1.05204979217985e+19 -0 -0)
(1.05394978192146e+19 -0 -0)
(1.05735448931289e+19 -0 -0)
(1.0583607287707e+19 -0 -0)
(1.06197169766466e+19 -0 -0)
(1.06320021842973e+19 -0 -0)
(1.0673445442163e+19 -0 -0)
(1.06827055377376e+19 -0 -0)
(1.07388271741228e+19 -0 -0)
(1.07577540511008e+19 -0 -0)
(1.08368586660321e+19 -0 -0)
(1.08855889274811e+19 -0 -0)
(1.10195261389104e+19 -0 -0)
(1.11609324549838e+19 -0 -0)
(1.13958337192861e+19 -0 -0)
(1.16504538352625e+19 -0 -0)
(1.19442227606276e+19 -0 -0)
(1.21470077978471e+19 -0 -0)
(1.2363283718395e+19 -0 -0)
(1.25289163374718e+19 -0 -0)
(1.26435473411546e+19 -0 -0)
(1.27316954682095e+19 -0 -0)
(1.28024555441136e+19 -0 -0)
(1.28629382002167e+19 -0 -0)
(1.29167494169154e+19 -0 -0)
(1.29673413291744e+19 -0 -0)
(1.30139772938352e+19 -0 -0)
(1.30611280690554e+19 -0 -0)
(1.31065413722435e+19 -0 -0)
(1.31527308900534e+19 -0 -0)
(1.31980018211716e+19 -0 -0)
(1.32445117987486e+19 -0 -0)
(1.32902525242415e+19 -0 -0)
(1.33373228164099e+19 -0 -0)
(1.33835471674462e+19 -0 -0)
(1.34309189780215e+19 -0 -0)
(1.34772400428333e+19 -0 -0)
(1.35247129858218e+19 -0 -0)
(1.35701691072321e+19 -0 -0)
(1.36178835369619e+19 -0 -0)
(1.36628535935282e+19 -0 -0)
(1.37100503353123e+19 -0 -0)
(1.37542839443829e+19 -0 -0)
(1.38007167483258e+19 -0 -0)
(1.3843928940389e+19 -0 -0)
(1.38893314450754e+19 -0 -0)
(1.39312362405064e+19 -0 -0)
(1.39753859104079e+19 -0 -0)
(1.40157380897314e+19 -0 -0)
(1.40584762734343e+19 -0 -0)
(1.4097085887969e+19 -0 -0)
(1.41383053380742e+19 -0 -0)
(1.41750477020128e+19 -0 -0)
(1.42146987650761e+19 -0 -0)
(1.42494631719924e+19 -0 -0)
(1.42873098203687e+19 -0 -0)
(1.43204715600683e+19 -0 -0)
(1.43566349569281e+19 -0 -0)
(1.43878988882023e+19 -0 -0)
(1.44224654380006e+19 -0 -0)
(1.44518246727387e+19 -0 -0)
(1.44848260470807e+19 -0 -0)
(1.45122983805326e+19 -0 -0)
(1.4543760023372e+19 -0 -0)
(1.45694004299138e+19 -0 -0)
(1.45993839442486e+19 -0 -0)
(1.46232620198476e+19 -0 -0)
(1.46518717508374e+19 -0 -0)
(1.46740740904236e+19 -0 -0)
(1.47014269581892e+19 -0 -0)
(1.47220668274692e+19 -0 -0)
(1.47482718391968e+19 -0 -0)
(1.47674330348107e+19 -0 -0)
(1.4792593523328e+19 -0 -0)
(1.4810342217393e+19 -0 -0)
(1.48345243523724e+19 -0 -0)
(1.4850923779025e+19 -0 -0)
(1.48742252624073e+19 -0 -0)
(1.48891187189138e+19 -0 -0)
(1.4911878790709e+19 -0 -0)
(1.49255162785997e+19 -0 -0)
(1.49475219185124e+19 -0 -0)
(1.4959965017649e+19 -0 -0)
(1.49812991500448e+19 -0 -0)
(1.49925999008205e+19 -0 -0)
(1.50133325233605e+19 -0 -0)
(1.50235497663227e+19 -0 -0)
(1.50437454461065e+19 -0 -0)
(1.50529204776966e+19 -0 -0)
(1.50726390439461e+19 -0 -0)
(1.50808198396186e+19 -0 -0)
(1.51001043127952e+19 -0 -0)
(1.51073279569699e+19 -0 -0)
(1.51262286618019e+19 -0 -0)
(1.51325308934116e+19 -0 -0)
(1.51510891062737e+19 -0 -0)
(1.51565044587445e+19 -0 -0)
(1.51747383965037e+19 -0 -0)
(1.51792494087379e+19 -0 -0)
(1.51971763303097e+19 -0 -0)
(1.52008111903672e+19 -0 -0)
(1.52184675403468e+19 -0 -0)
(1.5221253324445e+19 -0 -0)
(1.52386656731066e+19 -0 -0)
(1.52405348123003e+19 -0 -0)
(1.52576510365245e+19 -0 -0)
(1.52586209350278e+19 -0 -0)
(1.52754205359672e+19 -0 -0)
(1.52753596805639e+19 -0 -0)
(1.52917949718812e+19 -0 -0)
(1.52905157915491e+19 -0 -0)
(1.53063006167598e+19 -0 -0)
(1.52818859726684e+19 -0 -0)
)
;

boundaryField
{
    electrode
    {
        type            calculated;
        value           uniform (-13923989793.8935 -0 -0);
    }
    ground
    {
        type            calculated;
        value           uniform (1.53106991450359e+19 -0 -0);
    }
    otherfaces
    {
        type            empty;
    }
}


// ************************************************************************* //
