/*--------------------------------*- C++ -*----------------------------------*\
| =========                 |                                                 |
| \\      /  F ield         | foam-extend: Open Source CFD                    |
|  \\    /   O peration     | Version:     4.0                                |
|   \\  /    A nd           | Web:         http://www.foam-extend.org         |
|    \\/     M anipulation  |                                                 |
\*---------------------------------------------------------------------------*/
FoamFile
{
    version     2.0;
    format      ascii;
    class       volVectorField;
    location    "8.2e-06";
    object      J_electron;
}
// * * * * * * * * * * * * * * * * * * * * * * * * * * * * * * * * * * * * * //

dimensions      [1 -1 -1 0 0 0 0];

internalField   nonuniform List<vector> 
300
(
(-1.33618855035556e+19 0 0)
(-1.37148774303644e+19 0 0)
(-1.62114919469408e+19 0 0)
(-1.57106663264923e+19 0 0)
(-1.57066873843202e+19 0 0)
(-1.56921835566136e+19 0 0)
(-1.56254968941544e+19 0 0)
(-1.55752704279191e+19 0 0)
(-1.55226150743676e+19 0 0)
(-1.54692725674065e+19 0 0)
(-1.54162915249567e+19 0 0)
(-1.53631735301202e+19 0 0)
(-1.53100126016352e+19 0 0)
(-1.52568125485634e+19 0 0)
(-1.52035597444121e+19 0 0)
(-1.51502540806722e+19 0 0)
(-1.50968919471656e+19 0 0)
(-1.50434699386613e+19 0 0)
(-1.49899849285357e+19 0 0)
(-1.49364336346544e+19 0 0)
(-1.48828129078432e+19 0 0)
(-1.48291196075442e+19 0 0)
(-1.47753505480855e+19 0 0)
(-1.47215027116127e+19 0 0)
(-1.46675730171708e+19 0 0)
(-1.46135584091317e+19 0 0)
(-1.45594559346767e+19 0 0)
(-1.45052626493659e+19 0 0)
(-1.445097560835e+19 0 0)
(-1.4396591993215e+19 0 0)
(-1.43421089247661e+19 0 0)
(-1.428752365259e+19 0 0)
(-1.42328334100228e+19 0 0)
(-1.4178035506447e+19 0 0)
(-1.41231273052718e+19 0 0)
(-1.40681061858968e+19 0 0)
(-1.40129695995861e+19 0 0)
(-1.39577150501147e+19 0 0)
(-1.39023400632042e+19 0 0)
(-1.38468422728696e+19 0 0)
(-1.3791219310269e+19 0 0)
(-1.37354688862188e+19 0 0)
(-1.36795887920019e+19 0 0)
(-1.36235767916711e+19 0 0)
(-1.35674308022313e+19 0 0)
(-1.35111487608395e+19 0 0)
(-1.34547286526463e+19 0 0)
(-1.33981685437623e+19 0 0)
(-1.33414665350994e+19 0 0)
(-1.328462083238e+19 0 0)
(-1.32276296565174e+19 0 0)
(-1.31704913065725e+19 0 0)
(-1.31132041832206e+19 0 0)
(-1.30557666731158e+19 0 0)
(-1.29981773465374e+19 0 0)
(-1.29404346940074e+19 0 0)
(-1.28825373614725e+19 0 0)
(-1.2824484093332e+19 0 0)
(-1.27662735983336e+19 0 0)
(-1.27079047056848e+19 0 0)
(-1.26493763274945e+19 0 0)
(-1.25906874290463e+19 0 0)
(-1.25318369884648e+19 0 0)
(-1.24728241545625e+19 0 0)
(-1.24136480311568e+19 0 0)
(-1.23543078306699e+19 0 0)
(-1.22948028722813e+19 0 0)
(-1.22351324388881e+19 0 0)
(-1.21752959755949e+19 0 0)
(-1.21152929112573e+19 0 0)
(-1.20551227715064e+19 0 0)
(-1.19947851127081e+19 0 0)
(-1.19342795934471e+19 0 0)
(-1.18736058325244e+19 0 0)
(-1.18127636144799e+19 0 0)
(-1.17517526631795e+19 0 0)
(-1.16905728106698e+19 0 0)
(-1.16292239262498e+19 0 0)
(-1.15677058856292e+19 0 0)
(-1.15060186205834e+19 0 0)
(-1.14441621205082e+19 0 0)
(-1.13821362756224e+19 0 0)
(-1.13199412168633e+19 0 0)
(-1.12575768513395e+19 0 0)
(-1.1195043271157e+19 0 0)
(-1.11323404710602e+19 0 0)
(-1.1069468521037e+19 0 0)
(-1.10064273804189e+19 0 0)
(-1.09432170660632e+19 0 0)
(-1.08798375413416e+19 0 0)
(-1.08162888307263e+19 0 0)
(-1.07525708988264e+19 0 0)
(-1.06886830864691e+19 0 0)
(-1.06246241494651e+19 0 0)
(-1.05603953949902e+19 0 0)
(-1.04960028385754e+19 0 0)
(-1.0431445408065e+19 0 0)
(-1.03666853906329e+19 0 0)
(-1.03016879267523e+19 0 0)
(-1.02366186218864e+19 0 0)
(-1.01718205060062e+19 0 0)
(-1.01066888868004e+19 0 0)
(-1.0038603316654e+19 0 0)
(-9.96764029131214e+18 0 0)
(-9.89842891173161e+18 0 0)
(-9.83167893533989e+18 0 0)
(-9.76511007972445e+18 0 0)
(-9.69837232405715e+18 0 0)
(-9.63138777059269e+18 0 0)
(-9.56413084504739e+18 0 0)
(-9.49659338002661e+18 0 0)
(-9.42877031445142e+18 0 0)
(-9.36065683468059e+18 0 0)
(-9.29224750262806e+18 0 0)
(-9.22353611743271e+18 0 0)
(-9.15451557590545e+18 0 0)
(-9.08517784208015e+18 0 0)
(-9.01551373105758e+18 0 0)
(-8.94551298131414e+18 0 0)
(-8.87516395882047e+18 0 0)
(-8.80445367025821e+18 0 0)
(-8.73336754417697e+18 0 0)
(-8.66188931846531e+18 0 0)
(-8.59000084347748e+18 0 0)
(-8.51768190478791e+18 0 0)
(-8.44491003172382e+18 0 0)
(-8.37166021703631e+18 0 0)
(-8.29790471632087e+18 0 0)
(-8.22361268340182e+18 0 0)
(-8.14874994205e+18 0 0)
(-8.07327848687416e+18 0 0)
(-7.99715620035546e+18 0 0)
(-7.92033632376534e+18 0 0)
(-7.84276696551391e+18 0 0)
(-7.76439046091938e+18 0 0)
(-7.68514280788748e+18 0 0)
(-7.60495284184521e+18 0 0)
(-7.52374140990757e+18 0 0)
(-7.44142045705667e+18 0 0)
(-7.35789188302871e+18 0 0)
(-7.27304639498682e+18 0 0)
(-7.18676199366512e+18 0 0)
(-7.09890259061047e+18 0 0)
(-7.00931588249092e+18 0 0)
(-6.91783189187789e+18 0 0)
(-6.82425960096491e+18 0 0)
(-6.72838603150302e+18 0 0)
(-6.6299704975284e+18 0 0)
(-6.52874546114829e+18 0 0)
(-6.42440768324633e+18 0 0)
(-6.31661053688047e+18 0 0)
(-6.20500435769858e+18 0 0)
(-6.08906124142209e+18 0 0)
(-5.96852609150616e+18 0 0)
(-5.84234193686574e+18 0 0)
(-5.71106750637277e+18 0 0)
(-5.57129518920447e+18 0 0)
(-5.42806535954131e+18 0 0)
(-5.26946153038401e+18 0 0)
(-5.11250088678811e+18 0 0)
(-4.92788887542825e+18 0 0)
(-4.75441564813151e+18 0 0)
(-4.51012233710587e+18 0 0)
(-4.28881191070125e+18 0 0)
(-3.86440825489116e+18 0 0)
(-2.88842930560854e+18 0 0)
(-2.2645555479047e+18 0 0)
(-2.2525862854074e+18 0 0)
(-2.11062507392362e+18 0 0)
(-1.74395005470455e+18 0 0)
(-1.04872486375522e+18 0 0)
(-4.09400453525144e+17 0 0)
(1.80809475851026e+17 0 0)
(5.28819514336346e+17 0 0)
(-2.99586916450304e+17 0 0)
(-7.03409935597175e+17 0 0)
(-5.23920910550303e+16 0 0)
(-7.33074539669357e+17 0 0)
(-2.12154108087475e+18 0 0)
(-2.26256093122134e+18 0 0)
(-3.00363755766887e+18 0 0)
(-4.13533586470312e+18 0 0)
(-3.91870724824157e+18 0 0)
(-4.25228826136858e+18 0 0)
(-4.03508641262574e+18 0 0)
(-2.25668950218139e+18 0 0)
(-4.67984485440291e+17 0 0)
(1.78149647592089e+18 0 0)
(5.00513136012218e+18 0 0)
(7.90345824743562e+18 0 0)
(1.03416389674729e+19 0 0)
(1.23778683262106e+19 0 0)
(1.36006296117767e+19 0 0)
(1.37034843291619e+19 0 0)
(1.3834856612779e+19 0 0)
(1.06459911972243e+19 0 0)
(1.00896768156313e+19 0 0)
(7.0778757987348e+18 0 0)
(6.74893681469142e+18 0 0)
(4.84682393434725e+18 0 0)
(-3.431181533551e+18 0 0)
(2.08821149501646e+18 0 0)
(-1.50343737118603e+18 0 0)
(-2.13502504842958e+18 0 0)
(-2.04713076496295e+18 0 0)
(-2.04262651881065e+18 0 0)
(-2.24407759784767e+18 0 0)
(-2.53668316921135e+18 0 0)
(-2.78023449090291e+18 0 0)
(-2.91454175234786e+18 0 0)
(-2.97403413073429e+18 0 0)
(-2.9843689987559e+18 0 0)
(-2.97248811114239e+18 0 0)
(-2.94517184226421e+18 0 0)
(-2.91050016540172e+18 0 0)
(-2.87502687165775e+18 0 0)
(-2.83387064697541e+18 0 0)
(-2.78898466476857e+18 0 0)
(-2.74283004880823e+18 0 0)
(-2.69646918498468e+18 0 0)
(-2.65039137852897e+18 0 0)
(-2.60329963060793e+18 0 0)
(-2.55649309086578e+18 0 0)
(-2.5091873737156e+18 0 0)
(-2.46166838423255e+18 0 0)
(-2.41414047556639e+18 0 0)
(-2.36670413939817e+18 0 0)
(-2.31947518022743e+18 0 0)
(-2.27254617006735e+18 0 0)
(-2.22600176919878e+18 0 0)
(-2.17991884555e+18 0 0)
(-2.13436719681588e+18 0 0)
(-2.08940972743122e+18 0 0)
(-2.04510247474503e+18 0 0)
(-2.00149433523769e+18 0 0)
(-1.95862950134548e+18 0 0)
(-1.91653520177404e+18 0 0)
(-1.8752692102746e+18 0 0)
(-1.83468056581578e+18 0 0)
(-1.79523144179974e+18 0 0)
(-1.75653016733654e+18 0 0)
(-1.7187046270677e+18 0 0)
(-1.68175627391034e+18 0 0)
(-1.64569173564711e+18 0 0)
(-1.61051600128417e+18 0 0)
(-1.57622489359691e+18 0 0)
(-1.54281154910586e+18 0 0)
(-1.51026596999061e+18 0 0)
(-1.47857614212243e+18 0 0)
(-1.44772789068795e+18 0 0)
(-1.41770574045452e+18 0 0)
(-1.38849245758304e+18 0 0)
(-1.36007194515708e+18 0 0)
(-1.33242249644209e+18 0 0)
(-1.30555232643079e+18 0 0)
(-1.27933794965554e+18 0 0)
(-1.25390408264534e+18 0 0)
(-1.22919706392832e+18 0 0)
(-1.20508417698744e+18 0 0)
(-1.18165162143961e+18 0 0)
(-1.15884313369343e+18 0 0)
(-1.13664472398151e+18 0 0)
(-1.11503579137703e+18 0 0)
(-1.0939982875379e+18 0 0)
(-1.07351589565937e+18 0 0)
(-1.05356810646729e+18 0 0)
(-1.03413495975759e+18 0 0)
(-1.01520099244905e+18 0 0)
(-9.96749275744897e+17 0 0)
(-9.78759767908292e+17 0 0)
(-9.61206036013311e+17 0 0)
(-9.44009825943542e+17 0 0)
(-9.27464260056603e+17 0 0)
(-9.11195084407464e+17 0 0)
(-8.95330325398882e+17 0 0)
(-8.79841181899211e+17 0 0)
(-8.64724217216381e+17 0 0)
(-8.49966951064997e+17 0 0)
(-8.35558832127904e+17 0 0)
(-8.21488317852849e+17 0 0)
(-8.07745910882626e+17 0 0)
(-7.94310827581289e+17 0 0)
(-7.81190755534964e+17 0 0)
(-7.68176288413485e+17 0 0)
(-7.55778647742935e+17 0 0)
(-7.4370986804811e+17 0 0)
(-7.31816201364156e+17 0 0)
(-7.20182228257411e+17 0 0)
(-7.08844013884402e+17 0 0)
(-6.97327595536548e+17 0 0)
(-6.87095735016986e+17 0 0)
(-6.76648094488967e+17 0 0)
(-6.66187849980146e+17 0 0)
(-6.5651662159161e+17 0 0)
(-6.47170628571633e+17 0 0)
(-6.37961699839725e+17 0 0)
(-6.29766050780932e+17 0 0)
(-6.22534006264462e+17 0 0)
(-6.16145565027466e+17 0 0)
(-6.05215861898557e+17 0 0)
)
;

boundaryField
{
    electrode
    {
        type            calculated;
        value           uniform (-1.59747228010315e+19 0 0);
    }
    ground
    {
        type            calculated;
        value           uniform (-6.0256441472952e+17 0 0);
    }
    otherfaces
    {
        type            empty;
    }
}


// ************************************************************************* //
