/*--------------------------------*- C++ -*----------------------------------*\
| =========                 |                                                 |
| \\      /  F ield         | foam-extend: Open Source CFD                    |
|  \\    /   O peration     | Version:     4.0                                |
|   \\  /    A nd           | Web:         http://www.foam-extend.org         |
|    \\/     M anipulation  |                                                 |
\*---------------------------------------------------------------------------*/
FoamFile
{
    version     2.0;
    format      ascii;
    class       volScalarField;
    location    "8.2e-06";
    object      N_electronMean;
}
// * * * * * * * * * * * * * * * * * * * * * * * * * * * * * * * * * * * * * //

dimensions      [0 0 0 1 0 0 0];

internalField   nonuniform List<scalar> 
300
(
6.15691544908507e+16
6.15676212598401e+16
6.15634564328796e+16
6.15562086553138e+16
6.15459204566477e+16
6.15325585210263e+16
6.15161061095069e+16
6.14965545039355e+16
6.14738948398955e+16
6.14481204825277e+16
6.14192264098078e+16
6.13872090277722e+16
6.13520660845906e+16
6.13137965431758e+16
6.12724004991459e+16
6.12278790989837e+16
6.11802344699247e+16
6.11294696598732e+16
6.10755885789465e+16
6.10185959441306e+16
6.09584972303328e+16
6.08952986240273e+16
6.08290069785305e+16
6.07596297682027e+16
6.06871750549543e+16
6.06116514619172e+16
6.05330681254716e+16
6.04514346475308e+16
6.03667610565803e+16
6.0279057755256e+16
6.01883354863375e+16
6.00946053233985e+16
5.99978786230826e+16
5.98981669484958e+16
5.97954820140895e+16
5.96898356415084e+16
5.95812397161399e+16
5.94697061473023e+16
5.93552468247486e+16
5.92378735745321e+16
5.91175981227742e+16
5.89944320588014e+16
5.88683867913821e+16
5.87394735087547e+16
5.86077031441451e+16
5.84730863422095e+16
5.83356334278233e+16
5.81953543783416e+16
5.8052258802326e+16
5.79063559245122e+16
5.77576545858788e+16
5.76061632444461e+16
5.74518899521759e+16
5.7294842311736e+16
5.71350274144935e+16
5.69724517767376e+16
5.68071212851228e+16
5.66390411540415e+16
5.64682158931624e+16
5.6294649276052e+16
5.61183443120973e+16
5.59393032205265e+16
5.57575274015489e+16
5.55730174305156e+16
5.53857730797816e+16
5.51957932915443e+16
5.50030761046946e+16
5.48076186116248e+16
5.46094169379615e+16
5.44084662221429e+16
5.42047605949209e+16
5.39982931710284e+16
5.37890560638623e+16
5.35770403755536e+16
5.33622361586846e+16
5.31446324195144e+16
5.29242171367041e+16
5.270097724312e+16
5.2474898572739e+16
5.22459658285143e+16
5.201416257991e+16
5.17794712080244e+16
5.15418728528862e+16
5.13013473970274e+16
5.10578734594828e+16
5.08114284072548e+16
5.05619883326887e+16
5.03095280030874e+16
5.00540208401062e+16
4.97954389206974e+16
4.95337529592042e+16
4.92689323224191e+16
4.90009450538196e+16
4.87297578111693e+16
4.84553358080539e+16
4.81776428016328e+16
4.78966410799834e+16
4.7612291450134e+16
4.73245532265001e+16
4.70333842287095e+16
4.67387407788551e+16
4.64405776802738e+16
4.61388482218858e+16
4.58335042014686e+16
4.55244959090024e+16
4.52117721287725e+16
4.48952801553419e+16
4.45749657905736e+16
4.42507733520081e+16
4.39226456582825e+16
4.35905240063719e+16
4.32543481687702e+16
4.29140564002776e+16
4.2569585459504e+16
4.22208706162876e+16
4.18678456592504e+16
4.15104429440129e+16
4.11485934169958e+16
4.07822265862966e+16
4.04112705002815e+16
4.00356517743379e+16
3.96552956335218e+16
3.92701259481712e+16
3.88800652778949e+16
3.84850348654126e+16
3.8084954595135e+16
3.76797430054578e+16
3.72693173231341e+16
3.68535934663163e+16
3.64324860560312e+16
3.6005908450456e+16
3.5573772778092e+16
3.51359899620705e+16
3.4692469741886e+16
3.42431207480906e+16
3.37878505913939e+16
3.33265658660802e+16
3.28591721153334e+16
3.23855738391752e+16
3.19056745319415e+16
3.14193766930681e+16
3.09265818315623e+16
3.04271904873751e+16
2.99211022627636e+16
2.94082159013499e+16
2.88884293534218e+16
2.83616397632953e+16
2.78277434414721e+16
2.72866358324222e+16
2.67382115359161e+16
2.61823643845991e+16
2.56189874471931e+16
2.50479730432418e+16
2.44692128161217e+16
2.3882597727476e+16
2.32880181443578e+16
2.2685363957149e+16
2.20745248066441e+16
2.1455390020614e+16
2.08278482423224e+16
2.01917851296899e+16
1.95470705606398e+16
1.88935397248968e+16
1.82309850107794e+16
1.75591552700083e+16
1.68777438580417e+16
1.61863819996043e+16
1.54846786304068e+16
1.47722711491462e+16
1.40488417831548e+16
1.33141425484881e+16
1.25680780451528e+16
1.18108395379961e+16
1.1043065351552e+16
1.02660730504216e+16
9.48209387360318e+15
8.69437346177137e+15
7.90729856086155e+15
7.12655737415959e+15
6.35905583649476e+15
5.61265127034117e+15
4.89584811611234e+15
4.21726439582016e+15
3.58494928493894e+15
3.00578094924475e+15
2.48486866009908e+15
2.02510107351745e+15
1.62702575514275e+15
1.28894489387192e+15
1.00721409054725e+15
776740923707918
591542838228083
445263359357786
331619462937008
244400894945260
178257404721586
128765493608190
92138986278074.2
65219179019508.1
45395255014137.7
31025820243620.5
20888325301900.6
13799403113420
8974993840490.87
5886906110139.27
4039342546041.37
2988203367309.19
2399729743098.71
2064841097288.58
1867369158041.87
1745943003020.94
1668060227272.02
1615867380941.06
1579183830573.66
1551946937272.7
1530375309962.48
1511997364642.77
1495167286042.67
1478854064952.95
1462418439124.06
1445383205491.74
1427427762108.7
1408398216019.73
1388214397569.99
1366869388398.66
1344403928888.84
1320892321088.46
1296430272285.1
1271126968948.23
1245099235030.64
1218467156677.19
1191351336803.28
1163869797497.61
1136136375932.89
1108259543742.63
1080341091115.13
1052475374676.32
1024749309959.73
997241554541.207
970021812952.672
943150353455.005
916679995295.278
890658653836.369
865128863927.065
840127393143.052
815685010467.488
791825932935.039
768568756733.323
745926996401.271
723909756032.435
702523046330.603
681769684919.225
661649147240.189
642157878833.991
623289918642.893
605038360907.909
587392949002.785
570339166489.723
553863704311.083
537954202581.43
522596603650.676
507775613087.768
493475469516.826
479679978893.339
466372823710.344
453537871042.72
441158361962.365
429217298847.623
417698082266.436
406584097115.376
395858322164.529
385503119024.503
375501885688.718
365841501307.755
356510955914.143
347500063702.698
338799312814.182
330399734765.873
322293114337.719
314472027265.384
306929748385.21
299659646921.514
292654451744.26
285897727177.641
279363127905.825
273037977016.021
266928339828.961
261044662288.084
255398223165.866
249980712923.648
244766151160.429
239763120040.216
235015946762.343
230528547196.21
226328119764.664
222497597228.325
219162452194.215
216581693918.497
215183285620.256
215727146797.866
)
;

boundaryField
{
    electrode
    {
        type            calculated;
        value           uniform 6.15691544909953e+16;
    }
    ground
    {
        type            calculated;
        value           uniform 217513903412.812;
    }
    otherfaces
    {
        type            empty;
    }
}


// ************************************************************************* //
