/*--------------------------------*- C++ -*----------------------------------*\
| =========                 |                                                 |
| \\      /  F ield         | foam-extend: Open Source CFD                    |
|  \\    /   O peration     | Version:     4.0                                |
|   \\  /    A nd           | Web:         http://www.foam-extend.org         |
|    \\/     M anipulation  |                                                 |
\*---------------------------------------------------------------------------*/
FoamFile
{
    version     2.0;
    format      ascii;
    class       volScalarField;
    location    "8.2e-06";
    object      PhiMean;
}
// * * * * * * * * * * * * * * * * * * * * * * * * * * * * * * * * * * * * * //

dimensions      [0 0 0 1 0 0 0];

internalField   nonuniform List<scalar> 
300
(
699.990997748813
699.99003555906
699.988797746719
699.98731000709
699.985581440652
699.983605666492
699.981382509024
699.978911035031
699.97619028552
699.97321952403
699.969998063549
699.966525300089
699.962800689208
699.958823738009
699.954593998152
699.950111057981
699.945374536477
699.940384078816
699.935139351218
699.929640035785
699.923885826949
699.917876427606
699.911611545556
699.90509088993
699.898314167161
699.891281084409
699.883991341872
699.87644462915
699.86864062421
699.860578987133
699.852259355359
699.843681351355
699.834844576564
699.825748600414
699.816392957345
699.806777143423
699.796900612377
699.786762773426
699.776362987249
699.765700561343
699.754774747529
699.743584739543
699.732129667408
699.720408594234
699.708420512776
699.696164342104
699.683638924133
699.670843020896
699.657775311678
699.64443439257
699.630818774899
699.616926891061
699.602757086756
699.588307620483
699.573576650606
699.558562229496
699.543262293898
699.527674660017
699.511797018967
699.495626931577
699.479161823899
699.462398982375
699.445335548318
699.427968512173
699.410294722467
699.392310879587
699.374013516276
699.355398992529
699.336463490256
699.317203007298
699.297613351177
699.277690132156
699.257428764936
699.236824464806
699.215872230704
699.194566844307
699.172902872217
699.150874653862
699.128476292259
699.105701632318
699.082544273422
699.058997540045
699.035054470391
699.010707808782
698.985949992536
698.960773152674
698.93516909894
698.909129299474
698.882644867634
698.855706555753
698.828304738144
698.800429395783
698.772070127379
698.743216106662
698.713856063915
698.683978270255
698.653570518476
698.622620105503
698.59111380987
698.559037873916
698.526377983189
698.493119239767
698.459246133813
698.424742536619
698.389591657079
698.353776017674
698.31727743146
698.280076960037
698.242154891183
698.203490694415
698.164062977428
698.123849446745
698.082826861578
698.04097099298
697.998256575192
697.954657244942
697.910145500226
697.864692644626
697.818268707628
697.770842370183
697.722380889109
697.672850032007
697.622213980308
697.57043525605
697.517474609596
697.463290895668
697.407840953674
697.351079492459
697.292958936465
697.233429276666
697.172437906147
697.109929443842
697.045845535897
696.980124636916
696.912701779378
696.843508346755
696.772471767822
696.699515196666
696.62455715326
696.547511155491
696.468285283595
696.386781704603
696.302896147437
696.216517311773
696.127526226796
696.035795537869
695.941188655571
695.843558822503
695.742748043402
695.638585879643
695.530888130852
695.419455258201
695.304070602379
695.184498371855
695.060481269173
694.931737730973
694.797958876727
694.658804650557
694.513899838368
694.3628282853
694.205127972944
694.040279867229
693.867686520405
693.686657964119
693.496399203955
693.295987321957
693.084332786618
692.860165345056
692.622028390924
692.368220175086
692.096737830813
691.805237400288
691.4910172337
691.150942214182
690.781431266398
690.378557464284
689.937921828979
689.454566429019
688.923264558541
688.338483029813
687.694323591996
686.984861516375
686.20429703846
685.34680414002
684.407087012179
683.38038521208
682.262361014847
681.049486152905
679.739129363259
678.329162723709
676.818135099645
675.205389183521
673.49077783655
671.67453130606
669.757079409455
667.739083767888
665.621096184542
663.403530032238
661.086736010573
658.671040752145
656.156768711145
653.544086895301
650.832927163205
648.023404620233
645.115837317194
642.11084388831
639.009215678717
635.811855807035
632.519694667957
629.13361990213
625.654474131665
622.083019913891
618.420023463832
614.666314196194
610.822822282128
606.890413978895
602.869903048519
598.762020275667
594.567455066137
590.286822542731
585.920706342056
581.469623174788
576.93406705624
572.314471845891
567.611257078617
562.824858592375
557.955889693901
553.004908354463
547.972469178237
542.859070166108
537.665211600331
532.391339884988
527.037909258041
521.605323909096
516.094000390182
510.504305603244
504.83662225009
499.091284158872
493.268644231251
487.369007051198
481.39269939232
475.340000386132
469.211229984535
463.006785578392
456.727120335892
450.372635130846
443.943758677981
437.440867105808
430.864366861912
424.21461126582
417.491986370011
410.69682429138
403.829492296473
396.890302637375
389.879605173023
382.797693451023
375.644901082508
368.421503940875
361.127820374604
353.764109500833
346.330675242747
338.827760791433
331.255656416725
323.614590008595
315.904838893437
308.126618801362
300.280223393423
292.365915560279
284.384043444102
276.334904681844
268.218860532683
260.036194715425
251.787256815624
243.472316447626
235.091712228279
226.645700235712
218.1346087693
209.55868092622
200.918235283017
192.213502481496
183.444791925212
174.612322250847
165.716394220789
156.75721489063
147.7350769758
138.6501764722
129.502798624531
120.293128736669
111.021445035897
101.687922464388
92.2928326267651
82.836340595106
73.3187120794511
63.7401027167865
54.1007726488144
44.4008687186485
34.6406464057078
24.8202443082126
14.9399144190022
4.99978935533232
)
;

boundaryField
{
    electrode
    {
        type            calculated;
        value           uniform 699.999999999501;
    }
    ground
    {
        type            calculated;
        value           uniform 0;
    }
    otherfaces
    {
        type            empty;
    }
}


// ************************************************************************* //
