/*--------------------------------*- C++ -*----------------------------------*\
| =========                 |                                                 |
| \\      /  F ield         | foam-extend: Open Source CFD                    |
|  \\    /   O peration     | Version:     4.0                                |
|   \\  /    A nd           | Web:         http://www.foam-extend.org         |
|    \\/     M anipulation  |                                                 |
\*---------------------------------------------------------------------------*/
FoamFile
{
    version     2.0;
    format      ascii;
    class       volScalarField;
    location    "8.2e-06";
    object      Sy_electron;
}
// * * * * * * * * * * * * * * * * * * * * * * * * * * * * * * * * * * * * * //

dimensions      [1 -3 -1 0 0 0 0];

internalField   nonuniform List<scalar> 
300
(
3.1780278162475e-09
3.17872298844378e-09
3.17897312647459e-09
3.17887996622178e-09
3.17879976834255e-09
3.17866246231621e-09
3.17847647209997e-09
3.17824664915783e-09
3.17797067902705e-09
3.17764868884315e-09
3.17728039565404e-09
3.17686542043488e-09
3.1764034262965e-09
3.17589404627051e-09
3.17533689853529e-09
3.1747315869498e-09
3.17407769949365e-09
3.17337480865178e-09
3.17262247125664e-09
3.17182022835782e-09
3.17096760513118e-09
3.17006411076005e-09
3.16910923832024e-09
3.16810246467883e-09
3.16704325033853e-09
3.16593103939493e-09
3.16476525935281e-09
3.16354532101265e-09
3.1622706183699e-09
3.16094052845919e-09
3.15955441119649e-09
3.15811160931878e-09
3.15661144822909e-09
3.15505323581419e-09
3.1534362623196e-09
3.15175980021093e-09
3.1500231040185e-09
3.14822541019815e-09
3.14636593696672e-09
3.14444388414298e-09
3.1424584329824e-09
3.14040874601496e-09
3.13829396687258e-09
3.13611322010921e-09
3.1338656110317e-09
3.13155022550414e-09
3.12916612975249e-09
3.12671237019031e-09
3.12418797319049e-09
3.12159194490074e-09
3.11892327101367e-09
3.11618091660089e-09
3.11336382581939e-09
3.11047092174736e-09
3.10750110608235e-09
3.10445325893193e-09
3.10132623851978e-09
3.09811888093785e-09
3.09482999987355e-09
3.09145838632844e-09
3.088002808324e-09
3.08446201058815e-09
3.08083471424025e-09
3.07711961644177e-09
3.0733153901103e-09
3.0694206835663e-09
3.06543412008944e-09
3.06135429756801e-09
3.05717978810518e-09
3.05290913759152e-09
3.04854086527287e-09
3.04407346328629e-09
3.03950539620108e-09
3.03483510053373e-09
3.03006098417748e-09
3.02518142591769e-09
3.02019477485473e-09
3.01509934978009e-09
3.00989343861649e-09
3.00457529765206e-09
2.99914315103245e-09
2.9935951899073e-09
2.98792957171809e-09
2.98214441943933e-09
2.97623782072122e-09
2.97020782708431e-09
2.96405245299318e-09
2.95776967488099e-09
2.9513574301595e-09
2.94481361621919e-09
2.93813608925866e-09
2.93132266308348e-09
2.92437110819578e-09
2.91727915046044e-09
2.91004446947916e-09
2.90266469591338e-09
2.89513741041519e-09
2.88746014957704e-09
2.87963040974334e-09
2.87164560958094e-09
2.86350302352058e-09
2.85519991763648e-09
2.84673406415476e-09
2.83810359429261e-09
2.83131471032316e-09
2.82444491718484e-09
2.81742120478549e-09
2.81024014047866e-09
2.80289829583543e-09
2.79539217868181e-09
2.78771821529987e-09
2.77987274204664e-09
2.77185200013799e-09
2.76365213094541e-09
2.755269171184e-09
2.74669904782421e-09
2.73793757276112e-09
2.72898043720162e-09
2.71982320554649e-09
2.71046130902327e-09
2.70089003888416e-09
2.69110453925826e-09
2.68109979935725e-09
2.6708706454055e-09
2.66041173186354e-09
2.64971753210946e-09
2.63878232848809e-09
2.62760020178855e-09
2.61616501981253e-09
2.60447042527093e-09
2.59250982275277e-09
2.58027636482088e-09
2.56776293703597e-09
2.55496214186859e-09
2.54186628146498e-09
2.52846733916776e-09
2.51475695944179e-09
2.5007264263432e-09
2.48636664035552e-09
2.47166809338013e-09
2.45662084163624e-09
2.44121447647175e-09
2.42543809274435e-09
2.40928025468302e-09
2.39272895880756e-09
2.37577159394233e-09
2.35839489753012e-09
2.34058490866221e-09
2.32232691663941e-09
2.30360540534916e-09
2.28440399544525e-09
2.26470536868074e-09
2.24449122398227e-09
2.22374214074153e-09
2.20243762149841e-09
2.18055570833503e-09
2.15807357838375e-09
2.13496595793562e-09
2.11120768616432e-09
2.08676964987726e-09
2.06162425214254e-09
2.03573802916236e-09
2.01015208496746e-09
1.98462358501624e-09
1.95834461422724e-09
1.93155796549452e-09
1.90428167588967e-09
1.8760219457296e-09
1.84644616802793e-09
1.81557769893003e-09
1.78353832884897e-09
1.75032966020471e-09
1.71576227447645e-09
1.67953570341469e-09
1.64075812982421e-09
1.59882117721019e-09
1.55436758732599e-09
1.5072031722881e-09
1.45476676866307e-09
1.39620049226812e-09
1.33460306277718e-09
1.26968008885383e-09
1.20253090236097e-09
1.13453810281577e-09
1.06674770541433e-09
1.00017606425507e-09
9.33579061909104e-10
8.76677081353781e-10
8.34909816951685e-10
7.97188655937339e-10
7.8472320425669e-10
7.82125649979657e-10
8.07664482409393e-10
8.65108905875242e-10
9.68853146343359e-10
1.12975119937342e-09
1.39297989183083e-09
1.83045182707534e-09
2.57929036429289e-09
3.81499656136041e-09
5.15798623011676e-09
6.39796200697429e-09
7.38572255006911e-09
7.24790223878859e-09
6.24467067518197e-09
4.91541368505206e-09
3.72147597607712e-09
2.80799818444347e-09
2.20831758556535e-09
1.82832994635787e-09
1.59501260000137e-09
1.45640132561487e-09
1.36906141347227e-09
1.32156905607242e-09
1.29825110472342e-09
1.28534565319458e-09
1.28248033146197e-09
1.2852756369319e-09
1.29079369876765e-09
1.29743624676542e-09
1.30389340596579e-09
1.30791017582649e-09
1.3098420085245e-09
1.30996295613158e-09
1.30802925549779e-09
1.30392952369704e-09
1.29764070309568e-09
1.28920227431676e-09
1.27869750355929e-09
1.26624087713724e-09
1.25196860612247e-09
1.23603129240197e-09
1.21858815210906e-09
1.19980244228749e-09
1.179837842151e-09
1.15885555395997e-09
1.13701214938512e-09
1.11445704358013e-09
1.09133260492059e-09
1.06775805010655e-09
1.04384362372639e-09
1.01970719526929e-09
9.95459991764533e-10
9.71205068277733e-10
9.47035681534732e-10
9.23034877760394e-10
8.99275823458497e-10
8.75822269160198e-10
8.52729101512754e-10
8.30042934276488e-10
8.07802719822097e-10
7.86040377407695e-10
7.64774242084431e-10
7.43936615255064e-10
7.23666130517206e-10
7.03974106984911e-10
6.84864217438029e-10
6.66332218870442e-10
6.48376692255095e-10
6.30995147126829e-10
6.1418010366366e-10
5.97883278243948e-10
5.82046792050927e-10
5.66723731500475e-10
5.51901938915172e-10
5.3756870406599e-10
5.23711165298467e-10
5.10316224502421e-10
4.97370412662721e-10
4.84859918700316e-10
4.72770204159241e-10
4.61084191740964e-10
4.49772272793545e-10
4.38808963615695e-10
4.28182997896873e-10
4.17884077366997e-10
4.07903220696123e-10
3.98232030323706e-10
3.88862781506554e-10
3.79788466901064e-10
3.71002845453735e-10
3.62500576860295e-10
3.54276250197493e-10
3.45884738893316e-10
3.375117658023e-10
3.29337922333248e-10
3.21358081918751e-10
3.13587457037402e-10
3.06042781967915e-10
2.98616806320159e-10
2.90222315470357e-10
2.81993530512436e-10
2.73987807287372e-10
2.65416467445725e-10
2.55698837882428e-10
2.46302201786891e-10
2.33982092819733e-10
2.20478259137713e-10
2.03302961131692e-10
1.78569147690968e-10
)
;

boundaryField
{
    electrode
    {
        type            zeroGradient;
    }
    ground
    {
        type            zeroGradient;
    }
    otherfaces
    {
        type            empty;
    }
}


// ************************************************************************* //
