/*--------------------------------*- C++ -*----------------------------------*\
| =========                 |                                                 |
| \\      /  F ield         | foam-extend: Open Source CFD                    |
|  \\    /   O peration     | Version:     4.0                                |
|   \\  /    A nd           | Web:         http://www.foam-extend.org         |
|    \\/     M anipulation  |                                                 |
\*---------------------------------------------------------------------------*/
FoamFile
{
    version     2.0;
    format      ascii;
    class       volScalarField;
    location    "8.2e-06";
    object      Te;
}
// * * * * * * * * * * * * * * * * * * * * * * * * * * * * * * * * * * * * * //

dimensions      [0 0 0 1 0 0 0];

internalField   nonuniform List<scalar> 
300
(
40105.0460189899
40105.3318633063
40105.5040356005
40105.606641762
40105.769024401
40105.9659873594
40106.2007479178
40106.4751339724
40106.7884024216
40107.1407031614
40107.5320466886
40107.9624200403
40108.431836304
40108.9403085865
40109.4878556077
40110.0745019243
40110.7002774278
40111.3652175394
40112.0693632125
40112.8127609559
40113.5954628686
40114.4175266695
40115.279015739
40116.1799991577
40117.1205517484
40118.1007541278
40119.1206927563
40120.1804599901
40121.2801541432
40122.4198795474
40123.5997466191
40124.8198719292
40126.0803782773
40127.3813947704
40128.7230569028
40130.1055066448
40131.5288925338
40132.9933697688
40134.4991003113
40136.0462529904
40137.6350036119
40139.2655350752
40140.9380374915
40142.6527083123
40144.4097524607
40146.2093824655
40148.051818607
40149.9372890665
40151.8660300824
40153.8382861112
40155.8543099982
40157.9143631552
40160.0187157425
40162.1676468621
40164.3614447558
40166.6004070143
40168.8848407971
40171.2150630518
40173.591400753
40176.0141911493
40178.4837820148
40181.0005319148
40183.5648104856
40186.1769987206
40188.8374892704
40191.5466867592
40194.3050081067
40197.1128828707
40199.9707536016
40202.8790762107
40205.8383203573
40208.8489698505
40211.9115230669
40215.0264933914
40218.1944096721
40221.4158166974
40224.6912756965
40228.0213648567
40231.4066798696
40234.8478344994
40238.3454611755
40241.900211619
40245.5127574888
40249.1837910637
40252.914025959
40256.7041978698
40260.5550653554
40264.4674106607
40268.4420405795
40272.4797873556
40276.5815096251
40280.7480934082
40284.9804531934
40289.2795331102
40293.6463079491
40298.0817838783
40302.5869998552
40307.1630319286
40311.8109970465
40316.5320406617
40321.3273116887
40326.1980168625
40331.1456323068
40336.1718653053
40341.2781432578
40346.4655767169
40351.7354333447
40357.0892219327
40362.5285385099
40368.0550459054
40373.6704716055
40379.3766092928
40385.1753218203
40391.0685446651
40397.0582896836
40403.1466491289
40409.335799948
40415.6280083814
40422.0256348851
40428.5311394083
40435.1470870583
40441.8761541836
40448.7211349168
40455.6849482216
40462.7706454886
40469.9814187338
40477.3206094611
40484.7917182532
40492.3984151678
40500.1445510196
40508.034169646
40516.0715212625
40524.2610770204
40532.6075449117
40541.1158871747
40549.7913393693
40558.6394313233
40567.666010186
40576.8772658393
40586.279758975
40595.8804521788
40605.6867444267
40615.706509446
40625.9481384984
40636.4205881654
40647.1334339498
40658.096930417
40669.3220790727
40680.8207048684
40692.6055429774
40704.6903384955
40717.0899545755
40729.8205128239
40742.899514936
40756.3460682786
40770.1809519223
40784.4271556683
40799.1094757651
40814.2560439245
40829.8968835238
40846.0669424041
40862.8032178046
40880.15404386
40898.1712962634
40916.937215394
40936.6561768613
40957.4499449007
40979.2108112111
41001.9180948155
41025.7406366832
41050.9218080277
41077.677830793
41106.1628140094
41136.5088218302
41168.5443551536
41202.2486677831
41238.340975309
41277.1079641694
41318.1851334732
41362.137820962
41409.7740837014
41461.2626173536
41517.8160186866
41581.0145275368
41652.3252190218
41735.45981593
41835.3942155941
41958.0187858793
42113.2021832642
42314.701432815
42580.0339649402
42934.5497890011
43414.4769908201
44069.694410812
44976.3098123796
46227.6859219631
47968.486001443
50439.9866866884
53980.2654094723
59079.6183809189
65636.0921796821
74608.4174858169
88589.8638025536
107566.521079221
133964.607682206
170413.22429185
218533.56136055
277418.127262416
343103.237321368
410373.308310259
474927.267039197
534093.610506594
586744.161639099
632824.728879846
672896.126539089
707627.281629082
737772.859133994
764130.214335606
787354.682491464
807963.086156212
826357.122618216
842883.312634585
857840.314034888
871469.279844356
883977.146326557
895531.597771209
906270.035417358
916305.969423572
925733.197008892
934629.425191687
943058.998223522
951075.075015412
958721.372145429
966033.573121184
973040.482267404
979764.945033096
986224.752397964
992432.90717784
998400.696714774
1004130.9803033
1009622.71884804
1014877.92611186
1019894.27862967
1024667.12536853
1029189.53605005
1033452.56803632
1037445.55643542
1041156.2900294
1044571.17301028
1047675.3664324
1050452.91581501
1052886.87055781
1054959.35156645
1056651.68981381
1057943.76998879
1058815.77702237
1059236.73485621
1059207.68517705
1058694.92448032
1057677.95947425
1056133.99592806
1054040.78874036
1051375.58217868
1048115.14885056
1044235.8052755
1039713.49030554
1034523.91134313
1028642.40822489
1022043.83868386
1014702.71131704
1006593.49627365
997693.150080597
987971.382579592
977398.312242108
965949.466706181
953594.092320582
940300.30717028
926034.244238428
910760.147094567
894440.082883791
877033.602597993
858497.789137474
838786.058708828
817856.194297408
795656.410269806
772122.897670888
747194.057471898
720795.630129331
692836.775449578
663235.605509111
631882.323138893
598640.853989015
563375.695773692
525897.061707103
485970.385507546
443307.249742049
397510.473335203
348012.417744957
293992.066924259
234373.127257261
)
;

boundaryField
{
    electrode
    {
        type            electronTemperature;
        seec            0.05;
        Tse             1000;
        Edepend         1;
        TFN             1000;
        field_emission  0;
        field_enhancement_factor 55;
        work_function   5;
        value           uniform 40105.0460189899;
    }
    ground
    {
        type            electronTemperature;
        seec            0.05;
        Tse             1000;
        Edepend         1;
        TFN             1000;
        field_emission  0;
        field_enhancement_factor 55;
        work_function   5;
        value           uniform 200566.122748416;
    }
    otherfaces
    {
        type            empty;
    }
}


// ************************************************************************* //
