/*--------------------------------*- C++ -*----------------------------------*\
| =========                 |                                                 |
| \\      /  F ield         | foam-extend: Open Source CFD                    |
|  \\    /   O peration     | Version:     4.0                                |
|   \\  /    A nd           | Web:         http://www.foam-extend.org         |
|    \\/     M anipulation  |                                                 |
\*---------------------------------------------------------------------------*/
FoamFile
{
    version     2.0;
    format      ascii;
    class       volScalarField;
    location    "8.2e-06";
    object      TeMean;
}
// * * * * * * * * * * * * * * * * * * * * * * * * * * * * * * * * * * * * * //

dimensions      [0 0 0 1 0 0 0];

internalField   nonuniform List<scalar> 
300
(
36334.6171834625
36334.9095722127
36335.0477314814
36335.0680253837
36335.1159899806
36335.1699655281
36335.2329305384
36335.3074752561
36335.3934650795
36335.4914456975
36335.6018606136
36335.725121964
36335.8616420349
36336.0118081628
36336.1759973356
36336.3545751091
36336.5478944569
36336.7562995289
36336.980125303
36337.2196974424
36337.4753344774
36337.7473461778
36338.0360354303
36338.3416976868
36338.6646206602
36339.0050929295
36339.3633982598
36339.7398135577
36340.1346155966
36340.5480719749
36340.9804401323
36341.4319865054
36341.9029846542
36342.393699982
36342.9043941462
36343.4353219595
36343.9867376859
36344.5589019878
36345.1520751675
36345.7665136943
36346.4024717884
36347.0602103138
36347.7399904727
36348.4420716663
36349.1667142995
36349.9141796295
36350.684729471
36351.478625541
36352.2961270153
36353.1374905313
36354.0029704217
36354.8928302649
36355.8073494383
36356.7468089054
36357.7114950625
36358.7017044917
36359.7177317167
36360.7598708613
36361.8284258713
36362.9237057109
36364.0460232661
36365.195702547
36366.373059923
36367.5784122459
36368.8121045362
36370.0744985505
36371.3659584671
36372.6868526059
36374.0375565081
36375.4184569477
36376.8299458367
36378.2724136092
36379.7462696958
36381.2519398198
36382.7898495426
36384.3604264649
36385.964122241
36387.6014187428
36389.2727984193
36390.9787492926
36392.7197920573
36394.4964645572
36396.3093050644
36398.1588584884
36400.0456843998
36401.9703751221
36403.9335526204
36405.9358473549
36407.9779006226
36410.0603803031
36412.1839641595
36414.3493494103
36416.5572910371
36418.8085546981
36421.1039205275
36423.4442106089
36425.8302670627
36428.2629611014
36430.743189671
36433.2718831574
36435.8500183246
36438.4785842507
36441.1586026779
36443.8911563518
36446.6773604457
36449.5183671033
36452.4153702981
36455.3696117661
36458.3823909428
36461.4550552607
36464.5890049353
36467.785693639
36471.046626433
36474.3733857457
36477.7676102672
36481.2309956235
36484.7653054392
36488.3723958181
36492.054219776
36495.8127837362
36499.6501781693
36503.5685979895
36507.570333819
36511.657796217
36515.8335273499
36520.1001761916
36524.4605000854
36528.9174077627
36533.4739655451
36538.1333767703
36542.8990074054
36547.7744162149
36552.7633629526
36557.8697790667
36563.0978081742
36568.4518846221
36573.936716555
36579.5572816744
36585.3188623463
36591.2270809788
36597.2879297371
36603.5077957088
36609.8934956434
36616.4523106505
36623.1920653374
36630.1212068205
36637.2488471393
36644.5848389156
36652.1398024853
36659.9252508507
36667.9537730627
36676.2390902112
36684.7962083305
36693.6416766652
36702.7936721829
36712.2723349687
36722.1000042195
36732.3018718589
36742.9065397015
36753.9480337319
36765.4746319458
36777.5475950442
36790.2261759606
36803.5702357884
36817.6597662637
36832.5856177097
36848.4149098703
36865.2209341397
36883.1319879967
36902.295137234
36922.8227793828
36944.8152248075
36968.3951847155
36993.6033759061
37020.4612986729
37049.2240294865
37080.1386765695
37113.3380321759
37149.4091961619
37189.4078320246
37234.7098569516
37287.8380041925
37352.8802762465
37435.6696167239
37545.3139159341
37695.4569424978
37905.5880798053
38204.6357244666
38635.7892417334
39263.563011175
40186.643925056
41560.1436533353
43633.1908708769
46879.4661727227
51782.0463893566
58686.0682491047
68709.8110299478
82433.0298346674
100927.169027573
124547.709150164
153381.098242085
187210.744976765
225346.371202431
267073.945373663
312151.556139139
360235.39130771
410486.129883016
461289.338511026
510648.663324535
556850.61681464
598849.260720996
636294.431000236
669316.322567676
698323.929628573
723824.312711114
746306.974530758
766256.678558109
784104.057619771
800197.259719401
814819.262660309
828194.282928664
840508.186689706
851925.966929767
862583.46096219
872592.76895375
882045.057185735
891015.58194065
899566.195412684
907747.581769947
915601.133824707
923160.395620475
930452.236069905
937497.800643869
944313.233973215
950910.359626277
957297.265696449
963478.719354859
969456.549423646
975230.134934615
980796.46981499
986149.796579076
991282.567986675
996186.125518009
1000850.46091921
1005264.3086613
1009415.21723361
1013289.49177816
1016872.49227849
1020148.8469453
1023102.26219689
1025716.14883682
1027973.51411511
1029856.64680018
1031347.41360037
1032426.98635303
1033076.32180016
1033270.36251564
1033000.98814326
1032246.32378671
1030984.38009033
1029194.82288377
1026857.26615565
1023951.2116148
1020455.93252623
1016350.43021029
1011613.69821378
1006224.13532707
1000159.62961391
993398.242606472
985917.511257628
977694.588016875
968705.443508494
958925.051600056
948328.401948281
936889.148097951
924579.104543059
911368.633243673
897226.424736293
882119.343140283
866012.153017556
848867.356181928
830645.02537626
811305.518458126
790805.486339636
769091.076885027
746106.470506783
721790.466050029
696067.924649488
668861.412861307
640085.46989492
609631.792866795
577376.23519482
543182.709715004
506867.586802028
468208.031799588
426924.327523579
382623.978587809
334763.581255311
282550.893631438
224942.027045313
)
;

boundaryField
{
    electrode
    {
        type            calculated;
        value           uniform 36334.617183464;
    }
    ground
    {
        type            calculated;
        value           uniform 192272.803075368;
    }
    otherfaces
    {
        type            empty;
    }
}


// ************************************************************************* //
