/*--------------------------------*- C++ -*----------------------------------*\
| =========                 |                                                 |
| \\      /  F ield         | foam-extend: Open Source CFD                    |
|  \\    /   O peration     | Version:     4.0                                |
|   \\  /    A nd           | Web:         http://www.foam-extend.org         |
|    \\/     M anipulation  |                                                 |
\*---------------------------------------------------------------------------*/
FoamFile
{
    version     2.0;
    format      ascii;
    class       volVectorField;
    location    "5.1e-06";
    object      E;
}
// * * * * * * * * * * * * * * * * * * * * * * * * * * * * * * * * * * * * * //

dimensions      [0 0 0 1 0 0 0];

internalField   nonuniform List<vector> 
300
(
(5.44536242763627 -0 -0)
(10.7530855969484 -0 -0)
(19.0025720492315 -0 -0)
(26.6158959622012 -0 -0)
(34.1798433223232 -0 -0)
(41.8096712626053 -0 -0)
(49.430163112652 -0 -0)
(57.0627517196264 -0 -0)
(64.7078135782027 -0 -0)
(72.36531369137 -0 -0)
(80.0370899056697 -0 -0)
(87.7243592684049 -0 -0)
(95.4284367776791 -0 -0)
(103.15068532246 -0 -0)
(110.892477721282 -0 -0)
(118.65521727661 -0 -0)
(126.440336309372 -0 -0)
(134.249297799318 -0 -0)
(142.083597699795 -0 -0)
(149.944766757168 -0 -0)
(157.834372459255 -0 -0)
(165.754020958754 -0 -0)
(173.705359017559 -0 -0)
(181.690075959364 -0 -0)
(189.709905584759 -0 -0)
(197.766628140524 -0 -0)
(205.862072218123 -0 -0)
(213.998116768701 -0 -0)
(222.176693005777 -0 -0)
(230.399786362026 -0 -0)
(238.669438475139 -0 -0)
(246.987749144506 -0 -0)
(255.356878375881 -0 -0)
(263.779048549656 -0 -0)
(272.256546132666 -0 -0)
(280.791722806513 -0 -0)
(289.38699658257 -0 -0)
(298.044856274155 -0 -0)
(306.767870347811 -0 -0)
(315.558696073502 -0 -0)
(324.420070107957 -0 -0)
(333.354751107274 -0 -0)
(342.365431017821 -0 -0)
(351.454779649805 -0 -0)
(360.625934685311 -0 -0)
(369.883402860688 -0 -0)
(379.232980410239 -0 -0)
(388.679716120703 -0 -0)
(398.227270342928 -0 -0)
(407.87904520548 -0 -0)
(417.638517206985 -0 -0)
(427.509264085176 -0 -0)
(437.494976204734 -0 -0)
(447.599461207749 -0 -0)
(457.826646002624 -0 -0)
(468.180578280705 -0 -0)
(478.665427927674 -0 -0)
(489.285488529438 -0 -0)
(500.045179030363 -0 -0)
(510.949045506909 -0 -0)
(522.001763164688 -0 -0)
(533.208138454758 -0 -0)
(544.573111346873 -0 -0)
(556.101757909265 -0 -0)
(567.799292874756 -0 -0)
(579.671072567568 -0 -0)
(591.722598045143 -0 -0)
(603.959518242925 -0 -0)
(616.387633638251 -0 -0)
(629.012899983131 -0 -0)
(641.841432319363 -0 -0)
(654.879509320933 -0 -0)
(668.133577930228 -0 -0)
(681.610258310013 -0 -0)
(695.316349072565 -0 -0)
(709.258832994119 -0 -0)
(723.444883066059 -0 -0)
(737.881868923053 -0 -0)
(752.577363860658 -0 -0)
(767.539152189531 -0 -0)
(782.775237225061 -0 -0)
(798.293849807533 -0 -0)
(814.103457413679 -0 -0)
(830.212773948816 -0 -0)
(846.630770211325 -0 -0)
(863.366685148292 -0 -0)
(880.43003787934 -0 -0)
(897.830640654661 -0 -0)
(915.578612658933 -0 -0)
(933.684394920178 -0 -0)
(952.158766257079 -0 -0)
(971.012860392729 -0 -0)
(990.258184335831 -0 -0)
(1009.90663815397 -0 -0)
(1029.97053616751 -0 -0)
(1050.46262970237 -0 -0)
(1071.39613166341 -0 -0)
(1092.78474279528 -0 -0)
(1114.64268002248 -0 -0)
(1136.98470693435 -0 -0)
(1159.82616657855 -0 -0)
(1183.18301675371 -0 -0)
(1207.07186802166 -0 -0)
(1231.51002474872 -0 -0)
(1256.51552923696 -0 -0)
(1282.10720939532 -0 -0)
(1308.304730181 -0 -0)
(1335.12864915487 -0 -0)
(1362.60047645122 -0 -0)
(1390.74273971223 -0 -0)
(1419.57905421555 -0 -0)
(1449.13419890553 -0 -0)
(1479.43419873506 -0 -0)
(1510.50641386972 -0 -0)
(1542.37963661418 -0 -0)
(1575.08419654059 -0 -0)
(1608.65207486388 -0 -0)
(1643.11702885876 -0 -0)
(1678.51472729735 -0 -0)
(1714.88289816852 -0 -0)
(1752.26148991117 -0 -0)
(1790.6928473945 -0 -0)
(1830.22190466411 -0 -0)
(1870.89639577276 -0 -0)
(1912.76708612454 -0 -0)
(1955.88802631868 -0 -0)
(2000.31683142438 -0 -0)
(2046.11498814915 -0 -0)
(2093.3481935425 -0 -0)
(2142.08673009082 -0 -0)
(2192.40587706016 -0 -0)
(2244.38637235638 -0 -0)
(2298.11491759851 -0 -0)
(2353.68474438788 -0 -0)
(2411.19624918045 -0 -0)
(2470.75767918511 -0 -0)
(2532.48592226811 -0 -0)
(2596.50746762153 -0 -0)
(2662.95920518413 -0 -0)
(2731.98941034364 -0 -0)
(2803.76031489722 -0 -0)
(2878.44751133724 -0 -0)
(2956.23911757216 -0 -0)
(3037.35076805262 -0 -0)
(3122.02801119905 -0 -0)
(3210.53138749241 -0 -0)
(3303.139558471 -0 -0)
(3400.15895756056 -0 -0)
(3501.92803631124 -0 -0)
(3608.82141046437 -0 -0)
(3721.25415264753 -0 -0)
(3839.68797976672 -0 -0)
(3964.63770049214 -0 -0)
(4096.676496564 -0 -0)
(4236.45212516756 -0 -0)
(4384.68202280845 -0 -0)
(4542.18892217733 -0 -0)
(4709.89005322462 -0 -0)
(4888.82589894152 -0 -0)
(5080.2098352612 -0 -0)
(5285.34029001941 -0 -0)
(5505.93993774496 -0 -0)
(5743.48444402687 -0 -0)
(6001.42775683 -0 -0)
(6286.36924872514 -0 -0)
(6602.3076443994 -0 -0)
(6951.08903657758 -0 -0)
(7336.35806582593 -0 -0)
(7763.75774554856 -0 -0)
(8241.68435935975 -0 -0)
(8778.82484074316 -0 -0)
(9386.08539763742 -0 -0)
(10074.1972883227 -0 -0)
(10845.4444474171 -0 -0)
(11708.4362038358 -0 -0)
(12683.5656643815 -0 -0)
(13780.128270853 -0 -0)
(15001.1633945431 -0 -0)
(16364.0960166339 -0 -0)
(17880.1413240269 -0 -0)
(19546.1091420512 -0 -0)
(21372.8238583776 -0 -0)
(23363.7161658213 -0 -0)
(25507.4502039361 -0 -0)
(27804.2106176298 -0 -0)
(30248.0630058405 -0 -0)
(32814.5678078098 -0 -0)
(35493.2492273677 -0 -0)
(38274.8992061644 -0 -0)
(41129.7866271192 -0 -0)
(44033.2903207168 -0 -0)
(46978.5793759213 -0 -0)
(49953.3102683478 -0 -0)
(52931.7939297155 -0 -0)
(55899.5762631439 -0 -0)
(58856.9018108801 -0 -0)
(61803.6142728065 -0 -0)
(64746.2889523911 -0 -0)
(67680.6235715799 -0 -0)
(70604.9253802352 -0 -0)
(73543.7484673244 -0 -0)
(76503.9571629996 -0 -0)
(79487.4667887988 -0 -0)
(82486.802113458 -0 -0)
(85482.3113343522 -0 -0)
(88461.3384694229 -0 -0)
(91414.6361009314 -0 -0)
(94339.2288639277 -0 -0)
(97234.9210869797 -0 -0)
(100102.998415045 -0 -0)
(102945.565291959 -0 -0)
(105765.145688489 -0 -0)
(108561.684465554 -0 -0)
(111330.635863709 -0 -0)
(114070.361458225 -0 -0)
(116783.330305273 -0 -0)
(119471.88685635 -0 -0)
(122138.185716151 -0 -0)
(124784.240455676 -0 -0)
(127411.912658083 -0 -0)
(130022.945745518 -0 -0)
(132618.94497628 -0 -0)
(135201.412800411 -0 -0)
(137771.724198658 -0 -0)
(140330.194736249 -0 -0)
(142873.398763291 -0 -0)
(145399.003958677 -0 -0)
(147908.108741556 -0 -0)
(150401.770429541 -0 -0)
(152880.942864273 -0 -0)
(155346.536617928 -0 -0)
(157799.357869758 -0 -0)
(160240.175992725 -0 -0)
(162669.668996557 -0 -0)
(165088.492297549 -0 -0)
(167497.246613083 -0 -0)
(169896.515718682 -0 -0)
(172286.844710294 -0 -0)
(174668.778169993 -0 -0)
(177042.803629232 -0 -0)
(179409.42626778 -0 -0)
(181769.044159923 -0 -0)
(184119.103796521 -0 -0)
(186457.142425288 -0 -0)
(188783.615362963 -0 -0)
(191098.924786891 -0 -0)
(193403.477212826 -0 -0)
(195697.627902252 -0 -0)
(197981.752296078 -0 -0)
(200256.18367912 -0 -0)
(202521.275139989 -0 -0)
(204777.336018064 -0 -0)
(207024.693953117 -0 -0)
(209263.631365295 -0 -0)
(211494.445964723 -0 -0)
(213717.392536319 -0 -0)
(215932.747689827 -0 -0)
(218140.746216092 -0 -0)
(220341.646841813 -0 -0)
(222535.666060664 -0 -0)
(224723.046860841 -0 -0)
(226903.989293533 -0 -0)
(229078.715543734 -0 -0)
(231247.407838777 -0 -0)
(233410.273188653 -0 -0)
(235567.484818337 -0 -0)
(237717.90889133 -0 -0)
(239859.836845225 -0 -0)
(241992.886109403 -0 -0)
(244117.249537462 -0 -0)
(246233.139361361 -0 -0)
(248340.742802295 -0 -0)
(250440.261886593 -0 -0)
(252531.870754641 -0 -0)
(254615.760449379 -0 -0)
(256692.089444001 -0 -0)
(258761.036404608 -0 -0)
(260822.746390461 -0 -0)
(262877.388773144 -0 -0)
(264925.101722923 -0 -0)
(266966.049404663 -0 -0)
(269000.366182533 -0 -0)
(271028.211818131 -0 -0)
(273049.715590571 -0 -0)
(275065.028718181 -0 -0)
(277074.273661793 -0 -0)
(279077.592209181 -0 -0)
(281075.09758051 -0 -0)
(283066.923896795 -0 -0)
(285053.175616817 -0 -0)
(287033.981168928 -0 -0)
(289009.434945716 -0 -0)
(290979.66146815 -0 -0)
(292944.754449332 -0 -0)
(294904.835716009 -0 -0)
(296859.98977078 -0 -0)
(298810.33728943 -0 -0)
(300755.948239475 -0 -0)
(302696.926597815 -0 -0)
(304632.565980597 -0 -0)
)
;

boundaryField
{
    electrode
    {
        type            calculated;
        value           uniform (4.51555865765841 -0 -0);
    }
    ground
    {
        type            calculated;
        value           uniform (305598.480634548 -0 -0);
    }
    otherfaces
    {
        type            empty;
    }
}


// ************************************************************************* //
