/*--------------------------------*- C++ -*----------------------------------*\
| =========                 |                                                 |
| \\      /  F ield         | foam-extend: Open Source CFD                    |
|  \\    /   O peration     | Version:     4.0                                |
|   \\  /    A nd           | Web:         http://www.foam-extend.org         |
|    \\/     M anipulation  |                                                 |
\*---------------------------------------------------------------------------*/
FoamFile
{
    version     2.0;
    format      ascii;
    class       volVectorField;
    location    "5.1e-06";
    object      J_Arp1;
}
// * * * * * * * * * * * * * * * * * * * * * * * * * * * * * * * * * * * * * //

dimensions      [1 -1 -1 0 0 0 0];

internalField   nonuniform List<vector> 
300
(
(1.8119210703616e+16 -0 -0)
(6.57052594457007e+16 -0 -0)
(1.17756774335096e+17 -0 -0)
(1.63691739514669e+17 -0 -0)
(2.1030805576086e+17 -0 -0)
(2.57203038879536e+17 -0 -0)
(3.03959125886552e+17 -0 -0)
(3.5075462120202e+17 -0 -0)
(3.97559899588861e+17 -0 -0)
(4.44372518477823e+17 -0 -0)
(4.91197378834658e+17 -0 -0)
(5.38034656460692e+17 -0 -0)
(5.8488573460523e+17 -0 -0)
(6.3175206811343e+17 -0 -0)
(6.78635115898543e+17 -0 -0)
(7.25536467056587e+17 -0 -0)
(7.72457810831634e+17 -0 -0)
(8.19400946309163e+17 -0 -0)
(8.66367790214682e+17 -0 -0)
(9.13360381831664e+17 -0 -0)
(9.60380888708634e+17 -0 -0)
(1.00743161178624e+18 -0 -0)
(1.05451499040229e+18 -0 -0)
(1.10163360697917e+18 -0 -0)
(1.1487901911496e+18 -0 -0)
(1.19598762390226e+18 -0 -0)
(1.24322894087539e+18 -0 -0)
(1.29051733597617e+18 -0 -0)
(1.33785616397378e+18 -0 -0)
(1.38524894295405e+18 -0 -0)
(1.43269935650393e+18 -0 -0)
(1.48021125530918e+18 -0 -0)
(1.52778865879649e+18 -0 -0)
(1.57543575708464e+18 -0 -0)
(1.62315690999707e+18 -0 -0)
(1.67095664152811e+18 -0 -0)
(1.71883963295852e+18 -0 -0)
(1.76681073627339e+18 -0 -0)
(1.81487501262938e+18 -0 -0)
(1.86303777607773e+18 -0 -0)
(1.91130453352602e+18 -0 -0)
(1.95968063613928e+18 -0 -0)
(2.00817071216983e+18 -0 -0)
(2.05677882521812e+18 -0 -0)
(2.10551125856428e+18 -0 -0)
(2.15438220309317e+18 -0 -0)
(2.2034136675452e+18 -0 -0)
(2.25262145165979e+18 -0 -0)
(2.30201270893069e+18 -0 -0)
(2.35159321055778e+18 -0 -0)
(2.40136864650079e+18 -0 -0)
(2.45134477795034e+18 -0 -0)
(2.50152749717823e+18 -0 -0)
(2.55192283237533e+18 -0 -0)
(2.60253693442959e+18 -0 -0)
(2.65337605935265e+18 -0 -0)
(2.70444654892891e+18 -0 -0)
(2.75575481089826e+18 -0 -0)
(2.80730729910396e+18 -0 -0)
(2.85911049324758e+18 -0 -0)
(2.91117087890078e+18 -0 -0)
(2.96349492719889e+18 -0 -0)
(3.01608907425909e+18 -0 -0)
(3.06895970119546e+18 -0 -0)
(3.12211311295616e+18 -0 -0)
(3.17555551785917e+18 -0 -0)
(3.22929300707708e+18 -0 -0)
(3.28333153289023e+18 -0 -0)
(3.33767688831952e+18 -0 -0)
(3.392334685744e+18 -0 -0)
(3.44731033561129e+18 -0 -0)
(3.50260902528374e+18 -0 -0)
(3.55823569786551e+18 -0 -0)
(3.61419503105784e+18 -0 -0)
(3.67049141562986e+18 -0 -0)
(3.72712893463077e+18 -0 -0)
(3.78411134242398e+18 -0 -0)
(3.84144204358045e+18 -0 -0)
(3.89912407266365e+18 -0 -0)
(3.95716007351587e+18 -0 -0)
(4.0155522793327e+18 -0 -0)
(4.07430249287612e+18 -0 -0)
(4.13341206705056e+18 -0 -0)
(4.19288188597839e+18 -0 -0)
(4.25271234640276e+18 -0 -0)
(4.3129033398567e+18 -0 -0)
(4.37345423513131e+18 -0 -0)
(4.43436386168696e+18 -0 -0)
(4.49563049334315e+18 -0 -0)
(4.55725183310008e+18 -0 -0)
(4.61922499853632e+18 -0 -0)
(4.6815465080634e+18 -0 -0)
(4.74421226808055e+18 -0 -0)
(4.80721756120542e+18 -0 -0)
(4.87055703538891e+18 -0 -0)
(4.93422469391793e+18 -0 -0)
(4.99821388707758e+18 -0 -0)
(5.06251730431873e+18 -0 -0)
(5.12712696799208e+18 -0 -0)
(5.19203422833778e+18 -0 -0)
(5.25722975975102e+18 -0 -0)
(5.32270355827597e+18 -0 -0)
(5.38844494044947e+18 -0 -0)
(5.45444254398391e+18 -0 -0)
(5.52068432935499e+18 -0 -0)
(5.58715758313943e+18 -0 -0)
(5.65384892291403e+18 -0 -0)
(5.72074430366877e+18 -0 -0)
(5.78782902551004e+18 -0 -0)
(5.85508774342251e+18 -0 -0)
(5.9225044780407e+18 -0 -0)
(5.99006262842198e+18 -0 -0)
(6.05774498636105e+18 -0 -0)
(6.1255337519157e+18 -0 -0)
(6.19341055097206e+18 -0 -0)
(6.26135645391046e+18 -0 -0)
(6.32935199608605e+18 -0 -0)
(6.39737719969063e+18 -0 -0)
(6.46541159691977e+18 -0 -0)
(6.53343425467106e+18 -0 -0)
(6.60142380072934e+18 -0 -0)
(6.66935845063917e+18 -0 -0)
(6.73721603663403e+18 -0 -0)
(6.80497403689055e+18 -0 -0)
(6.87260960650899e+18 -0 -0)
(6.94009960873129e+18 -0 -0)
(7.00742064815783e+18 -0 -0)
(7.07454910356664e+18 -0 -0)
(7.14146115937271e+18 -0 -0)
(7.20813285177051e+18 -0 -0)
(7.2745400749921e+18 -0 -0)
(7.34065866659183e+18 -0 -0)
(7.40646437734891e+18 -0 -0)
(7.47193296805058e+18 -0 -0)
(7.53704022810648e+18 -0 -0)
(7.60176195518594e+18 -0 -0)
(7.66607397053443e+18 -0 -0)
(7.72995272791165e+18 -0 -0)
(7.79337417496048e+18 -0 -0)
(7.85631275899309e+18 -0 -0)
(7.91875072852122e+18 -0 -0)
(7.98066269028213e+18 -0 -0)
(8.04200535638593e+18 -0 -0)
(8.10279606786904e+18 -0 -0)
(8.16305152409223e+18 -0 -0)
(8.22275568131099e+18 -0 -0)
(8.28188768890661e+18 -0 -0)
(8.34042657939505e+18 -0 -0)
(8.39835115095697e+18 -0 -0)
(8.45564252042192e+18 -0 -0)
(8.51227855852867e+18 -0 -0)
(8.56824239308285e+18 -0 -0)
(8.62351762085367e+18 -0 -0)
(8.67807038753489e+18 -0 -0)
(8.73192831204465e+18 -0 -0)
(8.78498572049214e+18 -0 -0)
(8.83736576087719e+18 -0 -0)
(8.8888920318118e+18 -0 -0)
(8.93965630244567e+18 -0 -0)
(8.98977117222008e+18 -0 -0)
(9.0385156475257e+18 -0 -0)
(9.08791157258633e+18 -0 -0)
(9.1331575819471e+18 -0 -0)
(9.18302374698174e+18 -0 -0)
(9.22857337177902e+18 -0 -0)
(9.27382914833613e+18 -0 -0)
(9.3187329466979e+18 -0 -0)
(9.36224325816402e+18 -0 -0)
(9.40513430261107e+18 -0 -0)
(9.44927466392379e+18 -0 -0)
(9.4878013116933e+18 -0 -0)
(9.53380447999225e+18 -0 -0)
(9.57156494514664e+18 -0 -0)
(9.60839160330888e+18 -0 -0)
(9.64729000043617e+18 -0 -0)
(9.68835439533231e+18 -0 -0)
(9.71907006369187e+18 -0 -0)
(9.75452298774258e+18 -0 -0)
(9.79449875004201e+18 -0 -0)
(9.8230247925417e+18 -0 -0)
(9.85137541397544e+18 -0 -0)
(9.88944382204868e+18 -0 -0)
(9.90669550228941e+18 -0 -0)
(9.94058515059778e+18 -0 -0)
(9.96052967431185e+18 -0 -0)
(9.99018374466164e+18 -0 -0)
(9.99769519837499e+18 -0 -0)
(1.00395518767691e+19 -0 -0)
(1.003991547843e+19 -0 -0)
(1.00770446581645e+19 -0 -0)
(1.00819803402547e+19 -0 -0)
(1.01239913685165e+19 -0 -0)
(1.01330302637773e+19 -0 -0)
(1.01779982060798e+19 -0 -0)
(1.02061808489282e+19 -0 -0)
(1.02701782073514e+19 -0 -0)
(1.03309216237821e+19 -0 -0)
(1.04449750286839e+19 -0 -0)
(1.05892163056082e+19 -0 -0)
(1.07971036299376e+19 -0 -0)
(1.10465558486519e+19 -0 -0)
(1.13026499168923e+19 -0 -0)
(1.15962327687029e+19 -0 -0)
(1.17713628116012e+19 -0 -0)
(1.19657550986591e+19 -0 -0)
(1.2097446140278e+19 -0 -0)
(1.21951309080814e+19 -0 -0)
(1.22709101971245e+19 -0 -0)
(1.23342476810438e+19 -0 -0)
(1.23886020647417e+19 -0 -0)
(1.24391143794189e+19 -0 -0)
(1.24863570752254e+19 -0 -0)
(1.25322046584185e+19 -0 -0)
(1.2575566015241e+19 -0 -0)
(1.26214310083885e+19 -0 -0)
(1.2663771090063e+19 -0 -0)
(1.2709690763896e+19 -0 -0)
(1.27520498634417e+19 -0 -0)
(1.2798329424901e+19 -0 -0)
(1.28408963206533e+19 -0 -0)
(1.28875681659389e+19 -0 -0)
(1.29302033647273e+19 -0 -0)
(1.29769871815788e+19 -0 -0)
(1.30192682606985e+19 -0 -0)
(1.30656729683389e+19 -0 -0)
(1.31064617155761e+19 -0 -0)
(1.3153016317075e+19 -0 -0)
(1.31928240737376e+19 -0 -0)
(1.32389395400002e+19 -0 -0)
(1.32777687225132e+19 -0 -0)
(1.33231828814137e+19 -0 -0)
(1.33606208909538e+19 -0 -0)
(1.34048673504151e+19 -0 -0)
(1.34404720926587e+19 -0 -0)
(1.34831654953719e+19 -0 -0)
(1.35168713318419e+19 -0 -0)
(1.35579366236883e+19 -0 -0)
(1.35897890810004e+19 -0 -0)
(1.36294012873868e+19 -0 -0)
(1.36593189476034e+19 -0 -0)
(1.36975590868272e+19 -0 -0)
(1.37257159797651e+19 -0 -0)
(1.37622872610708e+19 -0 -0)
(1.37889940089286e+19 -0 -0)
(1.38241867358094e+19 -0 -0)
(1.38490947687377e+19 -0 -0)
(1.38829262996143e+19 -0 -0)
(1.39059624645267e+19 -0 -0)
(1.39385200225334e+19 -0 -0)
(1.39598505778188e+19 -0 -0)
(1.39912755772378e+19 -0 -0)
(1.4010996049875e+19 -0 -0)
(1.40413457773787e+19 -0 -0)
(1.40594701506597e+19 -0 -0)
(1.40887017567587e+19 -0 -0)
(1.41051905156451e+19 -0 -0)
(1.41333340618223e+19 -0 -0)
(1.41482114380325e+19 -0 -0)
(1.41752977208591e+19 -0 -0)
(1.41885805682423e+19 -0 -0)
(1.42146463681583e+19 -0 -0)
(1.42263440805096e+19 -0 -0)
(1.42513331671653e+19 -0 -0)
(1.42614141391213e+19 -0 -0)
(1.42853186112575e+19 -0 -0)
(1.42938754262969e+19 -0 -0)
(1.43166336375688e+19 -0 -0)
(1.43242363980771e+19 -0 -0)
(1.43462166298918e+19 -0 -0)
(1.43526159527151e+19 -0 -0)
(1.43739286790635e+19 -0 -0)
(1.43792755175951e+19 -0 -0)
(1.43999885456386e+19 -0 -0)
(1.44043010264771e+19 -0 -0)
(1.44244540159207e+19 -0 -0)
(1.44276976236416e+19 -0 -0)
(1.44472934291404e+19 -0 -0)
(1.44494470340387e+19 -0 -0)
(1.4468516023912e+19 -0 -0)
(1.44696356463689e+19 -0 -0)
(1.44882533775329e+19 -0 -0)
(1.44884280538498e+19 -0 -0)
(1.45066723347791e+19 -0 -0)
(1.45059631508467e+19 -0 -0)
(1.45238407349118e+19 -0 -0)
(1.45222756735604e+19 -0 -0)
(1.45397704876992e+19 -0 -0)
(1.45373300520322e+19 -0 -0)
(1.45544435843184e+19 -0 -0)
(1.4551107008485e+19 -0 -0)
(1.45678568358379e+19 -0 -0)
(1.45635765785782e+19 -0 -0)
(1.45800015528522e+19 -0 -0)
(1.45748576273914e+19 -0 -0)
(1.45910105602235e+19 -0 -0)
(1.45849549315508e+19 -0 -0)
(1.46009104406545e+19 -0 -0)
(1.45938107384176e+19 -0 -0)
(1.46093345382706e+19 -0 -0)
(1.45895220396606e+19 -0 -0)
)
;

boundaryField
{
    electrode
    {
        type            calculated;
        value           uniform (-7799873812.13146 -0 -0);
    }
    ground
    {
        type            calculated;
        value           uniform (1.46079398065804e+19 -0 -0);
    }
    otherfaces
    {
        type            empty;
    }
}


// ************************************************************************* //
