/*--------------------------------*- C++ -*----------------------------------*\
| =========                 |                                                 |
| \\      /  F ield         | foam-extend: Open Source CFD                    |
|  \\    /   O peration     | Version:     4.0                                |
|   \\  /    A nd           | Web:         http://www.foam-extend.org         |
|    \\/     M anipulation  |                                                 |
\*---------------------------------------------------------------------------*/
FoamFile
{
    version     2.0;
    format      ascii;
    class       volScalarField;
    location    "5.1e-06";
    object      N_electronMean;
}
// * * * * * * * * * * * * * * * * * * * * * * * * * * * * * * * * * * * * * //

dimensions      [0 0 0 1 0 0 0];

internalField   nonuniform List<scalar> 
300
(
6.00227107127964e+16
6.00212387178704e+16
6.00171434264566e+16
6.00099337998858e+16
5.99996418440003e+16
5.99862283335779e+16
5.99696695862275e+16
5.99499519063862e+16
5.99270628428065e+16
5.99009932481017e+16
5.98717366758096e+16
5.98392891131627e+16
5.98036488066333e+16
5.97648160699309e+16
5.97227931518443e+16
5.96775841049012e+16
5.9629194673798e+16
5.95776321996147e+16
5.95229055267389e+16
5.94650249148298e+16
5.94040019610775e+16
5.93398495266511e+16
5.92725816657604e+16
5.92022135530386e+16
5.91287614306657e+16
5.90522425670384e+16
5.89726751806178e+16
5.88900783641737e+16
5.88044720230895e+16
5.87158767920054e+16
5.86243139810087e+16
5.85298055614597e+16
5.84323740900585e+16
5.83320425864165e+16
5.82288344451205e+16
5.8122773365372e+16
5.80138832816743e+16
5.79021883002752e+16
5.77877126296283e+16
5.76704805097232e+16
5.75505161540688e+16
5.74278436905001e+16
5.73024870906624e+16
5.7174470105236e+16
5.70438162079426e+16
5.69105485420321e+16
5.67746898728247e+16
5.66362625474751e+16
5.64952884639788e+16
5.6351789048073e+16
5.62057852532307e+16
5.60572975613032e+16
5.59063459441917e+16
5.57529497927749e+16
5.55971278153462e+16
5.54388979330692e+16
5.52782771900282e+16
5.51152816821236e+16
5.49499265020435e+16
5.47822256859079e+16
5.46121921654669e+16
5.44398377238582e+16
5.4265172946884e+16
5.40882072112212e+16
5.39089487169252e+16
5.37274044404526e+16
5.35435800132008e+16
5.33574796478564e+16
5.31691061011681e+16
5.29784606357962e+16
5.2785542981632e+16
5.25903513166621e+16
5.23928822849662e+16
5.219313097519e+16
5.19910908533363e+16
5.17867537622258e+16
5.15801099458522e+16
5.13711480143848e+16
5.11598548531344e+16
5.09462155652838e+16
5.07302134623301e+16
5.05118299701997e+16
5.02910445389058e+16
5.0067834610473e+16
4.98421756035166e+16
4.9614040925939e+16
4.93834019327688e+16
4.91502278388271e+16
4.89144856787941e+16
4.86761403021054e+16
4.84351543378865e+16
4.81914882128181e+16
4.79451001838447e+16
4.76959462318824e+16
4.74439799620811e+16
4.71891525784551e+16
4.69314128578253e+16
4.66707071248562e+16
4.64069792277767e+16
4.61401705292891e+16
4.58702198966123e+16
4.5597063663214e+16
4.5320635634257e+16
4.50408671197151e+16
4.47576868880623e+16
4.44710211380592e+16
4.41807935014782e+16
4.3886925029476e+16
4.35893342028274e+16
4.3287936906757e+16
4.29826463934532e+16
4.26733732773009e+16
4.23600255461904e+16
4.20425085971849e+16
4.17207252502527e+16
4.13945757630114e+16
4.10639579116886e+16
4.07287670337127e+16
4.03888959861891e+16
4.00442351178068e+16
3.96946723192963e+16
3.93400931006089e+16
3.89803806580691e+16
3.86154159563502e+16
3.82450777312643e+16
3.78692424374241e+16
3.74877842839432e+16
3.7100575307405e+16
3.67074853964051e+16
3.63083823317006e+16
3.59031318652442e+16
3.54915977998436e+16
3.50736420571143e+16
3.46491247440956e+16
3.42179043079888e+16
3.37798377173043e+16
3.33347805087055e+16
3.28825867763584e+16
3.24231092341406e+16
3.19561993291119e+16
3.14817073169945e+16
3.09994823353172e+16
3.05093725048975e+16
3.00112250532724e+16
2.95048865550473e+16
2.89902031864647e+16
2.84670208403385e+16
2.79351851917695e+16
2.73945417580606e+16
2.68449360581317e+16
2.6286213869143e+16
2.57182213618794e+16
2.51408052657859e+16
2.45538131344326e+16
2.39570934985585e+16
2.33504961796133e+16
2.273387262512e+16
2.21070764754525e+16
2.14699635295464e+16
2.0822391409078e+16
2.0164215880139e+16
1.94952709340067e+16
1.88153399069134e+16
1.81241478665553e+16
1.74213862336475e+16
1.67067464512367e+16
1.59799267385126e+16
1.52406177377451e+16
1.44885010106825e+16
1.37232825752338e+16
1.29447800933245e+16
1.21530761729767e+16
1.13487077324644e+16
1.05328439146783e+16
9.70751587108452e+15
8.87588057517789e+15
8.04242958023143e+15
7.21318261509983e+15
6.39573184169423e+15
5.599063262403e+15
4.83321802674784e+15
4.10871045819123e+15
3.43571309682377e+15
2.82317011010743e+15
2.27792980138268e+15
1.80401782649228e+15
1.40225858916368e+15
1.07029269281493e+15
802975056252807
593100309114943
432254545583145
311682835957736
223050831814070
159002538229427
112883402659031
79643800679774.7
55735956838977.5
38541524118402.6
26335484460717.9
17878760728154.4
12096836003430.8
8208546757685.66
5697954765797.17
4155529723508.13
3245541191557
2716309599216.19
2403505903945.57
2211487690542.2
2087716758554
2003581385540.44
1943164452151.9
1897214417856.18
1860157868594.64
1828497170137.08
1799979518233.43
1773112639328.97
1746903978207.29
1720698696711.71
1694090691705.13
1666822439407.32
1638730810609.31
1609713207873.34
1579747612303.25
1548875720101.98
1517174579250.32
1484744941319.36
1451702254688.62
1418168791159.97
1384269175866.14
1350126728412.92
1315860816383.69
1281585847536.51
1247408972954.84
1213429626602.85
1179739296056.47
1146420715657.74
1113547664162.32
1081185790273.32
1049391877621.62
1018214596597.26
987695287839.426
957867729782.356
928759384444.309
900391153816.811
872778346015.991
845931630468.613
819856019202.249
794552170933.526
770016961244.541
746244249471.667
723226673685.321
700955164462.651
679418388403.235
658602881930.212
638493775772.277
619075821997.324
600332059073.964
582242398154.988
564787127175.16
547948491345.016
531708367619.516
516047469376.423
500946519489.905
486386086653.085
472346961137.492
458810476631.718
445757004526.155
433166513877.468
421019725347.851
409297617124.899
397982054212.053
387057398283.081
376509812990.607
366326727610.323
356496295670.059
347007401340.64
337849568664.841
329012842566.952
320488097128.575
312267056361.315
304342125285.174
296705374238.64
289347971365.952
282247007598.911
275377976158.066
268737314229.18
262331884113.596
256169948594.293
250259926162.772
244583311455.335
239118180577.685
233883583932.156
228916900956.324
224214300989.921
219805688981.218
215767883213.447
212220274778.799
209410570539.634
207731230708.914
207898737425.289
)
;

boundaryField
{
    electrode
    {
        type            calculated;
        value           uniform 6.00227107130282e+16;
    }
    ground
    {
        type            calculated;
        value           uniform 209417377629.496;
    }
    otherfaces
    {
        type            empty;
    }
}


// ************************************************************************* //
