/*--------------------------------*- C++ -*----------------------------------*\
| =========                 |                                                 |
| \\      /  F ield         | foam-extend: Open Source CFD                    |
|  \\    /   O peration     | Version:     4.0                                |
|   \\  /    A nd           | Web:         http://www.foam-extend.org         |
|    \\/     M anipulation  |                                                 |
\*---------------------------------------------------------------------------*/
FoamFile
{
    version     2.0;
    format      ascii;
    class       volScalarField;
    location    "5.1e-06";
    object      Phi;
}
// * * * * * * * * * * * * * * * * * * * * * * * * * * * * * * * * * * * * * //

dimensions      [0 0 0 1 0 0 0];

internalField   nonuniform List<scalar> 
300
(
699.999924740689
699.999712235149
699.999207868316
699.998445397013
699.997433475251
699.996166740791
699.994646163834
699.992871396584
699.990841980386
699.988557542345
699.98601762614
699.983221736351
699.980169335522
699.976859840566
699.973292623168
699.969467008718
699.965382275349
699.961037652964
699.956432322163
699.951565413117
699.946436004379
699.94104312162
699.935385736315
699.929462764352
699.923273064584
699.916815437313
699.910088622708
699.903091299165
699.89582208159
699.888279519631
699.880462095833
699.872368223733
699.86399624589
699.855344431841
699.846410975987
699.837193995432
699.8276915278
699.817901528993
699.807821870715
699.797450337637
699.78678462431
699.775822332962
699.764560974237
699.752997970894
699.741130655594
699.728956241915
699.71647176207
699.703674043222
699.690559780994
699.677125558532
699.663367844647
699.649282990718
699.634867227042
699.620116658971
699.605027262961
699.589594882571
699.573815224409
699.557683854042
699.541196191841
699.524347508774
699.50713292214
699.489547391229
699.47158571291
699.453242517139
699.434512262383
699.415389230948
699.395867524211
699.375941057745
699.355603556329
699.334848548836
699.313669362996
699.292059120015
699.270010729042
699.247516881486
699.224570045154
699.201162458214
699.177286122955
699.152932799344
699.12809399836
699.102760975086
699.076924721547
699.050575959271
699.02370513156
698.996302395444
698.968357613297
698.939860344096
698.910799834287
698.881165008237
698.850944458243
698.82012643406
698.788698831915
698.756649182976
698.723964641223
698.690631970687
698.656637532012
698.621967268276
698.586606690032
698.550540859498
698.513754373846
698.476231347497
698.437955393383
698.398909603059
698.3590765256
698.31843814519
698.276975857283
698.234670443241
698.191502043324
698.147450127896
698.102493466713
698.056610096132
698.009777284066
697.961971492518
697.913168337472
697.863342545936
697.812467909881
697.760517236828
697.707462296778
697.65327376517
697.597921161521
697.541372783351
697.483595634976
697.42455535069
697.364216111816
697.302540557046
697.239489685431
697.175022751305
697.109097150343
697.041668295876
696.972689484466
696.90211174964
696.82988370246
696.755951357836
696.680257944303
696.602743696663
696.523345628011
696.441997280051
696.358628449399
696.273164885233
696.185527951557
696.095634271554
696.003395324201
695.908716917227
695.811498823445
695.711634309389
695.609008772242
695.503499108642
695.394973346409
695.283289804744
695.168296082572
695.049827935657
694.927707988541
694.801744325481
694.671728789889
694.537435145448
694.398617023452
694.25500500377
694.106304888598
693.952192408958
693.792312218383
693.626270682362
693.453631562698
693.273914663028
693.086568900182
692.891015700093
692.686473716393
692.471924416844
692.246319873433
692.008518481073
691.757229335712
691.49093463137
691.207783711754
690.905679641986
690.582044685245
690.234066489431
689.859015055418
689.453504075842
689.013444011126
688.534828857786
688.01336645149
687.443889123343
686.821357029888
686.14081518054
685.396502105996
684.583234102818
683.696005425733
682.729620061643
681.679467892011
680.541982207789
679.313251276853
677.990322260711
676.571265501712
675.054769572663
673.439360209984
671.724548888106
669.910573948003
667.997910470564
665.986780493944
663.877669519043
661.670361230453
659.365627947604
656.963366205103
654.462711383116
651.863102394237
649.163546930529
646.36398225334
643.464726174905
640.466559688711
637.37041710151
634.17727776445
630.888089029045
627.503744536779
624.025051342913
620.452734824214
616.787605711877
613.0306924333
609.182914947995
605.245137079616
601.218122490905
597.102591365205
592.899173127194
588.608463854667
584.230976744158
579.767200856248
575.217549224131
570.582419243004
565.862202908381
561.057525992119
556.168935977802
551.196985409349
546.142151282499
541.00492255173
535.785715507971
530.484965360413
525.103037108455
519.640320760643
514.097137621952
508.473837653104
502.770703240706
496.988048005751
491.126118029373
485.185194430469
479.165489611522
473.06725815314
466.890882691754
460.636781991454
454.305308334222
447.89685367233
441.4117431867
434.850345145512
428.212959700295
421.499932900238
414.711541357629
407.848110499033
400.909895094088
393.897201741347
386.810265363105
379.64937557226
372.41474885045
365.106659157854
357.725305727662
350.270948087142
342.743769270275
335.144015467574
327.471854900692
319.727521611655
311.911170021449
304.023022623765
296.063309428694
288.032366834084
279.930450354733
271.757883531587
263.514907730642
255.201834011433
246.818890271534
238.366375961123
229.844506241577
221.253569998191
212.593770481269
203.865386905494
195.068611229727
186.203713457299
177.270874602748
168.270355711797
159.202327148207
150.067041339091
140.864658566996
131.595423094972
122.25948575305
112.857083256272
103.388357493262
93.8535382151488
84.2527587486691
74.5862425521027
64.8541146507913
55.0565922554813
45.1937922697257
35.2659262707626
25.2731031170963
15.2155297214623
5.09330801057418
)
;

boundaryField
{
    electrode
    {
        type            fixedValue;
        value           uniform 700;
    }
    ground
    {
        type            fixedValue;
        value           uniform 0;
    }
    otherfaces
    {
        type            empty;
    }
}


// ************************************************************************* //
