/*--------------------------------*- C++ -*----------------------------------*\
| =========                 |                                                 |
| \\      /  F ield         | foam-extend: Open Source CFD                    |
|  \\    /   O peration     | Version:     4.0                                |
|   \\  /    A nd           | Web:         http://www.foam-extend.org         |
|    \\/     M anipulation  |                                                 |
\*---------------------------------------------------------------------------*/
FoamFile
{
    version     2.0;
    format      ascii;
    class       volScalarField;
    location    "5.1e-06";
    object      PhiMean;
}
// * * * * * * * * * * * * * * * * * * * * * * * * * * * * * * * * * * * * * //

dimensions      [0 0 0 1 0 0 0];

internalField   nonuniform List<scalar> 
300
(
699.985570490538
699.984153848678
699.982471928482
699.980545823909
699.9783850258
699.975982533173
699.973337519256
699.970448738051
699.967314976745
699.963935335241
699.960309049992
699.956435521105
699.952314276267
699.947944959882
699.943327321227
699.938461202583
699.933346529499
699.927983304354
699.9223715982
699.916511543133
699.910403326748
699.904047186654
699.897443405115
699.890592303849
699.883494237964
699.876149602434
699.868558819736
699.86072233515
699.852640615429
699.844314139508
699.835743391612
699.826928874189
699.817871098995
699.808570570154
699.799027780262
699.789243205696
699.779217301126
699.768950496891
699.75844319343
699.747695754781
699.736708505564
699.725481728063
699.71401565429
699.702310461804
699.690366269191
699.678183131934
699.665761038214
699.653099906523
699.640199582648
699.627059840362
699.613680380451
699.600060841419
699.58620078849
699.572099714271
699.557757019591
699.543172005511
699.528343859488
699.513271649314
699.497954317315
699.482390673842
699.466579392006
699.450519001858
699.434207883612
699.417644260713
699.40082621634
699.383751685926
699.366418427982
699.348824018384
699.330965844271
699.312841096968
699.294446764674
699.27577962381
699.256836244886
699.237612989209
699.218105984947
699.198311128893
699.178224093547
699.157840311218
699.137154963127
699.116162948489
699.094858908982
699.073237185901
699.051291806639
699.029016477221
699.006404566374
698.983449111963
698.960142802677
698.936477950979
698.912446478299
698.888039911085
698.863249360553
698.838065505094
698.812478615523
698.786478494629
698.760054455541
698.733195305602
698.705889324809
698.678124247427
698.649887236233
698.621164864781
698.591943095955
698.562207251134
698.531941978425
698.501131255912
698.469758334995
698.43780571208
698.405255105772
698.372087406455
698.338282658851
698.303820010103
698.268677660865
698.232832824072
698.19626167467
698.158939309434
698.120839695644
698.081935602693
698.042198566646
698.001598834222
697.960105270095
697.917685275656
697.874304708444
697.829927821663
697.78451715601
697.738033473073
697.690435630118
697.641680440411
697.591722545458
697.540514299387
697.488005597436
697.434143718191
697.3788731487
697.322135397805
697.263868782854
697.204008192974
697.142484844539
697.079226054224
697.014154898612
696.947189865605
696.878244458962
696.807226807762
696.734039187165
696.658577500192
696.580730705977
696.500380165545
696.417398951488
696.331651096623
696.2429906534
696.151260663417
696.056291964541
695.957901850482
695.855892624999
695.750049825281
695.640140216088
695.525909543079
695.407079824856
695.283346223163
695.154373585879
695.019791955717
694.879192173727
694.732118676835
694.578064687128
694.416456485276
694.24662438577
694.06778199147
693.879018052304
693.679293214948
693.467417235647
693.241996484204
693.001386241362
692.743630456428
692.466418120386
692.167061327642
691.842497269083
691.489184053666
691.103050148788
690.679573816558
690.213700739874
689.699876297715
689.132250987135
688.504586548377
687.810482878234
687.043607056876
686.197789126679
685.267145653397
684.246555900998
683.131515630972
681.91833066677
680.604279057538
679.187558122735
677.667136719514
676.042645516466
674.314293281915
672.482858769886
670.54956712834
668.515501540132
666.381569520983
664.148450376066
661.816577409718
659.386368669215
656.858147566702
654.232105334433
651.508476516588
648.687587172991
645.770061240583
642.756821412135
639.648855768391
636.447183956654
633.152766893667
629.766520895842
626.289275777422
622.721807896247
619.06480521985
615.319010906197
611.48530883248
607.564557952117
603.557536713342
599.464981308248
595.287556563787
591.02589560404
586.680567851235
582.252120125676
577.741041981755
573.147808343522
568.472842917193
563.716562994584
558.8794463057
553.962088174084
548.965033176164
543.888823211559
538.733952310009
533.500916691071
528.190166736861
522.802160390033
517.337314147686
511.796056326609
506.17877314897
500.485865598423
494.717692920824
488.874632155782
482.957018937333
476.965209763975
470.899520517044
464.760293829689
458.547927656709
452.262894204407
445.90561570373
439.476542080077
432.976072655178
426.404636951449
419.762613006125
413.050411593043
406.268390813852
399.416944153365
392.496410897298
385.507168510795
378.449538455314
371.323883240148
364.13050740977
356.869759411191
349.541927733917
342.147347511417
334.686291959814
327.159083634858
319.565981000936
311.907294724645
304.183273148647
296.394226564033
288.540408827515
280.622180184626
272.639857917638
264.593831762634
256.484405525126
248.311958081787
240.076778996821
231.779236965079
223.419607794184
214.998250626174
206.515428010369
197.971490109671
189.366686701051
180.701359503874
171.975745920302
163.190179765223
154.344886450395
145.44019254346
136.476311924399
127.453564447975
118.372152775052
109.23239052108
100.034469417572
90.7786972439049
81.4652553307291
72.0944463294145
62.6664414804242
53.1815386538041
43.6398996656071
34.041818479224
24.3874479814878
14.6770793722333
4.91085756341023
)
;

boundaryField
{
    electrode
    {
        type            calculated;
        value           uniform 700.000000000129;
    }
    ground
    {
        type            calculated;
        value           uniform 0;
    }
    otherfaces
    {
        type            empty;
    }
}


// ************************************************************************* //
