/*--------------------------------*- C++ -*----------------------------------*\
| =========                 |                                                 |
| \\      /  F ield         | foam-extend: Open Source CFD                    |
|  \\    /   O peration     | Version:     4.0                                |
|   \\  /    A nd           | Web:         http://www.foam-extend.org         |
|    \\/     M anipulation  |                                                 |
\*---------------------------------------------------------------------------*/
FoamFile
{
    version     2.0;
    format      ascii;
    class       volScalarField;
    location    "5.1e-06";
    object      Sy_electron;
}
// * * * * * * * * * * * * * * * * * * * * * * * * * * * * * * * * * * * * * //

dimensions      [1 -3 -1 0 0 0 0];

internalField   nonuniform List<scalar> 
300
(
3.42690754218927e-09
3.42771387210989e-09
3.42803612824064e-09
3.42798699198948e-09
3.42796915880022e-09
3.42790513246264e-09
3.42780469164029e-09
3.42767304975391e-09
3.42750776704336e-09
3.42730906160171e-09
3.42707670213006e-09
3.42681036672319e-09
3.42650978550874e-09
3.4261746634767e-09
3.4258046968054e-09
3.4253995729248e-09
3.4249589685541e-09
3.42448254974656e-09
3.42396997131424e-09
3.42342087628271e-09
3.42283489534213e-09
3.42221164626805e-09
3.421550733317e-09
3.42085174659715e-09
3.42011426138982e-09
3.41933783754526e-09
3.41852201872051e-09
3.41766633167266e-09
3.41677028554307e-09
3.41583337106249e-09
3.41485505975029e-09
3.4138348031934e-09
3.41277203220599e-09
3.41166615591598e-09
3.41051656080658e-09
3.40932260982518e-09
3.40808364192862e-09
3.4067989720097e-09
3.40546789009006e-09
3.40408965758764e-09
3.40266349889983e-09
3.40118859475246e-09
3.39966410031908e-09
3.39808921411281e-09
3.39646326250454e-09
3.39478561189714e-09
3.39375654694722e-09
3.39298493093392e-09
3.39218045981664e-09
3.39134198961568e-09
3.39046839711248e-09
3.38955853994523e-09
3.38861124457165e-09
3.38762530155748e-09
3.38659946319934e-09
3.38553244198733e-09
3.3844229092826e-09
3.38326949411805e-09
3.38207078203071e-09
3.38082531393546e-09
3.37953158501124e-09
3.37818804361098e-09
3.37679309019381e-09
3.37534507626654e-09
3.37384230342753e-09
3.37228302237698e-09
3.37066543186669e-09
3.36898767778602e-09
3.36724785226231e-09
3.36544399273819e-09
3.36357408110355e-09
3.36163604284869e-09
3.35962774624643e-09
3.35754700155464e-09
3.35539156018946e-09
3.35315911402661e-09
3.35084729464903e-09
3.34845367261196e-09
3.34597575679266e-09
3.34341099360562e-09
3.34075676652522e-09
3.33801039528357e-09
3.33516913529056e-09
3.3322301770313e-09
3.32919064541981e-09
3.32604759927202e-09
3.32279803066976e-09
3.31943886433731e-09
3.31596695705013e-09
3.3123790970811e-09
3.30867200352226e-09
3.30484232561293e-09
3.30088664229781e-09
3.29680146131413e-09
3.29258321854291e-09
3.28822827727111e-09
3.28373292737387e-09
3.27909338444958e-09
3.27430578888769e-09
3.26936620489415e-09
3.26427061939416e-09
3.25901494083645e-09
3.25359499786623e-09
3.24800653804315e-09
3.24224522615425e-09
3.23630664257004e-09
3.23018628141817e-09
3.22387954845867e-09
3.21738175892306e-09
3.21068813498824e-09
3.20379380307211e-09
3.19669379086015e-09
3.18938302401593e-09
3.18185632261114e-09
3.17410839717789e-09
3.16613384436407e-09
3.15792714221898e-09
3.14948264507627e-09
3.14079457778773e-09
3.13185702953914e-09
3.12266394706339e-09
3.11320912731298e-09
3.10348620926766e-09
3.09348866521886e-09
3.08320979109851e-09
3.07264269598476e-09
3.06178029064779e-09
3.05061527514909e-09
3.03914012535994e-09
3.02734707793678e-09
3.01522811454765e-09
3.00277494435914e-09
2.9899789845703e-09
2.97683134081495e-09
2.96332278302101e-09
2.94944372017755e-09
2.93518418413609e-09
2.92053378518691e-09
2.90548164755138e-09
2.89001653852233e-09
2.8741266849936e-09
2.85779929253899e-09
2.84102216587163e-09
2.82429227758305e-09
2.80839688784772e-09
2.79203063656422e-09
2.77517649204598e-09
2.75781734939841e-09
2.73993526286117e-09
2.7215112246717e-09
2.70252509130623e-09
2.68295559678587e-09
2.66277981211482e-09
2.64197401653699e-09
2.62051200125886e-09
2.59836667573063e-09
2.57550929308152e-09
2.55190687498241e-09
2.52753062894662e-09
2.50233850600785e-09
2.47631452441159e-09
2.44941295599814e-09
2.42171031217675e-09
2.39358383801147e-09
2.36489162544103e-09
2.33490880785301e-09
2.30335945309183e-09
2.27035999533941e-09
2.23397487905832e-09
2.19436459427041e-09
2.15305385672878e-09
2.10972206778193e-09
2.06317406636778e-09
2.01290083012473e-09
1.95981978160774e-09
1.90342944296496e-09
1.84223671037082e-09
1.77677407247143e-09
1.70796134642831e-09
1.62611134659434e-09
1.54120913231468e-09
1.45576460160897e-09
1.3711000246899e-09
1.29027572149762e-09
1.21074524991471e-09
1.13211728082232e-09
1.06979833515055e-09
1.02054922304188e-09
9.85420691122141e-10
9.71375093944886e-10
9.85452984956593e-10
1.03103966801381e-09
1.11883847431485e-09
1.26740690738518e-09
1.51112796465333e-09
1.91593770143058e-09
2.5898792351697e-09
3.72250349604341e-09
4.96419810840723e-09
6.0610576520635e-09
7.24634217763131e-09
7.45348710842037e-09
6.71874285651917e-09
5.46104024589421e-09
4.20381108008647e-09
3.20380207719913e-09
2.50009487077331e-09
2.03559041724085e-09
1.74298400851619e-09
1.55865211108447e-09
1.45223966382634e-09
1.38353894520275e-09
1.34729893142865e-09
1.330484006979e-09
1.32075469611087e-09
1.31893067132388e-09
1.32147380703546e-09
1.32595090552688e-09
1.33093241034704e-09
1.33537519925437e-09
1.3385764376736e-09
1.33913438558799e-09
1.33689008262935e-09
1.33253452870702e-09
1.32600548188534e-09
1.31731395112439e-09
1.30652630058854e-09
1.29374750133832e-09
1.27910880744172e-09
1.2627591588633e-09
1.24485846259983e-09
1.22557235588693e-09
1.20506807253408e-09
1.18351119269744e-09
1.16106310360935e-09
1.13787903930194e-09
1.114106604665e-09
1.08988470827851e-09
1.06534279573163e-09
1.04060046096446e-09
1.01576666126982e-09
9.90940693538133e-10
9.66201742957718e-10
9.41619943149324e-10
9.17269330711802e-10
8.93217172457976e-10
8.69522163938953e-10
8.46234463655885e-10
8.23396175064329e-10
8.01041950291614e-10
7.7919961975235e-10
7.57890825062284e-10
7.37131636274058e-10
7.16933224195067e-10
6.97302518832787e-10
6.78244291747259e-10
6.59756127848993e-10
6.41830885235778e-10
6.24462936327453e-10
6.07646559999072e-10
5.91371820741838e-10
5.75627446960967e-10
5.60400882775512e-10
5.45678700495835e-10
5.31446827755653e-10
5.17690762498913e-10
5.04395888848675e-10
4.91547688769562e-10
4.79131381641981e-10
4.67129294536118e-10
4.55514392354964e-10
4.44263694931177e-10
4.33364769394058e-10
4.2280598558713e-10
4.12576774316681e-10
4.02667099723095e-10
3.93067530752012e-10
3.83769272457621e-10
3.74764235934969e-10
3.66045091576479e-10
3.57605327605634e-10
3.49438872871422e-10
3.41283136003716e-10
3.33020945616189e-10
3.24964312981398e-10
3.17093799429974e-10
3.09420552495698e-10
3.01958099787663e-10
2.9472104585259e-10
2.87075013699582e-10
2.79024237375414e-10
2.71151097203886e-10
2.63508893152354e-10
2.54758860377513e-10
2.45513349748456e-10
2.36025566079997e-10
2.24284963319026e-10
2.10847453070338e-10
1.93920497027543e-10
1.69928124070734e-10
)
;

boundaryField
{
    electrode
    {
        type            zeroGradient;
    }
    ground
    {
        type            zeroGradient;
    }
    otherfaces
    {
        type            empty;
    }
}


// ************************************************************************* //
