/*--------------------------------*- C++ -*----------------------------------*\
| =========                 |                                                 |
| \\      /  F ield         | foam-extend: Open Source CFD                    |
|  \\    /   O peration     | Version:     4.0                                |
|   \\  /    A nd           | Web:         http://www.foam-extend.org         |
|    \\/     M anipulation  |                                                 |
\*---------------------------------------------------------------------------*/
FoamFile
{
    version     2.0;
    format      ascii;
    class       volScalarField;
    location    "5.1e-06";
    object      TeMean;
}
// * * * * * * * * * * * * * * * * * * * * * * * * * * * * * * * * * * * * * //

dimensions      [0 0 0 1 0 0 0];

internalField   nonuniform List<scalar> 
300
(
33985.6810869204
33985.9721623285
33986.0855353878
33986.0524021303
33986.0261264991
33985.98739795
33985.9389648568
33985.8839027809
33985.8224447075
33985.7553750118
33985.6834003305
33985.6071900522
33985.5273980409
33985.4446378868
33985.3595029653
33985.2725645849
33985.1843704253
33985.09545047
33985.0063164306
33984.9174615114
33984.8293638916
33984.7424840787
33984.6572679091
33984.5741456255
33984.4935313686
33984.4158369683
33984.3414627803
33984.2707943626
33984.2042132505
33984.1420823703
33984.08474442
33984.0325526207
33983.985867641
33983.9450329968
33983.9103820771
33983.8822330995
33983.8608991829
33983.8466994387
33983.83994805
33983.8409485993
33983.8499965625
33983.8673935673
33983.8934371795
33983.9284173171
33983.9726203715
33984.0263285104
33984.0898192843
33984.1633652028
33984.2472299345
33984.3416679087
33984.446924419
33984.5632540389
33984.6909310177
33984.8302262397
33984.9814132539
33985.1447757773
33985.3205878931
33985.5091165494
33985.7106377636
33985.9254286605
33986.153765522
33986.3959352127
33986.6522048535
33986.9228347459
33987.2081227588
33987.5083857332
33987.8239361553
33988.155084727
33988.5021451398
33988.8654401973
33989.2452916421
33989.6420092044
33990.0559232557
33990.4873802012
33990.9367157027
33991.404257868
33991.8903622987
33992.3954216225
33992.919817445
33993.4639280147
33994.0281713959
33994.6129800364
33995.2187734583
33995.8459677874
33996.4949880984
33997.1662970114
33997.8603892821
33998.5777572212
33999.3188936512
34000.0843165554
34000.8745416731
34001.6900971596
34002.5315843733
34003.3996014149
34004.294748479
34005.2176711864
34006.1690244644
34007.149486125
34008.1597504688
34009.2005396068
34010.2726227392
34011.376759787
34012.5137345765
34013.6844032449
34014.8896460852
34016.1303668232
34017.4074971493
34018.7220073372
34020.0749218206
34021.4673019674
34022.9002518809
34024.3749173677
34025.8924804047
34027.4541984916
34029.0613681762
34030.7153234097
34032.4174504049
34034.1692238865
34035.9722108727
34037.8279971278
34039.7382325847
34041.7046599903
34043.7290964099
34045.8134673641
34047.9598204334
34050.1702797667
34052.4470425477
34054.7924416013
34057.2089482448
34059.6991314911
34062.2656908088
34064.9114954727
34067.6395877226
34070.4531247353
34073.3554317114
34076.3501150633
34079.4410207361
34082.6322113196
34085.9280053901
34089.333014569
34092.8521683619
34096.4907344222
34100.2543456675
34104.1490068043
34108.1811884152
34112.3579441745
34116.686944277
34121.1765352881
34125.8357225474
34130.674313371
34135.7031474919
34140.9340995095
34146.3802351108
34152.056115654
34157.9778107742
34164.1633229749
34170.6327384156
34177.4092186016
34184.5194267772
34191.996795204
34199.8947365458
34208.2838091729
34217.2244656586
34226.7544378833
34236.9101577983
34247.766353292
34259.4417656158
34272.0710237831
34285.7836907464
34300.6794723761
34316.8059412739
34334.218681039
34353.0562709584
34373.4018456389
34395.2679329141
34418.7965954269
34444.146017191
34471.5975332611
34501.9004447539
34536.2465650785
34576.6385563915
34626.625691401
34691.687572635
34780.1343295547
34904.8179637063
35084.7057962907
35347.546637087
35734.6107939749
36307.509278663
37159.8482133503
38436.3424576379
40366.1781932416
43321.1968040085
48023.6140230425
55197.1610225989
65316.7540446062
80057.1357332041
100154.40547523
127118.506811002
161461.536189998
202856.47530455
249843.602167171
300756.560296797
353594.578739907
406447.491652093
457632.8440854
505772.844025991
549898.112562453
589558.848632873
624755.705613758
655778.007686009
683058.992242052
707097.194146665
728376.202950396
747320.731940567
764313.381115159
779680.607467998
793690.56898991
806561.430222385
818472.900203255
829570.195716905
839971.62511893
849780.681151403
859084.496917053
867953.710530057
876446.136857602
884609.22450564
892481.604743369
900094.449618039
907472.618382163
914635.553724129
921598.024934245
928370.738183793
934960.751297872
941371.955342789
947605.515133803
953660.106370024
959532.203942536
965216.313415861
970705.189682661
975990.011833583
981060.565043938
985905.402016942
990511.818696044
994866.202260639
998954.401882726
1002761.24100879
1006270.91250754
1009467.21440438
1012333.1636694
1014851.92826213
1017006.58415549
1018779.56395746
1020153.04324606
1021108.78564957
1021628.17929147
1021689.23144097
1021278.45802074
1020380.89728105
1018973.54687844
1017037.45865704
1014553.30356387
1011501.85299739
1007863.68535536
1003619.16624655
998748.880446169
993232.63683001
987049.585695505
980179.396338837
972600.744311886
964291.454354502
955229.25752736
945391.071006713
934752.465718303
923287.770692023
910970.016544928
897770.812273014
883660.143876531
868606.213126569
852575.149082301
835530.955049604
817435.170664986
798251.842857026
777935.404699917
756432.671269958
733692.239383319
709651.343567813
684236.2840942
657375.147147698
628981.40334844
598947.893392154
567156.057832938
533469.500499923
497707.933988777
459654.151940732
419032.586105038
375454.016969583
328386.940636413
277054.145290559
220428.021703315
)
;

boundaryField
{
    electrode
    {
        type            calculated;
        value           uniform 33985.6810869228;
    }
    ground
    {
        type            calculated;
        value           uniform 188318.634893479;
    }
    otherfaces
    {
        type            empty;
    }
}


// ************************************************************************* //
