/*--------------------------------*- C++ -*----------------------------------*\
| =========                 |                                                 |
| \\      /  F ield         | foam-extend: Open Source CFD                    |
|  \\    /   O peration     | Version:     4.0                                |
|   \\  /    A nd           | Web:         http://www.foam-extend.org         |
|    \\/     M anipulation  |                                                 |
\*---------------------------------------------------------------------------*/
FoamFile
{
    version     2.0;
    format      ascii;
    class       volVectorField;
    location    "3e-10";
    object      E;
}
// * * * * * * * * * * * * * * * * * * * * * * * * * * * * * * * * * * * * * //

dimensions      [0 0 0 1 0 0 0];

internalField   nonuniform List<vector> 
249
(
(-0 6795.82326811168 -0)
(-0 4529.16658065073 -0)
(-0 4529.16629464155 -0)
(-0 4529.16640320999 -0)
(-0 4529.16612027958 -0)
(-0 4529.16573901115 -0)
(-0 4529.16564222694 -0)
(-0 4529.16595608563 -0)
(-0 4529.16638682039 -0)
(-0 4529.16638820317 -0)
(-0 4529.16640354779 -0)
(-0 4529.16610574364 -0)
(-0 4529.16567597502 -0)
(-0 4529.16580706826 -0)
(-0 4529.1661198997 -0)
(-0 4529.1661009935 -0)
(-0 4529.16598344881 -0)
(-0 4529.16611583783 -0)
(-0 4529.1662132217 -0)
(-0 4529.16612995894 -0)
(-0 4529.16591633097 -0)
(-0 4529.16590172383 -0)
(-0 4529.16605326187 -0)
(-0 4529.16603783129 -0)
(-0 4529.1657892161 -0)
(-0 4529.16573834057 -0)
(-0 4529.1655888423 -0)
(-0 4529.16548940201 -0)
(-0 4529.16552325763 -0)
(-0 4529.16540846171 -0)
(-0 4529.16520894141 -0)
(-0 4529.16509290286 -0)
(-0 4529.16522489017 -0)
(-0 4529.1650932602 -0)
(-0 4529.16479890544 -0)
(-0 4529.16466844174 -0)
(-0 4529.16486749852 -0)
(-0 4529.16493340341 -0)
(-0 4529.16483331786 -0)
(-0 4529.16495038077 -0)
(-0 4529.16480416755 -0)
(-0 4529.16452516036 -0)
(-0 4529.16464224871 -0)
(-0 4529.16512219275 -0)
(-0 4529.16535491516 -0)
(-0 4529.16517498523 -0)
(-0 4529.16507715085 -0)
(-0 4529.16514263895 -0)
(-0 4529.16530672584 -0)
(-0 4529.16537417032 -0)
(-0 4529.16545905704 -0)
(-0 4529.16524522325 -0)
(-0 4529.16519710936 -0)
(-0 4529.16544611229 -0)
(-0 4529.16531355768 -0)
(-0 4529.16523011387 -0)
(-0 4529.16539592274 -0)
(-0 4529.16567849488 -0)
(-0 4529.16576265254 -0)
(-0 4529.16607828988 -0)
(-0 4529.16617914015 -0)
(-0 4529.16614718326 -0)
(-0 4529.16632797765 -0)
(-0 4529.16586445624 -0)
(-0 4529.16535284524 -0)
(-0 4529.16543694045 -0)
(-0 4529.16581802856 -0)
(-0 4529.16603302241 -0)
(-0 4529.16585334545 -0)
(-0 4529.16587142844 -0)
(-0 4529.16606936294 -0)
(-0 4529.16608678626 -0)
(-0 4529.16605527936 -0)
(-0 4529.16615540958 -0)
(-0 4529.16643662824 -0)
(-0 4529.16661774667 -0)
(-0 4529.16678214458 -0)
(-0 4529.1667322414 -0)
(-0 4529.16643542748 -0)
(-0 4529.16613862309 -0)
(-0 4529.16567572651 -0)
(-0 4529.16557623901 -0)
(-0 4529.16549417091 -0)
(-0 4529.16521448987 -0)
(-0 4529.1652811567 -0)
(-0 4529.16536509723 -0)
(-0 4529.16548274486 -0)
(-0 4529.16556618443 -0)
(-0 4529.16571451735 -0)
(-0 4529.16578206978 -0)
(-0 4529.16561884719 -0)
(-0 4529.16560243076 -0)
(-0 4529.16580087045 -0)
(-0 4529.1661652856 -0)
(-0 4529.16652962361 -0)
(-0 4529.16684436862 -0)
(-0 4529.16695958754 -0)
(-0 4529.16704113504 -0)
(-0 4529.16735707678 -0)
(-0 4529.16732602028 -0)
(-0 4529.16722788305 -0)
(-0 4529.16774036498 -0)
(-0 4529.16821921818 -0)
(-0 4529.16830280601 -0)
(-0 4529.16843537402 -0)
(-0 4529.16846826375 -0)
(-0 4529.16855019361 -0)
(-0 4529.16861652099 -0)
(-0 4529.16841927005 -0)
(-0 4529.16825415198 -0)
(-0 4529.16798880164 -0)
(-0 4529.16802135357 -0)
(-0 4529.16828779228 -0)
(-0 4529.1682055697 -0)
(-0 4529.16787485327 -0)
(-0 4529.16756303617 -0)
(-0 4529.1675643215 -0)
(-0 4529.16756311702 -0)
(-0 4529.16716604386 -0)
(-0 4529.16695202297 -0)
(-0 4529.16713557714 -0)
(-0 4529.16715306591 -0)
(-0 4529.1669876454 -0)
(-0 4529.16674135993 -0)
(-0 4529.16629778432 -0)
(-0 4529.16611746918 -0)
(-0 4529.16629992672 -0)
(-0 4529.16631744847 -0)
(-0 4529.16613546377 -0)
(-0 4529.16626821086 -0)
(-0 4529.16638585889 -0)
(-0 4529.16635463003 -0)
(-0 4529.16631355876 -0)
(-0 4529.16636278283 -0)
(-0 4529.16647094538 -0)
(-0 4529.16624711909 -0)
(-0 4529.16623084959 -0)
(-0 4529.16642188954 -0)
(-0 4529.16638091142 -0)
(-0 4529.1663828797 -0)
(-0 4529.16658277162 -0)
(-0 4529.16676546521 -0)
(-0 4529.16691511159 -0)
(-0 4529.1669247135 -0)
(-0 4529.16695055307 -0)
(-0 4529.16685135954 -0)
(-0 4529.16681030295 -0)
(-0 4529.16704205 -0)
(-0 4529.16719075836 -0)
(-0 4529.16732338199 -0)
(-0 4529.16731566108 -0)
(-0 4529.16723345918 -0)
(-0 4529.16737475941 -0)
(-0 4529.16749137151 -0)
(-0 4529.16731897467 -0)
(-0 4529.16713834427 -0)
(-0 4529.16724670907 -0)
(-0 4529.16747104179 -0)
(-0 4529.16747194807 -0)
(-0 4529.16749756999 -0)
(-0 4529.16750733579 -0)
(-0 4529.16746787048 -0)
(-0 4529.16752732471 -0)
(-0 4529.1676444083 -0)
(-0 4529.16781047577 -0)
(-0 4529.16792719943 -0)
(-0 4529.16801924685 -0)
(-0 4529.16815182756 -0)
(-0 4529.16823559397 -0)
(-0 4529.16827790571 -0)
(-0 4529.16833604337 -0)
(-0 4529.16851024224 -0)
(-0 4529.1686516802 -0)
(-0 4529.16874418783 -0)
(-0 4529.16883669951 -0)
(-0 4529.16878010484 -0)
(-0 4529.1687978943 -0)
(-0 4529.16883185916 -0)
(-0 4529.16881563215 -0)
(-0 4529.16891515046 -0)
(-0 4529.16916389349 -0)
(-0 4529.16920686355 -0)
(-0 4529.16930802164 -0)
(-0 4529.16937601072 -0)
(-0 4529.1692863643 -0)
(-0 4529.16932833121 -0)
(-0 4529.16921356372 -0)
(-0 4529.16916479511 -0)
(-0 4529.16919005773 -0)
(-0 4529.1691654461 -0)
(-0 4529.16932288515 -0)
(-0 4529.16948115665 -0)
(-0 4529.16942463043 -0)
(-0 4529.16944290078 -0)
(-0 4529.16945266472 -0)
(-0 4529.16943316394 -0)
(-0 4529.16947575599 -0)
(-0 4529.16952258981 -0)
(-0 4529.16960254861 -0)
(-0 4529.16957878547 -0)
(-0 4529.16958005354 -0)
(-0 4529.16962286406 -0)
(-0 4529.16954966757 -0)
(-0 4529.16955452901 -0)
(-0 4529.16960079757 -0)
(-0 4529.16960560649 -0)
(-0 4529.16965573208 -0)
(-0 4529.16974354423 -0)
(-0 4529.16976554093 -0)
(-0 4529.16976638517 -0)
(-0 4529.1697962741 -0)
(-0 4529.16971931518 -0)
(-0 4529.16968342712 -0)
(-0 4529.16978763027 -0)
(-0 4529.16992484764 -0)
(-0 4529.16994655648 -0)
(-0 4529.16985285026 -0)
(-0 4529.16977164262 -0)
(-0 4529.16976911228 -0)
(-0 4529.16978309277 -0)
(-0 4529.16973463208 -0)
(-0 4529.16974815142 -0)
(-0 4529.16981565215 -0)
(-0 4529.16985851696 -0)
(-0 4529.16986407551 -0)
(-0 4529.16984030947 -0)
(-0 4529.16989504743 -0)
(-0 4529.16991895367 -0)
(-0 4529.1699036561 -0)
(-0 4529.16993205063 -0)
(-0 4529.16996446959 -0)
(-0 4529.16993900298 -0)
(-0 4529.16992620825 -0)
(-0 4529.16993796931 -0)
(-0 4529.16990812143 -0)
(-0 4529.16987232602 -0)
(-0 4529.16986152687 -0)
(-0 4529.16986716544 -0)
(-0 4529.16989756588 -0)
(-0 4529.16992800168 -0)
(-0 4529.16991085795 -0)
(-0 4529.16988002738 -0)
(-0 4529.16986578922 -0)
(-0 4529.16987749734 -0)
(-0 4529.1699025757 -0)
(-0 4529.16992673144 -0)
(-0 4529.16994099752 -0)
(-0 4529.16996343779 -0)
(-0 6795.02063755887 -0)
)
;

boundaryField
{
    dielectric_2
    {
        type            calculated;
        value           nonuniform 0();
    }
    dielectric_1
    {
        type            calculated;
        value           nonuniform 0();
    }
    otherfaces
    {
        type            empty;
    }
    procBoundary0to1
    {
        type            processor;
        value           uniform (-0 6797.98562379554 -0);
    }
    procBoundary0to2
    {
        type            processor;
        value           uniform (-0 6796.2634510702 -0);
    }
}


// ************************************************************************* //
