/*--------------------------------*- C++ -*----------------------------------*\
| =========                 |                                                 |
| \\      /  F ield         | foam-extend: Open Source CFD                    |
|  \\    /   O peration     | Version:     4.0                                |
|   \\  /    A nd           | Web:         http://www.foam-extend.org         |
|    \\/     M anipulation  |                                                 |
\*---------------------------------------------------------------------------*/
FoamFile
{
    version     2.0;
    format      ascii;
    class       volScalarField;
    location    "2.8e-06";
    object      Ar;
}
// * * * * * * * * * * * * * * * * * * * * * * * * * * * * * * * * * * * * * //

dimensions      [0 0 0 1 0 0 0];

internalField   nonuniform List<scalar> 
300
(
3.21880349148136e+22
3.21880348823374e+22
3.2188034904962e+22
3.21880349192965e+22
3.21880349393461e+22
3.21880349668812e+22
3.2188035000679e+22
3.21880350408989e+22
3.21880350875484e+22
3.21880351405706e+22
3.2188035199941e+22
3.21880352656335e+22
3.21880353376213e+22
3.21880354158779e+22
3.2188035500377e+22
3.21880355910919e+22
3.21880356879982e+22
3.21880357910669e+22
3.21880359002677e+22
3.21880360155715e+22
3.21880361369482e+22
3.21880362643668e+22
3.21880363977959e+22
3.21880365372032e+22
3.21880366825715e+22
3.21880368338548e+22
3.21880369910198e+22
3.21880371540347e+22
3.2188037322855e+22
3.21880374974446e+22
3.21880376777854e+22
3.21880378638337e+22
3.21880380555387e+22
3.21880382528618e+22
3.21880384557648e+22
3.21880386642093e+22
3.21880388781614e+22
3.2188039097581e+22
3.21880393224275e+22
3.21880395526637e+22
3.21880397882531e+22
3.21880400291573e+22
3.218804027534e+22
3.21880405267655e+22
3.21880407833988e+22
3.2188041045206e+22
3.21880413121561e+22
3.21880415842188e+22
3.21880418613736e+22
3.21880421435951e+22
3.21880424308703e+22
3.2188042723162e+22
3.21880430204529e+22
3.21880433227036e+22
3.21880436298864e+22
3.21880439419667e+22
3.21880442589253e+22
3.21880445807449e+22
3.2188044907411e+22
3.21880452389134e+22
3.21880455752403e+22
3.21880459163845e+22
3.21880462623469e+22
3.21880466131459e+22
3.21880469687805e+22
3.21880473292309e+22
3.21880476945043e+22
3.21880480646108e+22
3.21880484395643e+22
3.21880488193823e+22
3.21880492040879e+22
3.2188049593714e+22
3.21880499882918e+22
3.21880503878473e+22
3.2188050792431e+22
3.21880512020833e+22
3.21880516168432e+22
3.21880520367642e+22
3.218805246188e+22
3.21880528922795e+22
3.21880533279905e+22
3.21880537690779e+22
3.21880542156164e+22
3.21880546676799e+22
3.21880551253642e+22
3.21880555887473e+22
3.21880560579078e+22
3.21880565329407e+22
3.21880570139581e+22
3.21880575010572e+22
3.21880579943539e+22
3.21880584940082e+22
3.21880590000846e+22
3.21880595127062e+22
3.21880600320024e+22
3.21880605581077e+22
3.21880610911617e+22
3.2188061631309e+22
3.21880621787092e+22
3.21880627335161e+22
3.21880632958816e+22
3.2188063865967e+22
3.21880644439713e+22
3.21880650300367e+22
3.2188065624348e+22
3.21880662270944e+22
3.21880668384444e+22
3.21880674586051e+22
3.2188068087757e+22
3.2188068726089e+22
3.21880693738006e+22
3.21880700310947e+22
3.21880706981823e+22
3.21880713752715e+22
3.21880720625725e+22
3.2188072760313e+22
3.21880734687237e+22
3.21880741879927e+22
3.21880749183335e+22
3.21880756599687e+22
3.21880764131401e+22
3.21880771780498e+22
3.21880779549415e+22
3.21880787440186e+22
3.21880795454824e+22
3.21880803595459e+22
3.21880811864461e+22
3.21880820263715e+22
3.21880828795358e+22
3.21880837461405e+22
3.21880846263962e+22
3.2188085520497e+22
3.2188086428633e+22
3.21880873510091e+22
3.21880882878343e+22
3.21880892392549e+22
3.21880902054242e+22
3.21880911865161e+22
3.21880921826887e+22
3.2188093194062e+22
3.21880942207704e+22
3.21880952629369e+22
3.21880963206875e+22
3.21880973941341e+22
3.21880984833666e+22
3.21880995884142e+22
3.21881007093234e+22
3.21881018461235e+22
3.21881029988373e+22
3.21881041674835e+22
3.21881053519944e+22
3.21881065523124e+22
3.21881077683865e+22
3.21881090000701e+22
3.21881102471944e+22
3.2188111509577e+22
3.21881127869777e+22
3.21881140790594e+22
3.2188115385397e+22
3.21881167055957e+22
3.21881180393838e+22
3.21881193845375e+22
3.21881207449612e+22
3.21881221062975e+22
3.21881234687941e+22
3.2188124847495e+22
3.21881262352137e+22
3.21881276272735e+22
3.21881290169479e+22
3.21881304004818e+22
3.21881317841868e+22
3.2188133174545e+22
3.21881345512009e+22
3.21881358988679e+22
3.21881372478669e+22
3.21881385671596e+22
3.21881398185767e+22
3.21881410822613e+22
3.21881422500098e+22
3.21881433421282e+22
3.21881444189896e+22
3.21881453808625e+22
3.2188146238472e+22
3.21881470619673e+22
3.21881477523554e+22
3.21881483450773e+22
3.21881488983761e+22
3.21881493607206e+22
3.21881497296488e+22
3.21881500358991e+22
3.21881503248268e+22
3.21881505624333e+22
3.21881507463543e+22
3.21881508876384e+22
3.21881509467446e+22
3.21881509647057e+22
3.21881509312463e+22
3.21881509147974e+22
3.21881509136266e+22
3.21881509376286e+22
3.21881509694566e+22
3.21881510116714e+22
3.21881510736182e+22
3.21881511366394e+22
3.21881511928497e+22
3.21881512436824e+22
3.21881512885936e+22
3.2188151328647e+22
3.21881513632332e+22
3.21881513937854e+22
3.21881514201374e+22
3.21881514555284e+22
3.21881514944498e+22
3.21881515308628e+22
3.21881515635499e+22
3.21881515943007e+22
3.2188151621804e+22
3.21881516479834e+22
3.21881516711316e+22
3.21881516935694e+22
3.21881517131512e+22
3.21881517323056e+22
3.21881517488675e+22
3.21881517652853e+22
3.21881517859875e+22
3.21881518133891e+22
3.21881518380119e+22
3.21881518631369e+22
3.21881518854117e+22
3.2188151908421e+22
3.21881519286358e+22
3.2188151949799e+22
3.21881519682487e+22
3.21881519878219e+22
3.21881520047039e+22
3.21881520228619e+22
3.21881520382401e+22
3.21881520549893e+22
3.21881520688273e+22
3.21881520841438e+22
3.21881520964704e+22
3.21881521103221e+22
3.2188152124494e+22
3.21881521460805e+22
3.21881521646377e+22
3.21881521850182e+22
3.21881522022777e+22
3.21881522216498e+22
3.21881522377723e+22
3.21881522561899e+22
3.2188152271303e+22
3.21881522887949e+22
3.21881523028927e+22
3.21881523193878e+22
3.21881523325295e+22
3.21881523479869e+22
3.21881523602163e+22
3.21881523747628e+22
3.21881523860759e+22
3.21881523997576e+22
3.21881524102235e+22
3.2188152423048e+22
3.218815243267e+22
3.2188152444699e+22
3.21881524534894e+22
3.21881524647588e+22
3.2188152472725e+22
3.21881524834075e+22
3.21881524965966e+22
3.21881525123403e+22
3.21881525246972e+22
3.21881525397116e+22
3.21881525513118e+22
3.21881525655946e+22
3.21881525764905e+22
3.21881525900507e+22
3.2188152600241e+22
3.21881526131734e+22
3.2188152622633e+22
3.21881526350161e+22
3.21881526437767e+22
3.21881526557027e+22
3.21881526639463e+22
3.21881526755284e+22
3.21881526832595e+22
3.21881526944095e+22
3.21881527016638e+22
3.21881527123847e+22
3.21881527192018e+22
3.21881527296503e+22
3.2188152736221e+22
3.2188152746329e+22
3.21881527524702e+22
3.21881527624138e+22
3.21881527684114e+22
3.218815277819e+22
3.21881527840873e+22
3.2188152794023e+22
3.21881528000164e+22
3.21881528124351e+22
)
;

boundaryField
{
    electrode
    {
        type            zeroGradient;
    }
    ground
    {
        type            zeroGradient;
    }
    otherfaces
    {
        type            empty;
    }
}


// ************************************************************************* //
