/*--------------------------------*- C++ -*----------------------------------*\
| =========                 |                                                 |
| \\      /  F ield         | foam-extend: Open Source CFD                    |
|  \\    /   O peration     | Version:     4.0                                |
|   \\  /    A nd           | Web:         http://www.foam-extend.org         |
|    \\/     M anipulation  |                                                 |
\*---------------------------------------------------------------------------*/
FoamFile
{
    version     2.0;
    format      ascii;
    class       volScalarField;
    location    "2.8e-06";
    object      Arm;
}
// * * * * * * * * * * * * * * * * * * * * * * * * * * * * * * * * * * * * * //

dimensions      [0 0 0 1 0 0 0];

internalField   nonuniform List<scalar> 
300
(
3.57415135324352e+15
3.57603007388518e+15
3.57797945081219e+15
3.57928530395523e+15
3.58010148354739e+15
3.58047996948273e+15
3.58046497347313e+15
3.58008792731515e+15
3.57937448748878e+15
3.5783466407367e+15
3.5770201566623e+15
3.57540912176606e+15
3.57352558877401e+15
3.5713801600468e+15
3.5689822924039e+15
3.56634053374665e+15
3.56345969932314e+15
3.56034838018899e+15
3.55701491963056e+15
3.5534657954661e+15
3.54970720916079e+15
3.54574508242093e+15
3.54158510527241e+15
3.5372327421784e+15
3.53267726976185e+15
3.52793647135309e+15
3.52301403701913e+15
3.51791196786726e+15
3.51264387846105e+15
3.50721466072107e+15
3.50161050847531e+15
3.49584281603019e+15
3.48992971118148e+15
3.48387656365668e+15
3.47768845971894e+15
3.47137020565303e+15
3.46492196346934e+15
3.4583502556948e+15
3.45166215581079e+15
3.44486119545428e+15
3.43795087636827e+15
3.43093647823919e+15
3.42382188067387e+15
3.41661077529577e+15
3.40930666235672e+15
3.40191280784444e+15
3.39443015334988e+15
3.38686015767652e+15
3.3791950404748e+15
3.37143341075922e+15
3.36356262567828e+15
3.35559523735725e+15
3.34752580770511e+15
3.33937209158159e+15
3.33114220293732e+15
3.32285253608411e+15
3.3145063781013e+15
3.30610664514114e+15
3.29765591124476e+15
3.28915458775845e+15
3.28060699682994e+15
3.27201525315389e+15
3.26337602180724e+15
3.25467129939932e+15
3.24590506459079e+15
3.23710295322351e+15
3.22826703299953e+15
3.21939914367413e+15
3.21050087106166e+15
3.20157357691208e+15
3.19261642024659e+15
3.1836222365072e+15
3.17458948504417e+15
3.16552564536874e+15
3.15641713491017e+15
3.14726502289026e+15
3.13807567062533e+15
3.12884490893624e+15
3.11959280211118e+15
3.11028865868502e+15
3.10096717625139e+15
3.09163045017118e+15
3.082275384355e+15
3.07290426480875e+15
3.06350222689882e+15
3.05407703365198e+15
3.04464040815526e+15
3.03519267169623e+15
3.025721877371e+15
3.01623581756679e+15
3.00672850626192e+15
2.99715472939479e+15
2.98756993573517e+15
2.97797570427011e+15
2.96837206215304e+15
2.95875903577784e+15
2.94913640681118e+15
2.93950375439565e+15
2.92985011791076e+15
2.9201754414882e+15
2.91048600124799e+15
2.90078310917572e+15
2.89103489203113e+15
2.88127069118846e+15
2.87148124321432e+15
2.86165717479888e+15
2.85181357710927e+15
2.84193076242353e+15
2.83201919546646e+15
2.8220843306309e+15
2.81212428986068e+15
2.80213679245668e+15
2.79211408519849e+15
2.78205396220338e+15
2.7719542205928e+15
2.76179719176644e+15
2.75156393725591e+15
2.74127933498355e+15
2.73094424099404e+15
2.72055058635512e+15
2.71007191593398e+15
2.69952128588648e+15
2.68886961372367e+15
2.67812733796339e+15
2.66730590653663e+15
2.65640313283544e+15
2.64539082292716e+15
2.63428649704585e+15
2.62307928472248e+15
2.61176717069817e+15
2.60033448243314e+15
2.58877736479916e+15
2.57709084285255e+15
2.56524881719441e+15
2.55321474809943e+15
2.54100757169248e+15
2.52863122744606e+15
2.5160606317031e+15
2.50327690102754e+15
2.49028921763806e+15
2.47708156645278e+15
2.46363730934931e+15
2.44992428324392e+15
2.43591038083439e+15
2.42157094676123e+15
2.40692587210865e+15
2.39196025137338e+15
2.37665773519319e+15
2.36098779102521e+15
2.3449014371046e+15
2.328411216262e+15
2.31149238062132e+15
2.29408254897336e+15
2.2761806233295e+15
2.25776836373719e+15
2.23879599726104e+15
2.21922023167329e+15
2.19904058576776e+15
2.17823792222492e+15
2.15676724036746e+15
2.13459292099205e+15
2.11169992303879e+15
2.08804990888699e+15
2.06365550970822e+15
2.03850374922426e+15
2.0125399236827e+15
1.98578491364974e+15
1.95828333328695e+15
1.93006411757503e+15
1.90116922009966e+15
1.8716673140329e+15
1.84159161790455e+15
1.81103449165638e+15
1.7801675118069e+15
1.74918467962829e+15
1.71825580469623e+15
1.6875600618305e+15
1.65729642668819e+15
1.62770384167783e+15
1.5989377789533e+15
1.57115251496106e+15
1.54449514684317e+15
1.51904690949648e+15
1.49492272384342e+15
1.47212233165446e+15
1.45055508304484e+15
1.43026060768045e+15
1.41118721998285e+15
1.39324588870037e+15
1.37634726341176e+15
1.36036944791283e+15
1.34526578407188e+15
1.33112024327063e+15
1.32131216163746e+15
1.33735221769963e+15
1.38165485852286e+15
1.42551008204057e+15
1.43900016070457e+15
1.43141919563683e+15
1.4137340990964e+15
1.39203931331969e+15
1.37131823004839e+15
1.35398643327256e+15
1.34035269277096e+15
1.32986219140891e+15
1.32174576653993e+15
1.31480948062126e+15
1.30897283591035e+15
1.30408938809523e+15
1.29973145142217e+15
1.29525657146086e+15
1.29063152893301e+15
1.28608183770713e+15
1.28151905205296e+15
1.27692138098011e+15
1.27223723838482e+15
1.26742501217777e+15
1.26250612938135e+15
1.2574609600207e+15
1.25228970935304e+15
1.24701051068531e+15
1.24161872858618e+15
1.23612534053708e+15
1.23045563158282e+15
1.22461296686033e+15
1.21874101817733e+15
1.21286818419471e+15
1.20699987245148e+15
1.20115553946946e+15
1.19535937512093e+15
1.18961196003578e+15
1.1839289949383e+15
1.17833036988646e+15
1.17281855058894e+15
1.1673989195873e+15
1.16209303319454e+15
1.15688882890289e+15
1.15180838732039e+15
1.14684254335296e+15
1.14200319813248e+15
1.13729144172112e+15
1.13269952746957e+15
1.1282418408256e+15
1.12390330878692e+15
1.11968873429146e+15
1.11561182629596e+15
1.11165656365474e+15
1.10782824941085e+15
1.104126895101e+15
1.10054200759763e+15
1.09707814499329e+15
1.09372879416256e+15
1.09048892041019e+15
1.08736173944476e+15
1.0843388542556e+15
1.08141795017016e+15
1.07859798664136e+15
1.07586380925624e+15
1.07322481741685e+15
1.07067367011041e+15
1.06821684082774e+15
1.06584245467839e+15
1.0635542210743e+15
1.06134478217565e+15
1.05921286315634e+15
1.05715572733359e+15
1.05516707615173e+15
1.05324524727874e+15
1.05138087511478e+15
1.04958120674618e+15
1.04783978445399e+15
1.04616318511004e+15
1.04453936080144e+15
1.04297508235253e+15
1.0414591389093e+15
1.03999092492345e+15
1.03856946636364e+15
1.03719544483874e+15
1.03587144565496e+15
1.03459159695678e+15
1.03335522108755e+15
1.0321482208478e+15
1.03090389513072e+15
1.02967158291621e+15
1.02847804239141e+15
1.02731336858597e+15
1.02618450532886e+15
1.02509188897154e+15
1.02402831819086e+15
1.02285961426596e+15
1.02167503499311e+15
1.02052372797334e+15
1.01940574698482e+15
1.01812207527307e+15
1.01682878504357e+15
1.015486757849e+15
1.01396392627597e+15
1.01228276002372e+15
1.01035780406132e+15
1.00802644066607e+15
)
;

boundaryField
{
    electrode
    {
        type            zeroGradient;
    }
    ground
    {
        type            zeroGradient;
    }
    otherfaces
    {
        type            empty;
    }
}


// ************************************************************************* //
