/*--------------------------------*- C++ -*----------------------------------*\
| =========                 |                                                 |
| \\      /  F ield         | foam-extend: Open Source CFD                    |
|  \\    /   O peration     | Version:     4.0                                |
|   \\  /    A nd           | Web:         http://www.foam-extend.org         |
|    \\/     M anipulation  |                                                 |
\*---------------------------------------------------------------------------*/
FoamFile
{
    version     2.0;
    format      ascii;
    class       volScalarField;
    location    "2.8e-06";
    object      Arp1;
}
// * * * * * * * * * * * * * * * * * * * * * * * * * * * * * * * * * * * * * //

dimensions      [0 0 0 1 0 0 0];

internalField   nonuniform List<scalar> 
300
(
5.9241212643731e+16
5.92737475180555e+16
5.92538483220396e+16
5.924596478492e+16
5.92358972755044e+16
5.92218256653903e+16
5.92049298704234e+16
5.91850142614374e+16
5.91620413424974e+16
5.91360407436861e+16
5.91070153574681e+16
5.90749705784332e+16
5.90399141345712e+16
5.90018538780255e+16
5.89607982843214e+16
5.89167564899805e+16
5.88697382273146e+16
5.88197538147347e+16
5.87668141428888e+16
5.87109306554386e+16
5.86521153291934e+16
5.85903806541547e+16
5.8525739611733e+16
5.84582056513494e+16
5.83877926665527e+16
5.83145149701103e+16
5.82383872664067e+16
5.81594246240806e+16
5.80776424474146e+16
5.79930564452161e+16
5.79056825995272e+16
5.78155371332885e+16
5.77226364756143e+16
5.76269972271423e+16
5.75286361233804e+16
5.74275699966447e+16
5.73238157379246e+16
5.72173902565608e+16
5.71083104384531e+16
5.69965931043438e+16
5.68822549664131e+16
5.6765312582843e+16
5.66457823125453e+16
5.65236802688045e+16
5.6399022270656e+16
5.62718237940646e+16
5.61420999229908e+16
5.60098652977852e+16
5.58751340634379e+16
5.57379198180732e+16
5.55982355586905e+16
5.54560936271401e+16
5.5311505656236e+16
5.51644825137221e+16
5.50150342459377e+16
5.48631700222545e+16
5.47088980776393e+16
5.455222565516e+16
5.4393158948927e+16
5.42317030455671e+16
5.40678618667296e+16
5.39016381111144e+16
5.3733033195558e+16
5.35620471981629e+16
5.33886788003868e+16
5.32129252284785e+16
5.30347821979796e+16
5.28542438566426e+16
5.2671302727764e+16
5.24859496563169e+16
5.22981737539394e+16
5.21079623450071e+16
5.1915300915491e+16
5.17201730614068e+16
5.15225604384457e+16
5.13224427144948e+16
5.11197975226003e+16
5.09146004159966e+16
5.07068248252547e+16
5.04964420167346e+16
5.02834210539637e+16
5.00677287614622e+16
4.98493296897683e+16
4.96281860845348e+16
4.94042578580172e+16
4.91775025622651e+16
4.89478753676292e+16
4.8715329043114e+16
4.84798139397238e+16
4.82412779786991e+16
4.79996666431661e+16
4.77549229732287e+16
4.75069875650831e+16
4.72557985758338e+16
4.70012917316325e+16
4.67434003394377e+16
4.64820553068648e+16
4.62171851643354e+16
4.59487160923282e+16
4.56765719566045e+16
4.54006743467908e+16
4.5120942620979e+16
4.48372939573234e+16
4.45496434115623e+16
4.42579039802113e+16
4.39619866704475e+16
4.36618005781293e+16
4.3357252971504e+16
4.30482493815275e+16
4.27346937013179e+16
4.24164882924419e+16
4.2093534098122e+16
4.17657307654059e+16
4.14329767755355e+16
4.10951695823507e+16
4.07522057592543e+16
4.04039811551053e+16
4.00503910600416e+16
3.96913303793302e+16
3.93266938168891e+16
3.89563760703925e+16
3.85802720349239e+16
3.81982770169258e+16
3.78102869600836e+16
3.74161986825219e+16
3.70159101247825e+16
3.66093206103214e+16
3.61963311194976e+16
3.57768445765542e+16
3.53507661510038e+16
3.49180035747608e+16
3.44784674756037e+16
3.40320717278573e+16
3.35787338240363e+16
3.31183752678392e+16
3.26509219900412e+16
3.2176304792815e+16
3.1694459825276e+16
3.12053290931e+16
3.07088610100245e+16
3.0205010997667e+16
2.96937421404724e+16
2.91750259087113e+16
2.86488429613346e+16
2.81151840440023e+16
2.75740510042466e+16
2.70254579479343e+16
2.64694325677582e+16
2.59060176842393e+16
2.53352730462438e+16
2.47572774561078e+16
2.41721312891179e+16
2.3579959516148e+16
2.29809153176102e+16
2.23751844759233e+16
2.17629909274721e+16
2.11446026639145e+16
2.05203331771674e+16
1.98905941524386e+16
1.92557827724959e+16
1.86161528322609e+16
1.79738895138564e+16
1.7325081550347e+16
1.66841153463797e+16
1.60510266448216e+16
1.54112281168715e+16
1.47721682263738e+16
1.41385916545157e+16
1.35172149118346e+16
1.29116836814523e+16
1.23152941620147e+16
1.1720612530728e+16
1.11461701731314e+16
1.06045564953392e+16
1.00617650510705e+16
9.54392726443432e+15
9.08321403097118e+15
8.59240543500822e+15
8.17159127548545e+15
7.79208918790279e+15
7.38515247486922e+15
7.04258853889574e+15
6.74718637878894e+15
6.42412845802545e+15
6.1701707264236e+15
5.95024080139727e+15
5.70848675990635e+15
5.50081104886123e+15
5.33558540506046e+15
5.18921025025944e+15
5.02368078472163e+15
4.87999784762201e+15
4.76689585166908e+15
4.67537072976335e+15
4.62944726434727e+15
4.58837499972826e+15
4.59290683607399e+15
4.60652859724884e+15
4.62245565356124e+15
4.62058728207865e+15
4.61304002672399e+15
4.59300645449088e+15
4.54921887137156e+15
4.50031008699304e+15
4.45487373336704e+15
4.4123285776901e+15
4.37445788204414e+15
4.34030446139467e+15
4.31063976454831e+15
4.28446774379078e+15
4.26260309341964e+15
4.23184390270707e+15
4.1974761412376e+15
4.16562880399624e+15
4.13754240626035e+15
4.11147964732861e+15
4.08879397078899e+15
4.06754063079529e+15
4.04944672228323e+15
4.03219140481412e+15
4.01790205306996e+15
4.00415469048781e+15
3.99310337395172e+15
3.98237437831258e+15
3.96753554379254e+15
3.94602805015296e+15
3.92730158540915e+15
3.9080694412257e+15
3.8916643450416e+15
3.87447742421196e+15
3.86003677594174e+15
3.84458368693492e+15
3.83176004319008e+15
3.81772613302607e+15
3.80629132004122e+15
3.79346654997644e+15
3.78331976423424e+15
3.77167782975766e+15
3.76283218457556e+15
3.75238106514207e+15
3.74479188120675e+15
3.7355570831048e+15
3.72586735849819e+15
3.70864323422021e+15
3.69432381487667e+15
3.67804278092876e+15
3.6647604494891e+15
3.64923786763482e+15
3.63683732395594e+15
3.62202456631979e+15
3.6103946455152e+15
3.59627064572976e+15
3.58543079372268e+15
3.57208029756869e+15
3.56197817588426e+15
3.54945796051092e+15
3.54006408218803e+15
3.5282668483257e+15
3.51960722689759e+15
3.50849067603961e+15
3.50049507544393e+15
3.49005798031533e+15
3.48273673196274e+15
3.47292915189336e+15
3.46628231800082e+15
3.45708125415247e+15
3.45111446493691e+15
3.44236428940823e+15
3.43104962968575e+15
3.41711530815437e+15
3.40650923731528e+15
3.39318047383572e+15
3.38321295423377e+15
3.37050288831935e+15
3.36113107031783e+15
3.34904703926712e+15
3.34028583734267e+15
3.32873482644883e+15
3.32060643097678e+15
3.30951006882517e+15
3.30199249676466e+15
3.29127993452458e+15
3.28428683790364e+15
3.27394301477183e+15
3.26741128744908e+15
3.25743164844708e+15
3.25131169486343e+15
3.24168865999143e+15
3.2359401964514e+15
3.22666530179306e+15
3.2212838455895e+15
3.21233168157412e+15
3.20731273090713e+15
3.19865683103392e+15
3.19395631309031e+15
3.18552307717083e+15
3.18115159796514e+15
3.17289915672082e+15
3.16883158321465e+15
3.15874301894274e+15
)
;

boundaryField
{
    electrode
    {
        type            driftDiffusionPositiveIonDensity;
        seec            0;
        fieldName       Arp1;
        value           uniform 5.91135841617031e+16;
    }
    ground
    {
        type            driftDiffusionPositiveIonDensity;
        seec            0;
        fieldName       Arp1;
        value           uniform 3.15874301894274e+15;
    }
    otherfaces
    {
        type            empty;
    }
}


// ************************************************************************* //
