/*--------------------------------*- C++ -*----------------------------------*\
| =========                 |                                                 |
| \\      /  F ield         | foam-extend: Open Source CFD                    |
|  \\    /   O peration     | Version:     4.0                                |
|   \\  /    A nd           | Web:         http://www.foam-extend.org         |
|    \\/     M anipulation  |                                                 |
\*---------------------------------------------------------------------------*/
FoamFile
{
    version     2.0;
    format      ascii;
    class       volScalarField;
    location    "2.8e-06";
    object      electron;
}
// * * * * * * * * * * * * * * * * * * * * * * * * * * * * * * * * * * * * * //

dimensions      [0 0 0 1 0 0 0];

internalField   nonuniform List<scalar> 
300
(
5.9249149019183e+16
5.9247211647331e+16
5.92425369544169e+16
5.92347801923566e+16
5.92239820798264e+16
5.9210140258569e+16
5.91932533954928e+16
5.91733262705814e+16
5.91503633810168e+16
5.91243698433713e+16
5.90953515600289e+16
5.9063315078426e+16
5.90282675954691e+16
5.89902169517849e+16
5.89491716163943e+16
5.8905140673119e+16
5.8858133805927e+16
5.88081612829087e+16
5.87552339391348e+16
5.86993631583496e+16
5.86405608534881e+16
5.85788394459898e+16
5.85142118439048e+16
5.84466914187934e+16
5.83762919814018e+16
5.83030277561182e+16
5.82269133541936e+16
5.81479637457275e+16
5.80661942304261e+16
5.79816204071177e+16
5.78942581420327e+16
5.78041235358485e+16
5.77112328895081e+16
5.76156026688106e+16
5.7517249467773e+16
5.74161899707922e+16
5.73124409135992e+16
5.72060190430209e+16
5.70969410755766e+16
5.69852236549074e+16
5.68708833080718e+16
5.67539364007248e+16
5.66343990911993e+16
5.65122872835248e+16
5.63876165794075e+16
5.62604022292032e+16
5.61306590819272e+16
5.59984015343301e+16
5.58636434790727e+16
5.57263982520696e+16
5.55866785790234e+16
5.54444965212053e+16
5.52998634205552e+16
5.51527898441262e+16
5.50032855279469e+16
5.48513593203781e+16
5.46970191250144e+16
5.45402718431966e+16
5.43811233162185e+16
5.42195782673027e+16
5.40556402434185e+16
5.38893115570246e+16
5.37205932278341e+16
5.35494849246814e+16
5.33759849075798e+16
5.3200089970072e+16
5.30217953819712e+16
5.28410948325982e+16
5.26579803746163e+16
5.24724423685722e+16
5.22844694282501e+16
5.20940483669703e+16
5.19011641449427e+16
5.17057998177832e+16
5.15079364863324e+16
5.13075532478983e+16
5.11046271490612e+16
5.08991331401657e+16
5.0691044031631e+16
5.04803304522282e+16
5.02669608094627e+16
5.00509012522034e+16
4.98321156357003e+16
4.96105654891552e+16
4.93862099859783e+16
4.91590059168849e+16
4.89289076660057e+16
4.86958671901416e+16
4.84598340013269e+16
4.8220755152884e+16
4.79785752291016e+16
4.77332363387017e+16
4.74846781122762e+16
4.72328377038404e+16
4.69776497966611e+16
4.6719046613542e+16
4.64569579317197e+16
4.61913111025219e+16
4.59220310759674e+16
4.56490404304613e+16
4.5372259407733e+16
4.50916059531838e+16
4.48069957617977e+16
4.4518342329759e+16
4.4225557011923e+16
4.39285490852781e+16
4.36272258185469e+16
4.33214925480428e+16
4.30112527599017e+16
4.26964081788192e+16
4.23768588633881e+16
4.20525033081265e+16
4.17232385522844e+16
4.13889602955112e+16
4.10495630204299e+16
4.07049401221573e+16
4.03549840448087e+16
3.99995864249837e+16
3.96386382422148e+16
3.92720299763517e+16
3.88996517718156e+16
3.85213936086247e+16
3.81371454800661e+16
3.77467975768756e+16
3.73502404777224e+16
3.69473653457605e+16
3.653806413097e+16
3.61222297779725e+16
3.56997564389424e+16
3.5270539691174e+16
3.48344767588161e+16
3.43914667382156e+16
3.39414108262489e+16
3.34842125509502e+16
3.3019778003667e+16
3.25480160718903e+16
3.20688386718579e+16
3.15821609799496e+16
3.10879016618143e+16
3.05859830981383e+16
3.00763316059281e+16
2.95588776541702e+16
2.90335560727852e+16
2.85003062538852e+16
2.79590723445088e+16
2.74098034303387e+16
2.68524537103555e+16
2.62869826630421e+16
2.57133552057546e+16
2.513154185028e+16
2.45415188595351e+16
2.39432684131128e+16
2.33367787931389e+16
2.27220446070473e+16
2.20990670705325e+16
2.14678543811032e+16
2.08284222230894e+16
2.0180794465226e+16
1.95250038796102e+16
1.88610930081907e+16
1.81891153791192e+16
1.75091246104794e+16
1.68211659768206e+16
1.61251975893392e+16
1.54209491320467e+16
1.47080186494852e+16
1.3986123236444e+16
1.32551502581829e+16
1.25150810413846e+16
1.1765982825533e+16
1.10081792435945e+16
1.02425888586391e+16
9.47094353198609e+15
8.69576881018282e+15
7.92055608365106e+15
7.150042462137e+15
6.39004668296014e+15
5.64744650715207e+15
4.93011649678401e+15
4.24627707493818e+15
3.6041470828143e+15
3.01150333972956e+15
2.47475005194618e+15
1.99844061597806e+15
1.58481162635089e+15
1.2335857335561e+15
942333248059686
706734811749646
520970182240447
377989945742103
270565798667830
191742462551614
135066061974110
95112577813231.7
65887978902054.7
44694973788188.3
29766084610728.7
19102224527786.8
11926167794782.6
7477032730634.32
4890647280497.98
3430269854453.04
2602699950520.52
2124046420494.13
1840555084237.12
1669341048169.29
1565078775381.48
1501740096789.58
1463719255250.45
1441503467318.22
1429038760246.51
1422222352515.58
1418275137771.83
1415406693140.2
1412412337843.18
1408485224211.53
1403097060944.93
1395919421536.19
1386769644297.63
1375569936828.7
1362323620827.94
1347051388939.35
1329819553509.4
1310769528795.36
1290066600565.35
1267893488672.51
1244439759413.04
1219895119495.77
1194444843676.2
1168267018174.58
1141530548065.55
1114393772959.3
1087003548568.41
1059494704185.72
1031989801450.15
1004599144263.16
977420983626.38
950541880528.158
924037194475.875
897971669414.387
872400102092.788
847368063084.022
822912827097.828
799064574484.943
775847072667.621
753277699261.926
731367738552.346
710122843856.086
689542941255.207
669618296712.688
650338757163.671
631698213256.746
613687899656.597
596297170526.661
579513403515.14
563323536210.449
547712864550.657
532662075270.691
518152028678.884
504166825468.282
490689889911.939
477703400134.444
465189553751.562
453130679365.912
441509105548.932
430307476334.356
419502933952.618
409072273188.374
398999105126.206
389269291887.546
379869870698.782
370788575469.561
362013796850.621
353534578123.935
345340638421.938
337422397182.48
329771001702.955
322378360388.541
315237172500.163
308340936789.223
301683827709.632
295259868768.911
289059021463.293
283050534219.774
277213534209.951
271555467220.602
266087182713.818
260820707182.35
255767904847.096
250898327086.658
246190093153.167
241680167052.276
237407384209.66
233366811198.838
229603302088.125
226199993558.273
223294591229.013
221181873041.568
220307720694.999
221499713438.241
)
;

boundaryField
{
    electrode
    {
        type            driftDiffusionElectronDensity;
        seec            0.05;
        Edepend         1;
        field_emission  0;
        field_enhancement_factor 55;
        work_function   5;
        value           uniform 5.9249149019183e+16;
    }
    ground
    {
        type            driftDiffusionElectronDensity;
        seec            0.05;
        Edepend         1;
        field_emission  0;
        field_enhancement_factor 55;
        work_function   5;
        value           uniform 223714892750.904;
    }
    otherfaces
    {
        type            empty;
    }
}


// ************************************************************************* //
