/*--------------------------------*- C++ -*----------------------------------*\
| =========                 |                                                 |
| \\      /  F ield         | foam-extend: Open Source CFD                    |
|  \\    /   O peration     | Version:     4.0                                |
|   \\  /    A nd           | Web:         http://www.foam-extend.org         |
|    \\/     M anipulation  |                                                 |
\*---------------------------------------------------------------------------*/
FoamFile
{
    version     2.0;
    format      ascii;
    class       volVectorField;
    location    "2.8e-06";
    object      J_electron;
}
// * * * * * * * * * * * * * * * * * * * * * * * * * * * * * * * * * * * * * //

dimensions      [1 -1 -1 0 0 0 0];

internalField   nonuniform List<vector> 
300
(
(-1.25229117845525e+19 0 0)
(-1.26461368080953e+19 0 0)
(-1.47834648000208e+19 0 0)
(-1.45474708336609e+19 0 0)
(-1.44765252097864e+19 0 0)
(-1.44678787674867e+19 0 0)
(-1.44232760304823e+19 0 0)
(-1.43818017673625e+19 0 0)
(-1.43419993503394e+19 0 0)
(-1.43015538190936e+19 0 0)
(-1.42612154968052e+19 0 0)
(-1.42210006447892e+19 0 0)
(-1.4180858796945e+19 0 0)
(-1.4140808870698e+19 0 0)
(-1.41008582951968e+19 0 0)
(-1.40610111641932e+19 0 0)
(-1.40212728969662e+19 0 0)
(-1.39816484034046e+19 0 0)
(-1.39421423396667e+19 0 0)
(-1.3902759045856e+19 0 0)
(-1.38635024339671e+19 0 0)
(-1.38243762172551e+19 0 0)
(-1.37853836786895e+19 0 0)
(-1.37465277393986e+19 0 0)
(-1.37078109955298e+19 0 0)
(-1.36692355440966e+19 0 0)
(-1.36308031979137e+19 0 0)
(-1.35925152560564e+19 0 0)
(-1.35543726178008e+19 0 0)
(-1.35163757216194e+19 0 0)
(-1.34785245322176e+19 0 0)
(-1.34408185785327e+19 0 0)
(-1.34032568326699e+19 0 0)
(-1.33658377624477e+19 0 0)
(-1.33285594269552e+19 0 0)
(-1.32914191650688e+19 0 0)
(-1.32544139696535e+19 0 0)
(-1.32175401506995e+19 0 0)
(-1.31807934770946e+19 0 0)
(-1.31441692135453e+19 0 0)
(-1.31076619311819e+19 0 0)
(-1.30712656955229e+19 0 0)
(-1.30349739399971e+19 0 0)
(-1.29987794741119e+19 0 0)
(-1.29626744996535e+19 0 0)
(-1.29266506350665e+19 0 0)
(-1.28906987708689e+19 0 0)
(-1.28548092232157e+19 0 0)
(-1.28189717530427e+19 0 0)
(-1.27831752351222e+19 0 0)
(-1.27474081839891e+19 0 0)
(-1.27116582782637e+19 0 0)
(-1.26759125377362e+19 0 0)
(-1.26401574079672e+19 0 0)
(-1.26043786942819e+19 0 0)
(-1.25685614449619e+19 0 0)
(-1.25326901225613e+19 0 0)
(-1.24967485375232e+19 0 0)
(-1.24607198286014e+19 0 0)
(-1.24245865069795e+19 0 0)
(-1.23883304257698e+19 0 0)
(-1.23519328778579e+19 0 0)
(-1.23153744156355e+19 0 0)
(-1.22786350739544e+19 0 0)
(-1.22416942050234e+19 0 0)
(-1.22045306373187e+19 0 0)
(-1.216712257047e+19 0 0)
(-1.21294476450034e+19 0 0)
(-1.20914829364085e+19 0 0)
(-1.20532049586527e+19 0 0)
(-1.20145897936545e+19 0 0)
(-1.19756129135784e+19 0 0)
(-1.19362493084832e+19 0 0)
(-1.18964735803429e+19 0 0)
(-1.18562597769998e+19 0 0)
(-1.18155816851776e+19 0 0)
(-1.17744124878444e+19 0 0)
(-1.17327251472033e+19 0 0)
(-1.16904922107897e+19 0 0)
(-1.16476859526708e+19 0 0)
(-1.16042782924784e+19 0 0)
(-1.1560240964885e+19 0 0)
(-1.15155454638395e+19 0 0)
(-1.14701630211291e+19 0 0)
(-1.14240647791381e+19 0 0)
(-1.13772217946829e+19 0 0)
(-1.13296048701007e+19 0 0)
(-1.12811849480096e+19 0 0)
(-1.12319329011384e+19 0 0)
(-1.11818195327218e+19 0 0)
(-1.11308158328829e+19 0 0)
(-1.10788928776931e+19 0 0)
(-1.10260218240801e+19 0 0)
(-1.09721740675493e+19 0 0)
(-1.09173213124378e+19 0 0)
(-1.08614353753158e+19 0 0)
(-1.08044885059195e+19 0 0)
(-1.07464533021551e+19 0 0)
(-1.06873027170654e+19 0 0)
(-1.06270101435544e+19 0 0)
(-1.05655494899752e+19 0 0)
(-1.05028951503641e+19 0 0)
(-1.0439022057642e+19 0 0)
(-1.03739057153046e+19 0 0)
(-1.03075222381344e+19 0 0)
(-1.0239848433387e+19 0 0)
(-1.01708616218653e+19 0 0)
(-1.01005399267439e+19 0 0)
(-1.00288620658347e+19 0 0)
(-9.95580746706138e+18 0 0)
(-9.8813561721701e+18 0 0)
(-9.80548893943058e+18 0 0)
(-9.72818715385371e+18 0 0)
(-9.64943273296711e+18 0 0)
(-9.56920817222943e+18 0 0)
(-9.4874964437956e+18 0 0)
(-9.40428085652724e+18 0 0)
(-9.31954501511388e+18 0 0)
(-9.23327268749784e+18 0 0)
(-9.14544761241338e+18 0 0)
(-9.05605329232173e+18 0 0)
(-8.96507281780926e+18 0 0)
(-8.87248868660268e+18 0 0)
(-8.77828224760571e+18 0 0)
(-8.6824336486459e+18 0 0)
(-8.58492114513586e+18 0 0)
(-8.48572092234649e+18 0 0)
(-8.38480622795411e+18 0 0)
(-8.28214702089437e+18 0 0)
(-8.17770901112357e+18 0 0)
(-8.07145304015923e+18 0 0)
(-7.96333395212658e+18 0 0)
(-7.85329965603278e+18 0 0)
(-7.74128974128113e+18 0 0)
(-7.62723411131525e+18 0 0)
(-7.51105144599452e+18 0 0)
(-7.39264723068282e+18 0 0)
(-7.27191168222652e+18 0 0)
(-7.14871739559549e+18 0 0)
(-7.02291657937545e+18 0 0)
(-6.8943379387216e+18 0 0)
(-6.76278326601135e+18 0 0)
(-6.62802328247704e+18 0 0)
(-6.48979324290676e+18 0 0)
(-6.34778792227137e+18 0 0)
(-6.20165578163329e+18 0 0)
(-6.05099266632004e+18 0 0)
(-5.89533478321966e+18 0 0)
(-5.73415098192337e+18 0 0)
(-5.5668342443066e+18 0 0)
(-5.3926929947647e+18 0 0)
(-5.21094158811241e+18 0 0)
(-5.02069118718444e+18 0 0)
(-4.82093884375145e+18 0 0)
(-4.61054975220384e+18 0 0)
(-4.38824897211689e+18 0 0)
(-4.15263694939541e+18 0 0)
(-3.90087593649557e+18 0 0)
(-3.63128998374828e+18 0 0)
(-3.34105110051711e+18 0 0)
(-2.9637757883279e+18 0 0)
(-2.56422481079199e+18 0 0)
(-1.70813900123852e+18 0 0)
(-4.60560197825331e+17 0 0)
(9.60182416006185e+16 0 0)
(2.37146094172111e+17 0 0)
(6.8884556092434e+17 0 0)
(1.43102074999643e+18 0 0)
(2.21102733723697e+18 0 0)
(2.44061770285266e+18 0 0)
(1.85429706595002e+18 0 0)
(1.26117648969761e+18 0 0)
(1.06627909663536e+18 0 0)
(-3.83263354273137e+16 0 0)
(-1.47001045871703e+18 0 0)
(-1.76142599181776e+18 0 0)
(-3.05074558137375e+18 0 0)
(-3.49320634788164e+18 0 0)
(-2.20593894187965e+18 0 0)
(-1.58246795678004e+18 0 0)
(5.41759923751485e+17 0 0)
(4.35562613643621e+18 0 0)
(7.64776776314179e+18 0 0)
(1.22273649781669e+19 0 0)
(1.5696043530864e+19 0 0)
(1.76632885255057e+19 0 0)
(1.89715507379265e+19 0 0)
(1.87495587716648e+19 0 0)
(1.86639368759767e+19 0 0)
(1.48046704875489e+19 0 0)
(1.23881802773142e+19 0 0)
(8.85559192269357e+18 0 0)
(5.03288724934597e+18 0 0)
(8.43591234417079e+18 0 0)
(-4.56200933406055e+18 0 0)
(9.31541615986917e+17 0 0)
(-2.60949793752771e+18 0 0)
(-3.0548196892957e+18 0 0)
(-2.87381587279732e+18 0 0)
(-2.87624279148186e+18 0 0)
(-3.05072958719017e+18 0 0)
(-3.25448054175412e+18 0 0)
(-3.39944741164162e+18 0 0)
(-3.4623064821321e+18 0 0)
(-3.47703257926566e+18 0 0)
(-3.46167643960127e+18 0 0)
(-3.42546175790963e+18 0 0)
(-3.38316873934419e+18 0 0)
(-3.33459735916215e+18 0 0)
(-3.28234730831178e+18 0 0)
(-3.22684766840914e+18 0 0)
(-3.1717799812863e+18 0 0)
(-3.11477057534235e+18 0 0)
(-3.05695613591327e+18 0 0)
(-2.99858741072065e+18 0 0)
(-2.93986726011632e+18 0 0)
(-2.8809547180591e+18 0 0)
(-2.82200030239914e+18 0 0)
(-2.76311186765582e+18 0 0)
(-2.7045052084283e+18 0 0)
(-2.64576616896678e+18 0 0)
(-2.58834381881544e+18 0 0)
(-2.53101918064397e+18 0 0)
(-2.47440671493977e+18 0 0)
(-2.41854495541889e+18 0 0)
(-2.36353337856606e+18 0 0)
(-2.30943988501404e+18 0 0)
(-2.25633120548838e+18 0 0)
(-2.20425650939915e+18 0 0)
(-2.15325625348968e+18 0 0)
(-2.10336272712857e+18 0 0)
(-2.05460038536486e+18 0 0)
(-2.00698691685487e+18 0 0)
(-1.96053331386607e+18 0 0)
(-1.91524506586054e+18 0 0)
(-1.87112196538814e+18 0 0)
(-1.82815952993626e+18 0 0)
(-1.78634868317504e+18 0 0)
(-1.7456770961221e+18 0 0)
(-1.70612897331912e+18 0 0)
(-1.66768600042966e+18 0 0)
(-1.63032931088236e+18 0 0)
(-1.59403742714891e+18 0 0)
(-1.55877953118179e+18 0 0)
(-1.52452937332274e+18 0 0)
(-1.49126420268377e+18 0 0)
(-1.45895523687169e+18 0 0)
(-1.42757040536732e+18 0 0)
(-1.39704277902179e+18 0 0)
(-1.36753053281047e+18 0 0)
(-1.33877621811423e+18 0 0)
(-1.3108515930227e+18 0 0)
(-1.28371708705946e+18 0 0)
(-1.25734960613234e+18 0 0)
(-1.23173926518592e+18 0 0)
(-1.2068147590899e+18 0 0)
(-1.18257559224342e+18 0 0)
(-1.15906258567915e+18 0 0)
(-1.13617166368941e+18 0 0)
(-1.11388002024067e+18 0 0)
(-1.09220378525528e+18 0 0)
(-1.07110611726317e+18 0 0)
(-1.05056939865853e+18 0 0)
(-1.03056892575098e+18 0 0)
(-1.01109615619805e+18 0 0)
(-9.9205371600094e+17 0 0)
(-9.73624914771587e+17 0 0)
(-9.55621207302821e+17 0 0)
(-9.38065004009508e+17 0 0)
(-9.20943426802003e+17 0 0)
(-9.04247200224522e+17 0 0)
(-8.87962844687505e+17 0 0)
(-8.72077581458102e+17 0 0)
(-8.56578813905409e+17 0 0)
(-8.41454393373921e+17 0 0)
(-8.26692607057241e+17 0 0)
(-8.12282139732428e+17 0 0)
(-7.98211929014499e+17 0 0)
(-7.84471164583497e+17 0 0)
(-7.71048302560716e+17 0 0)
(-7.57927545760745e+17 0 0)
(-7.45075260215206e+17 0 0)
(-7.32401821844505e+17 0 0)
(-7.20450075337145e+17 0 0)
(-7.08545863650643e+17 0 0)
(-6.96940423382247e+17 0 0)
(-6.85584998998245e+17 0 0)
(-6.74521419943352e+17 0 0)
(-6.63363935159229e+17 0 0)
(-6.5324152239643e+17 0 0)
(-6.43063611938546e+17 0 0)
(-6.33060476319454e+17 0 0)
(-6.23129932418931e+17 0 0)
(-6.14319651602852e+17 0 0)
(-6.04955352891552e+17 0 0)
(-5.96834946689415e+17 0 0)
(-5.88670548652131e+17 0 0)
(-5.82075621584733e+17 0 0)
(-5.75924473433065e+17 0 0)
(-5.65966822710978e+17 0 0)
)
;

boundaryField
{
    electrode
    {
        type            calculated;
        value           uniform (-1.46880270675525e+19 0 0);
    }
    ground
    {
        type            calculated;
        value           uniform (-5.63388802048626e+17 0 0);
    }
    otherfaces
    {
        type            empty;
    }
}


// ************************************************************************* //
