/*--------------------------------*- C++ -*----------------------------------*\
| =========                 |                                                 |
| \\      /  F ield         | foam-extend: Open Source CFD                    |
|  \\    /   O peration     | Version:     4.0                                |
|   \\  /    A nd           | Web:         http://www.foam-extend.org         |
|    \\/     M anipulation  |                                                 |
\*---------------------------------------------------------------------------*/
FoamFile
{
    version     2.0;
    format      ascii;
    class       volScalarField;
    location    "2.8e-06";
    object      N_electronMean;
}
// * * * * * * * * * * * * * * * * * * * * * * * * * * * * * * * * * * * * * //

dimensions      [0 0 0 1 0 0 0];

internalField   nonuniform List<scalar> 
300
(
6.03998501997325e+16
6.03985080187655e+16
6.03944900982854e+16
6.03872008814932e+16
6.0376653961881e+16
6.03627919457346e+16
6.03455743007926e+16
6.03249740275568e+16
6.03009677752194e+16
6.0273537615474e+16
6.02426702799701e+16
6.02083567553518e+16
6.01705919289561e+16
6.01293742577909e+16
6.00847055373026e+16
6.00365906711722e+16
5.99850374788911e+16
5.99300565325469e+16
5.98716609992034e+16
5.98098664931944e+16
5.97446909478032e+16
5.96761544952601e+16
5.9604279352153e+16
5.95290897024004e+16
5.9450611616848e+16
5.93688729944934e+16
5.92839034409184e+16
5.91957341480773e+16
5.91043978002689e+16
5.900992844126e+16
5.89123613958364e+16
5.88117332641116e+16
5.87080818039856e+16
5.86014457295196e+16
5.84918645727695e+16
5.83793785782784e+16
5.82640286001746e+16
5.81458560104633e+16
5.80249025970888e+16
5.7901210460485e+16
5.77748219334148e+16
5.76457794982076e+16
5.75141256827569e+16
5.73799029668006e+16
5.72431537039385e+16
5.71039200462428e+16
5.69622438755637e+16
5.6818166745096e+16
5.66717298400833e+16
5.65229739573051e+16
5.6371939528809e+16
5.62186666472308e+16
5.60631950201035e+16
5.59055638642938e+16
5.5745811744577e+16
5.55839764064198e+16
5.54200946349292e+16
5.52542021476499e+16
5.50863335161117e+16
5.49165220898918e+16
5.47447999301414e+16
5.45711977489359e+16
5.43957448397447e+16
5.42184690743977e+16
5.40393969798946e+16
5.38585536695413e+16
5.36759626375249e+16
5.34916456395198e+16
5.33056226386115e+16
5.31179117484116e+16
5.2928529174043e+16
5.27374891874825e+16
5.2544804169264e+16
5.23504845768289e+16
5.21545388282749e+16
5.19569733060788e+16
5.17577924046286e+16
5.15569984680945e+16
5.13545916245723e+16
5.11505696800733e+16
5.09449280976319e+16
5.07376598210757e+16
5.0528755103356e+16
5.03182014391359e+16
5.01059835257506e+16
4.98920832734131e+16
4.96764797134363e+16
4.94591488221259e+16
4.92400634288767e+16
4.90191931855637e+16
4.87965044791513e+16
4.8571960438529e+16
4.83455209660992e+16
4.81171425139518e+16
4.78867778696561e+16
4.76543760752337e+16
4.74198823425504e+16
4.71832379683742e+16
4.69443802483671e+16
4.67032424164231e+16
4.64597535801299e+16
4.62138386023478e+16
4.59654180601753e+16
4.57144082520538e+16
4.546072105802e+16
4.52042638307471e+16
4.49449393408511e+16
4.46826456903688e+16
4.44172762677128e+16
4.41487196362712e+16
4.38768593987638e+16
4.36015741194931e+16
4.33227372742858e+16
4.30402172433285e+16
4.27538772627423e+16
4.24635753768016e+16
4.21691645097391e+16
4.18704924668514e+16
4.15674017817119e+16
4.12597295874417e+16
4.09473076308206e+16
4.06299623351087e+16
4.03075148448959e+16
3.9979781098551e+16
3.96465717572976e+16
3.93076920351136e+16
3.89629416905511e+16
3.8612115088375e+16
3.82550011753404e+16
3.78913834872119e+16
3.75210402297998e+16
3.71437443649577e+16
3.67592636793143e+16
3.63673608563007e+16
3.59677937122086e+16
3.55603154945439e+16
3.51446749344447e+16
3.47206162580082e+16
3.4287879429167e+16
3.38462004112348e+16
3.33953112741909e+16
3.2934940330375e+16
3.24648123853006e+16
3.19846490520344e+16
3.14941691915126e+16
3.09930893161446e+16
3.04811238022854e+16
2.99579850857994e+16
2.94233838755141e+16
2.88770295596415e+16
2.83186308026487e+16
2.77478959235048e+16
2.71645333403756e+16
2.65682521710789e+16
2.59587626697697e+16
2.53357768206255e+16
2.46990091905775e+16
2.404817784928e+16
2.33830052538784e+16
2.27032193092199e+16
2.2008554708971e+16
2.12987537180581e+16
2.05735662107146e+16
1.98327441242058e+16
1.90760223545821e+16
1.83030943575475e+16
1.75136014327145e+16
1.67071434148424e+16
1.58832991401495e+16
1.50416596259167e+16
1.41818843754263e+16
1.3303805824173e+16
1.24076777502787e+16
1.14945144701134e+16
1.05664026380561e+16
9.62685339415782e+15
8.68118973556171e+15
7.73685077201156e+15
6.80349546538448e+15
5.8928365962565e+15
5.01815424422222e+15
4.19347505956264e+15
3.43241464605224e+15
2.74684931446533e+15
2.14565263520762e+15
1.63364363149226e+15
1.21105710248346e+15
873655379940659
613408136721288
419648111350368
280421250430531
183809238088874
118953971995295
76774107018091.8
49426772293806.7
31708698946890.6
20330950028976.9
13132756043000.6
8772378341514.64
6215607702244.54
4755482811492.29
3932357746303.8
3455484017527.29
3161483429110.97
2966936010008.88
2829260665151.55
2725792410915.42
2643672054511.18
2575196092278.76
2515529075246.4
2461571559528.09
2411247704084.1
2363161091327.84
2316364030442.44
2270210457944.42
2224262143574.6
2178234741847.56
2131956237655.52
2085336104112.92
2038345593157.97
1991001756759.63
1943330841892.86
1895385194292.77
1847257173040.42
1799055707637.04
1750898244245.7
1702904830107.35
1655192397930.41
1607872899931.02
1561050999374.75
1514822626821.53
1469275744810.13
1424488173254.9
1380528279343.32
1337455696945.24
1295320671207.48
1254164237625.38
1214020053115.72
1174913204264.77
1136861575335.21
1099877168085.54
1063965471342.09
1029127709042.93
995360486693.335
962656148225.767
931003341032.013
900385325667.796
870782241847.559
842172230799.043
814532264325.727
787839617991.275
762070921557.025
737201823942.733
713206806096.043
690060137315.462
667736373833.116
646210795717.654
625456848411.382
605446528433.38
586155157487.631
567559610248.8
549635376957.8
532358497732.344
515705036819.278
499651733613.872
484176509211.192
469257585711.324
454873192578.059
441001636232.005
427621835801.989
414713175593.953
402257288992.15
390237875414.14
378640411135.308
367451216678.457
356657475013.981
346247033448.257
336208150274.082
326530015371.269
317202769771.249
308217220056.443
299563607555.048
291232349305.696
283203323258.451
275452114319.403
267971304376.013
260764774356.43
253837523011.346
247194683478.993
240821528000.439
234697506250.083
228834194649.275
223263571501.57
217982482245.447
213014801400.681
208428567097.928
204328732869.054
200931045611.995
198585677969.117
197923541203.254
)
;

boundaryField
{
    electrode
    {
        type            calculated;
        value           uniform 6.03998502001535e+16;
    }
    ground
    {
        type            calculated;
        value           uniform 198889927108.294;
    }
    otherfaces
    {
        type            empty;
    }
}


// ************************************************************************* //
