/*--------------------------------*- C++ -*----------------------------------*\
| =========                 |                                                 |
| \\      /  F ield         | foam-extend: Open Source CFD                    |
|  \\    /   O peration     | Version:     4.0                                |
|   \\  /    A nd           | Web:         http://www.foam-extend.org         |
|    \\/     M anipulation  |                                                 |
\*---------------------------------------------------------------------------*/
FoamFile
{
    version     2.0;
    format      ascii;
    class       volScalarField;
    location    "2.8e-06";
    object      PhiMean;
}
// * * * * * * * * * * * * * * * * * * * * * * * * * * * * * * * * * * * * * //

dimensions      [0 0 0 1 0 0 0];

internalField   nonuniform List<scalar> 
300
(
699.973776969024
699.971376850814
699.968732341322
699.965858287909
699.962764126929
699.959441172194
699.95588720017
699.952100006408
699.948077582551
699.94381839984
699.939321215404
699.934585097201
699.929609357537
699.924393536428
699.918937380351
699.913240821364
699.907303960611
699.901127057603
699.894710516504
699.888054873277
699.881160787261
699.874029032154
699.866660488006
699.859056132977
699.851217034156
699.843144360852
699.834839363877
699.826303368903
699.817537775873
699.8085440441
699.799323681862
699.789878272076
699.780209458456
699.770318916922
699.760208351093
699.749879486231
699.739334062114
699.728573830975
699.717600550351
699.706415974429
699.695021851617
699.683419922539
699.671611908824
699.659599508529
699.647384391706
699.634968195883
699.622352521662
699.609538930498
699.596528942446
699.583324040862
699.569925674846
699.556335282709
699.5425542761
699.528584045524
699.514425929941
699.500081206438
699.485551069976
699.470836626664
699.455938888488
699.440858765997
699.425597063946
699.410154475846
699.394531577011
699.378728817128
699.362746556158
699.346585056123
699.330244434039
699.313724657259
699.29702553865
699.28014672978
699.263087714175
699.245847798076
699.228426127753
699.21082169069
699.193033278744
699.175059498918
699.156898793539
699.138549419201
699.120009434574
699.101276652409
699.082348692385
699.063222911743
699.043896389409
699.024365921906
699.004628003389
698.984678847453
698.964514363893
698.944130119668
698.923521323236
698.902682828245
698.881609108594
698.860294238619
698.838731951593
698.816915543041
698.794837845034
698.77249121132
698.749867493104
698.72695802142
698.703753576804
698.680244374322
698.656420042886
698.632269588356
698.607781356015
698.582943057816
698.557741691978
698.532163515281
698.506194026882
698.479817903547
698.453018996343
698.425780266496
698.398083728718
698.36991041061
698.341240297884
698.312052300545
698.28232420144
698.252032576955
698.221152780599
698.189658893043
698.157523609116
698.124718149878
698.091212180719
698.056973771088
698.021969272977
697.986163281487
697.949518495165
697.911995557824
697.873552930102
697.834146792384
697.793730856267
697.75225621185
697.709671156872
697.665921017713
697.620947937903
697.574690640599
697.527084197141
697.478059846703
697.427544641418
697.375461080402
697.321726777905
697.266254106048
697.208949701946
697.149713961313
697.088440495024
697.025015517678
696.959317197087
696.891214936012
696.820568427121
696.747226658029
696.671026735384
696.591792577632
696.509333567261
696.423442794627
696.333895078023
696.240444832723
696.142823322411
696.040735643716
695.933857186009
695.821829459508
695.704255099014
695.580691862309
695.450645690195
695.313562008282
695.168815085251
695.015695290249
694.853385707155
694.68092965499
694.497198693601
694.300859515901
694.090333274632
693.863734166763
693.618808015888
693.352838977423
693.06259485198
692.744333638552
692.393693187217
692.00566010186
691.574613048258
691.094313129069
690.55801869522
689.958588452159
689.288625175149
688.540734327196
687.707809985247
686.783074798677
685.760694087931
684.635713732909
683.404161779588
682.063341240893
680.611700166576
679.048580290811
677.374150719009
675.589240099121
673.695297389448
671.69421358122
669.587550194443
667.376734822099
665.062794019084
662.646506916575
660.128717810426
657.510228996083
654.791899728223
651.97460919196
649.059283667863
646.047070052443
642.93925150945
639.737010640718
636.44144412967
633.053549586979
629.574252994877
626.004393981093
622.344755855749
618.596048424692
614.759051920619
610.834660432059
606.823718139752
602.727002896724
598.545254534737
594.279155874515
589.929361693411
585.496477222493
580.981088156826
576.383736999005
571.704954230629
566.945233764339
562.105066231425
557.185003995424
552.185685608839
547.107711117007
541.951672554742
536.718126003258
531.407623598784
526.020683309561
520.557824815342
515.019540352084
509.406328034161
503.718656600224
497.957002873863
492.121814616772
486.213550418343
480.23264041668
474.179528690179
468.054632596533
461.858391834674
455.591291058368
449.253873756336
442.846638894937
436.370108310991
429.824758556371
423.211091559395
416.529562874966
409.780656119612
402.964807010512
396.08248230431
389.134098827983
382.12010777598
375.04090798294
367.896936160462
360.688574039015
353.416244722778
346.080313766729
338.681191381321
331.219227786498
323.694821078984
316.108306595374
308.460071080966
300.750442984204
292.979818238105
285.14853382096
277.257036929256
269.305707742014
261.295007219376
253.225300022342
245.097036756663
236.910566830883
228.666331194322
220.364664397051
212.005998385346
203.59065332122
195.119052749023
186.591502922374
178.008419559976
169.37009535393
160.676938811472
151.929229377396
143.12736906327
134.271624438758
125.362391627274
116.399924580474
107.384614076399
98.3167016943827
89.1965733262881
80.0244586314784
70.8007393218724
61.5256334285682
52.1995188966197
42.8226026770767
33.395259814087
23.9176865735057
14.3902562427515
4.81315512929926
)
;

boundaryField
{
    electrode
    {
        type            calculated;
        value           uniform 700.000000000419;
    }
    ground
    {
        type            calculated;
        value           uniform 0;
    }
    otherfaces
    {
        type            empty;
    }
}


// ************************************************************************* //
