/*--------------------------------*- C++ -*----------------------------------*\
| =========                 |                                                 |
| \\      /  F ield         | foam-extend: Open Source CFD                    |
|  \\    /   O peration     | Version:     4.0                                |
|   \\  /    A nd           | Web:         http://www.foam-extend.org         |
|    \\/     M anipulation  |                                                 |
\*---------------------------------------------------------------------------*/
FoamFile
{
    version     2.0;
    format      ascii;
    class       volScalarField;
    location    "2.8e-06";
    object      Te;
}
// * * * * * * * * * * * * * * * * * * * * * * * * * * * * * * * * * * * * * //

dimensions      [0 0 0 1 0 0 0];

internalField   nonuniform List<scalar> 
300
(
33466.4510379189
33466.6750685633
33466.8378885038
33466.9552837625
33467.1246200729
33467.3358449735
33467.5877748119
33467.8818426734
33468.217825983
33468.5956733841
33469.0154074882
33469.4770218686
33469.9805164211
33470.5258972414
33471.1131740541
33471.7423608574
33472.4134760035
33473.1265421528
33473.8815862984
33474.6786397842
33475.5177383289
33476.3989220469
33477.322235471
33478.2877275804
33479.2954518276
33480.3454661716
33481.4378331106
33482.5726197161
33483.7498976743
33484.969743327
33486.2322377165
33487.5374666322
33488.8855206632
33490.2764952552
33491.7104907644
33493.1876125233
33494.7079709064
33496.2716813982
33497.8788646719
33499.5296466655
33501.2241586672
33502.9625374055
33504.7449251422
33506.5714697737
33508.4423249371
33510.3576501205
33512.3176107835
33514.3223784845
33516.3721310063
33518.4670525027
33520.6073336444
33522.7931717699
33525.0247710582
33527.3023426988
33529.6261050708
33531.9962839396
33534.4131126612
33536.8768323942
33539.3876923258
33541.9459499108
33544.5518711218
33547.2057307108
33549.9078124885
33552.6584096182
33555.4578249215
33558.3063712027
33561.2043715887
33564.1521598881
33567.1500809691
33570.1984911574
33573.2977586495
33576.4482639532
33579.6504003539
33582.9045743963
33586.2112063966
33589.5707309784
33592.9835976398
33596.4502713504
33599.9712331744
33603.5469809293
33607.1780298807
33610.8649134715
33614.6081840862
33618.408413864
33622.2661955493
33626.1821433837
33630.1568940564
33634.1911076984
33638.2854689248
33642.440687949
33646.6575017478
33650.9366752882
33655.27900283
33659.6853093
33664.1564517353
33668.6933208181
33673.2968424989
33677.9679797045
33682.7077341543
33687.5171482838
33692.397307279
33697.3493412343
33702.3744274462
33707.4737928471
33712.6487165912
33717.9005328013
33723.2306334994
33728.6404717258
33734.1315648584
33739.7054981632
33745.3639285848
33751.1085887957
33756.9412915274
33762.8639342182
33768.8785039944
33774.9870830132
33781.191854213
33787.4951075
33793.8992464099
33800.4067952976
33807.0204071094
33813.7428717872
33820.577125367
33827.52625986
33834.5935339887
33841.7823848685
33849.0964407403
33856.5395348776
33864.1157208016
33871.8292889521
33879.6847849935
33887.6870299507
33895.8411424071
33904.1525630254
33912.6270816983
33921.2708676607
33930.0905029824
33939.0930199093
33948.2859425859
33957.6773338016
33967.2758475067
33977.0907879622
33987.1321765604
33997.4108275349
34007.9384339748
34018.7276658714
34029.792282235
34041.147259693
34052.8089404854
34064.7952033624
34077.1256615672
34089.8218929849
34102.9077085991
34116.4094669024
34130.3564445762
34144.781274851
34159.7204639084
34175.2151741799
34191.3119876131
34208.0637769269
34225.5401971892
34243.8206699358
34263.0537183475
34283.4728558259
34305.1521924561
34328.0274472929
34352.2122498432
34377.9862930078
34405.6282754022
34435.2858969414
34466.9269254395
34500.636311179
34536.853049468
34575.8624883578
34617.7437808669
34663.3006975879
34713.347566568
34768.7267435382
34831.991988747
34905.9556373035
34994.3001103657
35104.4864237744
35246.0752606968
35432.8553765332
35685.4171001572
36029.1654934065
36501.9717134264
37160.2901740015
38091.7019156615
39414.1074927519
41295.3448478998
44024.8979314153
47999.1606581227
54111.8426958897
62518.1719026753
73428.1195000933
90169.6252895262
112238.507354715
141617.827152096
179884.949575957
226968.982047959
280647.981531691
337193.534505653
392920.188654402
445230.054967835
492684.026336487
534899.517221469
572070.100075854
604640.161866127
633222.284604932
658427.827913893
680767.950119015
700682.907417924
718579.748908111
734792.404202184
749596.294921725
763218.687282736
775847.470685643
787638.561665755
798720.907684925
809206.215432329
819176.996335944
828701.278598671
837847.13413692
846666.452291553
855202.060647678
863488.78574288
871554.738345272
879422.227458145
887108.615818207
894626.94823805
901986.478362357
909193.110085033
916249.772489976
923156.740742628
929911.916072055
936511.070279687
942948.061431472
949215.027324634
955302.55723346
961199.851052909
966894.830837465
972374.250444908
977623.967621439
982629.125597298
987374.089882824
991842.558095313
996017.81486719
999883.524572479
1003419.68364271
1006606.92804583
1009429.02590596
1011867.51402814
1013903.9166588
1015519.09049298
1016694.44019246
1017404.4074159
1017636.66022784
1017377.49921922
1016601.13261797
1015288.16413393
1013418.3626328
1010971.70923135
1007928.04452077
1004266.79870242
999969.343050649
995013.432942726
989375.453269761
983035.53953087
975971.680502297
968160.946040032
959579.438727165
950202.357276965
940003.878641366
928957.033858458
917033.554261848
904203.696426594
890436.047761311
875697.30646693
859952.06544847
843162.75349971
825290.303446472
806299.084846484
786137.613603255
764751.469073509
742089.604355846
718083.147913003
692655.226006382
665736.240325552
637234.573063817
607037.383850982
575027.59204886
541060.974237904
504950.90354781
466476.547893696
425353.702013607
381184.213414625
333421.723087596
281262.152463437
223654.085987583
)
;

boundaryField
{
    electrode
    {
        type            electronTemperature;
        seec            0.05;
        Tse             1000;
        Edepend         1;
        TFN             1000;
        field_emission  0;
        field_enhancement_factor 55;
        work_function   5;
        value           uniform 33466.4510379189;
    }
    ground
    {
        type            electronTemperature;
        seec            0.05;
        Tse             1000;
        Edepend         1;
        TFN             1000;
        field_emission  0;
        field_enhancement_factor 55;
        work_function   5;
        value           uniform 190939.858577791;
    }
    otherfaces
    {
        type            empty;
    }
}


// ************************************************************************* //
