/*--------------------------------*- C++ -*----------------------------------*\
| =========                 |                                                 |
| \\      /  F ield         | foam-extend: Open Source CFD                    |
|  \\    /   O peration     | Version:     4.0                                |
|   \\  /    A nd           | Web:         http://www.foam-extend.org         |
|    \\/     M anipulation  |                                                 |
\*---------------------------------------------------------------------------*/
FoamFile
{
    version     2.0;
    format      ascii;
    class       volScalarField;
    location    "2.8e-06";
    object      TeMean;
}
// * * * * * * * * * * * * * * * * * * * * * * * * * * * * * * * * * * * * * //

dimensions      [0 0 0 1 0 0 0];

internalField   nonuniform List<scalar> 
300
(
29866.449305074
29866.7412398586
29866.7936959409
29866.6315633726
29866.4286449248
29866.1683297094
29865.8538176494
29865.4891442401
29865.0752711532
29864.6135461093
29864.1052398902
29863.5515819345
29862.9537542726
29862.3128636427
29861.6299756054
29860.9061105643
29860.1422412552
29859.3393034516
29858.4981948805
29857.6197747688
29856.7048701431
29855.7542709693
29854.768735577
29853.7489889285
29852.6957216441
29851.6096150611
29850.4913244864
29849.3414730775
29848.1606714064
29846.9494908163
29845.7084603826
29844.4381228475
29843.1390289221
29841.8116923836
29840.456602758
29839.0742160245
29837.6649728283
29836.2293185893
29834.7676834961
29833.2804721382
29831.7680680813
29830.2308597503
29828.6692215596
29827.0835072462
29825.4740577033
29823.8412002017
29822.1852471446
29820.5064937212
29818.805210317
29817.081642214
29815.3360100627
29813.5685433413
29811.7794991365
29809.9691199702
29808.1376445616
29806.2853212713
29804.412371787
29802.5189954281
29800.6053983976
29798.6717789988
29796.7183238081
29794.7452281824
29792.7526407049
29790.740686411
29788.709547289
29786.659428053
29784.5905132895
29782.5029717513
29780.3969646457
29778.2726563651
29776.1301955169
29773.9696945122
29771.7912885589
29769.5951267673
29767.3813228446
29765.1499603578
29762.9011559882
29760.6350762881
29758.3518495284
29756.051579008
29753.7344209757
29751.4005375971
29749.0500464339
29746.683037016
29744.299592469
29741.8998407271
29739.4839437596
29737.0520336071
29734.6042167338
29732.1406178784
29729.6613289774
29727.166434702
29724.6561219154
29722.1305390907
29719.5898046655
29717.0340845189
29714.4635246221
29711.8782741542
29709.2784721165
29706.6642661536
29704.0358457348
29701.3933374442
29698.7368632767
29696.0666265209
29693.3828216232
29690.6856302989
29687.9752270678
29685.2517956807
29682.5155544156
29679.7667214043
29677.0055217107
29674.2321817075
29671.4469150088
29668.6499898898
29665.8416582878
29663.022147929
29660.1916841571
29657.3505503404
29654.4990887212
29651.6375599749
29648.7662189547
29645.8853593101
29642.9952716787
29640.0962970601
29637.1888420741
29634.2732857636
29631.3499619598
29628.4192611164
29625.4816222168
29622.5374440059
29619.5871287714
29616.6311368322
29613.6699727387
29610.7040600482
29607.7338100616
29604.7598104258
29601.7826881094
29598.8030143017
29595.8214289069
29592.83868135
29589.855570768
29586.8729165114
29583.8915730544
29580.9124437
29577.9365757323
29574.9652271889
29571.9998314249
29569.0420300625
29566.0935357224
29563.1562596995
29560.2325865241
29557.32519525
29554.4371659861
29551.5722478453
29548.7347256128
29545.9296059918
29543.1629080794
29540.4419138391
29537.77541406
29535.1740144489
29532.6511995881
29530.2242185175
29527.9187876309
29525.7773861629
29523.8555219455
29522.2086991494
29520.8902217006
29519.9649359136
29519.5125901735
29519.6215880515
29520.3700448993
29521.746586342
29523.678551995
29526.1256280078
29528.9762318805
29532.0385171314
29535.1684217893
29538.3264193269
29541.7764546621
29546.3604459641
29553.8251868697
29567.6041913795
29593.6246511605
29641.3466673085
29725.997925833
29870.9594138422
30111.3694656218
30500.8884759621
31121.8273279696
32102.2692539223
33644.9106064041
36081.7698783883
39964.4451331701
46398.6651893641
56459.6099420186
70855.1977465422
92184.1819046785
121124.623792247
159855.800399551
208111.066964088
264286.519816421
325013.046701879
386611.999620687
445489.864376535
499145.964579518
546458.476368579
587437.098739813
622679.23086014
653036.798692433
679365.427533793
702371.996560779
722628.330345378
740618.677583826
756747.517074218
771340.047416459
784660.090127613
796921.803988279
808300.10288106
818937.967765638
828949.965711892
838431.070820029
847458.62847741
856096.186083712
864399.664987776
872413.99605003
880175.136545273
887711.99183454
895047.387321472
902198.956737425
909179.862470292
915999.387462353
922663.435441149
929174.94572204
935534.072829692
941738.58395799
947784.259178111
953664.982635473
959372.977281041
964898.976217147
970232.401364313
975361.494075395
980273.42761648
984954.500086388
989390.321804659
993565.907842065
997465.876863254
1001073.84648651
1004372.99378732
1007346.61927506
1009977.52847768
1012248.88734837
1014143.91823505
1015645.41038401
1016736.06383108
1017398.46179664
1017614.92492067
1017367.47472588
1016633.56509256
1015409.42048106
1013669.91665161
1011397.87012201
1008575.15878491
1005184.05765374
1001206.63648371
996624.826687493
991420.494211022
985575.287195405
979070.226646809
971886.245721031
964003.824654883
955402.406248108
946061.168089428
935958.788738715
925072.580578513
913378.525454687
900851.29311687
887464.141053654
873188.710366114
857994.906689047
841850.585067121
824721.459821565
806570.556642526
787362.498725082
767054.519360798
745595.398853084
722934.608225188
699012.568892248
673758.528613155
647101.08850078
618956.55866821
589221.703885929
557779.802886141
524498.115800255
489201.589213798
451677.603738008
411656.828923196
368757.554097049
322461.535550588
272013.703689281
216406.847968913
)
;

boundaryField
{
    electrode
    {
        type            calculated;
        value           uniform 29866.4493050783;
    }
    ground
    {
        type            calculated;
        value           uniform 184902.432715413;
    }
    otherfaces
    {
        type            empty;
    }
}


// ************************************************************************* //
