/*--------------------------------*- C++ -*----------------------------------*\
| =========                 |                                                 |
| \\      /  F ield         | foam-extend: Open Source CFD                    |
|  \\    /   O peration     | Version:     4.0                                |
|   \\  /    A nd           | Web:         http://www.foam-extend.org         |
|    \\/     M anipulation  |                                                 |
\*---------------------------------------------------------------------------*/
FoamFile
{
    version     2.0;
    format      ascii;
    class       volVectorField;
    location    "9e-10";
    object      E;
}
// * * * * * * * * * * * * * * * * * * * * * * * * * * * * * * * * * * * * * //

dimensions      [0 0 0 1 0 0 0];

internalField   nonuniform List<vector> 
250
(
(-0 20390.030661704 -0)
(-0 13593.351533061 -0)
(-0 13593.3513918206 -0)
(-0 13593.3513996371 -0)
(-0 13593.3514012355 -0)
(-0 13593.3514094946 -0)
(-0 13593.3514168923 -0)
(-0 13593.3514238807 -0)
(-0 13593.3514318784 -0)
(-0 13593.351440207 -0)
(-0 13593.351447799 -0)
(-0 13593.3514554541 -0)
(-0 13593.351463523 -0)
(-0 13593.3514719485 -0)
(-0 13593.3514798796 -0)
(-0 13593.3514877795 -0)
(-0 13593.3514959839 -0)
(-0 13593.3515044748 -0)
(-0 13593.3515129468 -0)
(-0 13593.3515212894 -0)
(-0 13593.3515292544 -0)
(-0 13593.3515370691 -0)
(-0 13593.351545255 -0)
(-0 13593.3515535523 -0)
(-0 13593.3515617954 -0)
(-0 13593.3515701356 -0)
(-0 13593.3515786387 -0)
(-0 13593.3515870878 -0)
(-0 13593.3515957404 -0)
(-0 13593.3516043397 -0)
(-0 13593.3516126941 -0)
(-0 13593.3516212944 -0)
(-0 13593.3516302684 -0)
(-0 13593.3516391825 -0)
(-0 13593.3516478853 -0)
(-0 13593.3516566378 -0)
(-0 13593.3516654943 -0)
(-0 13593.3516744011 -0)
(-0 13593.3516830632 -0)
(-0 13593.3516919087 -0)
(-0 13593.3517007871 -0)
(-0 13593.3517097438 -0)
(-0 13593.3517190104 -0)
(-0 13593.3517276192 -0)
(-0 13593.3517364058 -0)
(-0 13593.3517457121 -0)
(-0 13593.3517546943 -0)
(-0 13593.3517637746 -0)
(-0 13593.351772995 -0)
(-0 13593.3517823913 -0)
(-0 13593.3517917871 -0)
(-0 13593.3518009165 -0)
(-0 13593.351810591 -0)
(-0 13593.3518204181 -0)
(-0 13593.351829825 -0)
(-0 13593.3518392258 -0)
(-0 13593.3518488245 -0)
(-0 13593.3518584056 -0)
(-0 13593.3518678822 -0)
(-0 13593.3518774097 -0)
(-0 13593.3518871796 -0)
(-0 13593.3518969047 -0)
(-0 13593.3519064434 -0)
(-0 13593.351916037 -0)
(-0 13593.3519259707 -0)
(-0 13593.3519360725 -0)
(-0 13593.3519460294 -0)
(-0 13593.3519562119 -0)
(-0 13593.3519663783 -0)
(-0 13593.3519766313 -0)
(-0 13593.3519869033 -0)
(-0 13593.3519965872 -0)
(-0 13593.3520061554 -0)
(-0 13593.3520161483 -0)
(-0 13593.3520262555 -0)
(-0 13593.3520362744 -0)
(-0 13593.3520462354 -0)
(-0 13593.3520563182 -0)
(-0 13593.3520666496 -0)
(-0 13593.3520769651 -0)
(-0 13593.3520869904 -0)
(-0 13593.3520972727 -0)
(-0 13593.3521078956 -0)
(-0 13593.3521182059 -0)
(-0 13593.3521283697 -0)
(-0 13593.3521386676 -0)
(-0 13593.3521493812 -0)
(-0 13593.3521601417 -0)
(-0 13593.3521705596 -0)
(-0 13593.3521807969 -0)
(-0 13593.3521911613 -0)
(-0 13593.3522016808 -0)
(-0 13593.3522121854 -0)
(-0 13593.3522228125 -0)
(-0 13593.3522335008 -0)
(-0 13593.3522443258 -0)
(-0 13593.3522554559 -0)
(-0 13593.3522668993 -0)
(-0 13593.3522781966 -0)
(-0 13593.3522888605 -0)
(-0 13593.352299316 -0)
(-0 13593.352310256 -0)
(-0 13593.3523214064 -0)
(-0 13593.3523324376 -0)
(-0 13593.3523436225 -0)
(-0 13593.3523549134 -0)
(-0 13593.3523661866 -0)
(-0 13593.3523775145 -0)
(-0 13593.3523886604 -0)
(-0 13593.3523999398 -0)
(-0 13593.3524115864 -0)
(-0 13593.3524232827 -0)
(-0 13593.3524347549 -0)
(-0 13593.3524461692 -0)
(-0 13593.3524579191 -0)
(-0 13593.3524698005 -0)
(-0 13593.3524816643 -0)
(-0 13593.3524934138 -0)
(-0 13593.3525053496 -0)
(-0 13593.352517564 -0)
(-0 13593.3525296319 -0)
(-0 13593.3525415892 -0)
(-0 13593.3525535771 -0)
(-0 13593.3525657894 -0)
(-0 13593.3525778878 -0)
(-0 13593.3525900697 -0)
(-0 13593.3526027346 -0)
(-0 13593.352614992 -0)
(-0 13593.3526271511 -0)
(-0 13593.3526395667 -0)
(-0 13593.3526520236 -0)
(-0 13593.3526645717 -0)
(-0 13593.3526771602 -0)
(-0 13593.3526899335 -0)
(-0 13593.3527026644 -0)
(-0 13593.3527152 -0)
(-0 13593.3527276066 -0)
(-0 13593.3527400104 -0)
(-0 13593.3527526369 -0)
(-0 13593.3527654512 -0)
(-0 13593.3527784377 -0)
(-0 13593.3527914294 -0)
(-0 13593.3528040979 -0)
(-0 13593.3528168178 -0)
(-0 13593.3528296445 -0)
(-0 13593.3528424813 -0)
(-0 13593.3528556054 -0)
(-0 13593.3528687425 -0)
(-0 13593.3528817511 -0)
(-0 13593.3528948967 -0)
(-0 13593.3529083611 -0)
(-0 13593.3529219742 -0)
(-0 13593.3529353613 -0)
(-0 13593.3529486626 -0)
(-0 13593.3529620571 -0)
(-0 13593.3529754779 -0)
(-0 13593.3529890741 -0)
(-0 13593.3530026791 -0)
(-0 13593.3530162894 -0)
(-0 13593.3530301862 -0)
(-0 13593.3530439064 -0)
(-0 13593.3530577642 -0)
(-0 13593.3530718314 -0)
(-0 13593.3530856499 -0)
(-0 13593.3530996383 -0)
(-0 13593.353113768 -0)
(-0 13593.3531280224 -0)
(-0 13593.3531423302 -0)
(-0 13593.3531566288 -0)
(-0 13593.3531709107 -0)
(-0 13593.3531850966 -0)
(-0 13593.3531995047 -0)
(-0 13593.3532138375 -0)
(-0 13593.3532282155 -0)
(-0 13593.353242922 -0)
(-0 13593.3532575765 -0)
(-0 13593.3532721605 -0)
(-0 13593.3532869867 -0)
(-0 13593.3533019355 -0)
(-0 13593.3533168942 -0)
(-0 13593.353331829 -0)
(-0 13593.3533467654 -0)
(-0 13593.353361649 -0)
(-0 13593.3533765133 -0)
(-0 13593.3533915128 -0)
(-0 13593.3534066894 -0)
(-0 13593.3534218494 -0)
(-0 13593.3534369911 -0)
(-0 13593.3534522977 -0)
(-0 13593.3534676481 -0)
(-0 13593.3534831244 -0)
(-0 13593.3534987342 -0)
(-0 13593.3535143166 -0)
(-0 13593.3535298833 -0)
(-0 13593.3535454941 -0)
(-0 13593.353561001 -0)
(-0 13593.3535765272 -0)
(-0 13593.3535921268 -0)
(-0 13593.3536076966 -0)
(-0 13593.3536233986 -0)
(-0 13593.3536392862 -0)
(-0 13593.3536552167 -0)
(-0 13593.3536712098 -0)
(-0 13593.3536871353 -0)
(-0 13593.3537030314 -0)
(-0 13593.3537190833 -0)
(-0 13593.3537352063 -0)
(-0 13593.3537513791 -0)
(-0 13593.3537677399 -0)
(-0 13593.3537841696 -0)
(-0 13593.3538006458 -0)
(-0 13593.3538171725 -0)
(-0 13593.3538336687 -0)
(-0 13593.3538502702 -0)
(-0 13593.353867003 -0)
(-0 13593.353883739 -0)
(-0 13593.3539005068 -0)
(-0 13593.3539173419 -0)
(-0 13593.3539342208 -0)
(-0 13593.3539511358 -0)
(-0 13593.3539682446 -0)
(-0 13593.3539853935 -0)
(-0 13593.3540024642 -0)
(-0 13593.3540196137 -0)
(-0 13593.3540368865 -0)
(-0 13593.3540542662 -0)
(-0 13593.3540716363 -0)
(-0 13593.3540890756 -0)
(-0 13593.3541066615 -0)
(-0 13593.3541242837 -0)
(-0 13593.3541419415 -0)
(-0 13593.3541596695 -0)
(-0 13593.3541775024 -0)
(-0 13593.3541953691 -0)
(-0 13593.3542132517 -0)
(-0 13593.3542311739 -0)
(-0 13593.3542491282 -0)
(-0 13593.3542671438 -0)
(-0 13593.3542852216 -0)
(-0 13593.3543033543 -0)
(-0 13593.3543215665 -0)
(-0 13593.3543398641 -0)
(-0 13593.3543581908 -0)
(-0 13593.3543765872 -0)
(-0 13593.3543953425 -0)
(-0 13593.3544142345 -0)
(-0 13593.3544400467 -0)
(-0 13593.3544713991 -0)
(-0 13593.3546737091 -0)
(-0 20390.0321338679 -0)
)
;

boundaryField
{
    dielectric_2
    {
        type            calculated;
        value           nonuniform 0();
    }
    dielectric_1
    {
        type            calculated;
        value           nonuniform 0();
    }
    otherfaces
    {
        type            empty;
    }
    procBoundary2to0
    {
        type            processor;
        value           uniform (-0 20390.0335388727 -0);
    }
    procBoundary2to3
    {
        type            processor;
        value           uniform (-0 20390.0315497634 -0);
    }
}


// ************************************************************************* //
