/*--------------------------------*- C++ -*----------------------------------*\
| =========                 |                                                 |
| \\      /  F ield         | foam-extend: Open Source CFD                    |
|  \\    /   O peration     | Version:     4.0                                |
|   \\  /    A nd           | Web:         http://www.foam-extend.org         |
|    \\/     M anipulation  |                                                 |
\*---------------------------------------------------------------------------*/
FoamFile
{
    version     2.0;
    format      ascii;
    class       volVectorField;
    location    "3e-10";
    object      E;
}
// * * * * * * * * * * * * * * * * * * * * * * * * * * * * * * * * * * * * * //

dimensions      [0 0 0 1 0 0 0];

internalField   nonuniform List<vector> 
250
(
(-0 6796.2634510702 -0)
(-0 4531.65558992465 -0)
(-0 4531.65557640624 -0)
(-0 4531.65558986395 -0)
(-0 4531.65558645028 -0)
(-0 4531.65555654139 -0)
(-0 4531.65554082062 -0)
(-0 4531.65556164571 -0)
(-0 4531.65556405654 -0)
(-0 4531.65555800178 -0)
(-0 4531.65557252738 -0)
(-0 4531.65557629147 -0)
(-0 4531.65558080942 -0)
(-0 4531.65556019453 -0)
(-0 4531.65556106131 -0)
(-0 4531.65556728223 -0)
(-0 4531.65554746753 -0)
(-0 4531.65553952298 -0)
(-0 4531.65553195138 -0)
(-0 4531.6555258318 -0)
(-0 4531.65551153232 -0)
(-0 4531.65552336018 -0)
(-0 4531.65552935424 -0)
(-0 4531.65552666073 -0)
(-0 4531.65553438712 -0)
(-0 4531.6555463803 -0)
(-0 4531.65555542501 -0)
(-0 4531.65554278124 -0)
(-0 4531.65553724709 -0)
(-0 4531.65553787172 -0)
(-0 4531.65554211029 -0)
(-0 4531.65554449371 -0)
(-0 4531.65554647491 -0)
(-0 4531.65555416976 -0)
(-0 4531.65554876166 -0)
(-0 4531.6555348583 -0)
(-0 4531.65552643812 -0)
(-0 4531.65552365827 -0)
(-0 4531.65554211195 -0)
(-0 4531.65555205052 -0)
(-0 4531.65554827 -0)
(-0 4531.65555428484 -0)
(-0 4531.65553046732 -0)
(-0 4531.65550770878 -0)
(-0 4531.6554978278 -0)
(-0 4531.65550447616 -0)
(-0 4531.65551988137 -0)
(-0 4531.65552080243 -0)
(-0 4531.65552698499 -0)
(-0 4531.65553534789 -0)
(-0 4531.65553290615 -0)
(-0 4531.65552057062 -0)
(-0 4531.65549918489 -0)
(-0 4531.65547419391 -0)
(-0 4531.6554772307 -0)
(-0 4531.65546637984 -0)
(-0 4531.65545206373 -0)
(-0 4531.65546747048 -0)
(-0 4531.65545252457 -0)
(-0 4531.65543765848 -0)
(-0 4531.65544687937 -0)
(-0 4531.65545086235 -0)
(-0 4531.65546881827 -0)
(-0 4531.65548902474 -0)
(-0 4531.65548855811 -0)
(-0 4531.65548816654 -0)
(-0 4531.65548357434 -0)
(-0 4531.65548160203 -0)
(-0 4531.65548648126 -0)
(-0 4531.65549084743 -0)
(-0 4531.65549626784 -0)
(-0 4531.65548406931 -0)
(-0 4531.65547651032 -0)
(-0 4531.65547517267 -0)
(-0 4531.65545279174 -0)
(-0 4531.65543964609 -0)
(-0 4531.65544969788 -0)
(-0 4531.65544072432 -0)
(-0 4531.65542976056 -0)
(-0 4531.65544242087 -0)
(-0 4531.65544531196 -0)
(-0 4531.6554458546 -0)
(-0 4531.65544676708 -0)
(-0 4531.65545427964 -0)
(-0 4531.6554679275 -0)
(-0 4531.65547913673 -0)
(-0 4531.65548721662 -0)
(-0 4531.65548231631 -0)
(-0 4531.65548112351 -0)
(-0 4531.65549033117 -0)
(-0 4531.65550524999 -0)
(-0 4531.6555134731 -0)
(-0 4531.65551290751 -0)
(-0 4531.65550714754 -0)
(-0 4531.6555023591 -0)
(-0 4531.65550207734 -0)
(-0 4531.65551035793 -0)
(-0 4531.65552383539 -0)
(-0 4531.65552835708 -0)
(-0 4531.65553562106 -0)
(-0 4531.65554547247 -0)
(-0 4531.65554331302 -0)
(-0 4531.65553192594 -0)
(-0 4531.65553259979 -0)
(-0 4531.65553721039 -0)
(-0 4531.65553663394 -0)
(-0 4531.65553416854 -0)
(-0 4531.65553264394 -0)
(-0 4531.65554042502 -0)
(-0 4531.65554372567 -0)
(-0 4531.65553521223 -0)
(-0 4531.65552611283 -0)
(-0 4531.65551855674 -0)
(-0 4531.65550962547 -0)
(-0 4531.65550946416 -0)
(-0 4531.65552472399 -0)
(-0 4531.65554306569 -0)
(-0 4531.65556192831 -0)
(-0 4531.65557004398 -0)
(-0 4531.65556360272 -0)
(-0 4531.6555638974 -0)
(-0 4531.65557767885 -0)
(-0 4531.65559045425 -0)
(-0 4531.65560013391 -0)
(-0 4531.65560676004 -0)
(-0 4531.655618025 -0)
(-0 4531.65562969672 -0)
(-0 4531.65563547707 -0)
(-0 4531.65564985471 -0)
(-0 4531.65566380656 -0)
(-0 4531.65567048542 -0)
(-0 4531.65566885545 -0)
(-0 4531.65566610281 -0)
(-0 4531.65566798175 -0)
(-0 4531.65567289044 -0)
(-0 4531.65568187321 -0)
(-0 4531.65569856779 -0)
(-0 4531.65569935215 -0)
(-0 4531.6556930509 -0)
(-0 4531.65569375484 -0)
(-0 4531.65569478095 -0)
(-0 4531.65569846749 -0)
(-0 4531.65569915094 -0)
(-0 4531.65570593073 -0)
(-0 4531.65572001844 -0)
(-0 4531.65573705878 -0)
(-0 4531.65574912693 -0)
(-0 4531.65575427323 -0)
(-0 4531.65575568688 -0)
(-0 4531.65576087269 -0)
(-0 4531.65577008003 -0)
(-0 4531.65578203693 -0)
(-0 4531.65579139565 -0)
(-0 4531.65579917715 -0)
(-0 4531.65580024007 -0)
(-0 4531.65580104616 -0)
(-0 4531.65580169715 -0)
(-0 4531.65579327232 -0)
(-0 4531.65579602372 -0)
(-0 4531.65579684242 -0)
(-0 4531.65579815082 -0)
(-0 4531.65580585249 -0)
(-0 4531.65580196971 -0)
(-0 4531.65579939924 -0)
(-0 4531.65579549826 -0)
(-0 4531.65579004445 -0)
(-0 4531.655797353 -0)
(-0 4531.65580463736 -0)
(-0 4531.65580499946 -0)
(-0 4531.65580878278 -0)
(-0 4531.6558163614 -0)
(-0 4531.65581824986 -0)
(-0 4531.65581863698 -0)
(-0 4531.65581553319 -0)
(-0 4531.65581750395 -0)
(-0 4531.65582643957 -0)
(-0 4531.65583320239 -0)
(-0 4531.65583694187 -0)
(-0 4531.65583503274 -0)
(-0 4531.65584037095 -0)
(-0 4531.65584337589 -0)
(-0 4531.65584376156 -0)
(-0 4531.65584569757 -0)
(-0 4531.65584434307 -0)
(-0 4531.65584867046 -0)
(-0 4531.65585741459 -0)
(-0 4531.65585895935 -0)
(-0 4531.65585991536 -0)
(-0 4531.65586793384 -0)
(-0 4531.6558767733 -0)
(-0 4531.65589185239 -0)
(-0 4531.65589780954 -0)
(-0 4531.655896369 -0)
(-0 4531.65590663327 -0)
(-0 4531.65591382169 -0)
(-0 4531.65591616323 -0)
(-0 4531.65592195246 -0)
(-0 4531.65592650692 -0)
(-0 4531.65592961628 -0)
(-0 4531.65593533045 -0)
(-0 4531.6559441573 -0)
(-0 4531.65595036342 -0)
(-0 4531.65595696867 -0)
(-0 4531.65596164141 -0)
(-0 4531.65596090915 -0)
(-0 4531.65596388659 -0)
(-0 4531.65597066327 -0)
(-0 4531.65597599941 -0)
(-0 4531.65597980713 -0)
(-0 4531.65598147286 -0)
(-0 4531.6559870069 -0)
(-0 4531.65599441018 -0)
(-0 4531.65599572953 -0)
(-0 4531.6559964225 -0)
(-0 4531.65600040247 -0)
(-0 4531.65600728751 -0)
(-0 4531.65601558207 -0)
(-0 4531.65601996985 -0)
(-0 4531.65602198527 -0)
(-0 4531.65602571317 -0)
(-0 4531.6560297707 -0)
(-0 4531.65603395602 -0)
(-0 4531.65603899625 -0)
(-0 4531.65604125506 -0)
(-0 4531.65604293797 -0)
(-0 4531.6560490835 -0)
(-0 4531.65605651096 -0)
(-0 4531.6560621573 -0)
(-0 4531.65606650062 -0)
(-0 4531.65607049342 -0)
(-0 4531.65607410903 -0)
(-0 4531.65607761358 -0)
(-0 4531.65608154041 -0)
(-0 4531.65608565874 -0)
(-0 4531.65609129267 -0)
(-0 4531.65609859543 -0)
(-0 4531.65610572014 -0)
(-0 4531.65611063194 -0)
(-0 4531.65611475751 -0)
(-0 4531.65611953448 -0)
(-0 4531.65612476888 -0)
(-0 4531.65613029878 -0)
(-0 4531.6561351806 -0)
(-0 4531.65614051777 -0)
(-0 4531.65614653324 -0)
(-0 4531.65615226849 -0)
(-0 4531.65615777524 -0)
(-0 4531.65616294429 -0)
(-0 4531.65616765839 -0)
(-0 6796.97623918617 -0)
)
;

boundaryField
{
    dielectric_2
    {
        type            calculated;
        value           nonuniform 0();
    }
    dielectric_1
    {
        type            calculated;
        value           nonuniform 0();
    }
    otherfaces
    {
        type            empty;
    }
    procBoundary2to0
    {
        type            processor;
        value           uniform (-0 6795.02063755887 -0);
    }
    procBoundary2to3
    {
        type            processor;
        value           uniform (-0 6796.23359607984 -0);
    }
}


// ************************************************************************* //
