/*--------------------------------*- C++ -*----------------------------------*\
| =========                 |                                                 |
| \\      /  F ield         | foam-extend: Open Source CFD                    |
|  \\    /   O peration     | Version:     4.0                                |
|   \\  /    A nd           | Web:         http://www.foam-extend.org         |
|    \\/     M anipulation  |                                                 |
\*---------------------------------------------------------------------------*/
FoamFile
{
    version     2.0;
    format      ascii;
    class       volVectorField;
    location    "1e-09";
    object      E;
}
// * * * * * * * * * * * * * * * * * * * * * * * * * * * * * * * * * * * * * //

dimensions      [0 0 0 1 0 0 0];

internalField   nonuniform List<vector> 10((-0 3020.45193450537 -0) (-0 3020.00260416919 -0) (-0 3020.00260416864 -0) (-0 3020.0026041687 -0) (-0 3020.00260417082 -0) (-0 3020.00260417107 -0) (-0 3020.00260416981 -0) (-0 3020.00260416941 -0) (-0 3020.00260416958 -0) (-0 4529.27445370604 -0));

boundaryField
{
    electrode
    {
        type            calculated;
        value           nonuniform 0();
    }
    plasma_2
    {
        type            calculated;
        value           uniform (-0 3020.90126484119 -0);
    }
    otherfaces
    {
        type            empty;
    }
    procBoundary3to2
    {
        type            processor;
        value           uniform (-0 4528.59036895065 -0);
    }
}


// ************************************************************************* //
