/*--------------------------------*- C++ -*----------------------------------*\
| =========                 |                                                 |
| \\      /  F ield         | foam-extend: Open Source CFD                    |
|  \\    /   O peration     | Version:     4.0                                |
|   \\  /    A nd           | Web:         http://www.foam-extend.org         |
|    \\/     M anipulation  |                                                 |
\*---------------------------------------------------------------------------*/
FoamFile
{
    version     2.0;
    format      ascii;
    class       volScalarField;
    location    "1e-09";
    object      Phi;
}
// * * * * * * * * * * * * * * * * * * * * * * * * * * * * * * * * * * * * * //

dimensions      [0 0 0 1 0 0 0];

internalField   nonuniform List<scalar> 10(0.059630268304184 0.0581202670020996 0.0566102657000149 0.0551002643979308 0.0535902630958462 0.0520802617937598 0.0505702604916746 0.0490602591895906 0.0475502578875055 0.0460402565854207);

boundaryField
{
    electrode
    {
        type            fixedValue;
        value           nonuniform 0();
    }
    plasma_2
    {
        type            coupledPotential;
        surfaceCharge   false;
        remoteField     Phi;
        value           uniform 0.0603854936203944;
    }
    otherfaces
    {
        type            empty;
    }
    procBoundary3to2
    {
        type            processor;
        value           uniform 0.0445306200096102;
    }
}


// ************************************************************************* //
