/*--------------------------------*- C++ -*----------------------------------*\
| =========                 |                                                 |
| \\      /  F ield         | foam-extend: Open Source CFD                    |
|  \\    /   O peration     | Version:     4.0                                |
|   \\  /    A nd           | Web:         http://www.foam-extend.org         |
|    \\/     M anipulation  |                                                 |
\*---------------------------------------------------------------------------*/
FoamFile
{
    version     2.0;
    format      ascii;
    class       volScalarField;
    location    "7.5e-06";
    object      Ar;
}
// * * * * * * * * * * * * * * * * * * * * * * * * * * * * * * * * * * * * * //

dimensions      [0 0 0 1 0 0 0];

internalField   nonuniform List<scalar> 
300
(
3.21880222306491e+22
3.21880221878521e+22
3.21880222169732e+22
3.21880222286342e+22
3.21880222485165e+22
3.21880222760798e+22
3.21880223096508e+22
3.2188022349886e+22
3.21880223966625e+22
3.21880224499472e+22
3.21880225097453e+22
3.21880225760454e+22
3.21880226488424e+22
3.21880227281333e+22
3.21880228139163e+22
3.2188022906191e+22
3.21880230049611e+22
3.2188023110227e+22
3.21880232219899e+22
3.21880233402529e+22
3.218802346502e+22
3.2188023596296e+22
3.21880237340863e+22
3.21880238783967e+22
3.21880240292497e+22
3.21880241866399e+22
3.21880243505761e+22
3.21880245210693e+22
3.21880246981194e+22
3.21880248817352e+22
3.21880250719446e+22
3.21880252687508e+22
3.21880254721507e+22
3.21880256821541e+22
3.21880258987716e+22
3.21880261220144e+22
3.21880263518988e+22
3.21880265884349e+22
3.21880268316327e+22
3.21880270815061e+22
3.21880273380694e+22
3.21880276013354e+22
3.21880278713185e+22
3.21880281480339e+22
3.2188028431497e+22
3.21880287217239e+22
3.21880290187333e+22
3.21880293225438e+22
3.21880296331831e+22
3.21880299506733e+22
3.21880302750475e+22
3.21880306063145e+22
3.21880309445006e+22
3.21880312896097e+22
3.21880316416554e+22
3.21880320006432e+22
3.21880323665918e+22
3.21880327395207e+22
3.21880331194499e+22
3.21880335064014e+22
3.2188033900394e+22
3.21880343014483e+22
3.2188034709591e+22
3.21880351248631e+22
3.21880355472841e+22
3.21880359768518e+22
3.21880364135878e+22
3.21880368575138e+22
3.21880373086518e+22
3.21880377670243e+22
3.21880382326559e+22
3.21880387055776e+22
3.21880391858147e+22
3.21880396733836e+22
3.21880401683215e+22
3.21880406706513e+22
3.21880411803903e+22
3.21880416975662e+22
3.21880422221828e+22
3.21880427542939e+22
3.21880432938886e+22
3.21880438409878e+22
3.21880443956179e+22
3.21880449577996e+22
3.21880455275705e+22
3.21880461049456e+22
3.21880466899358e+22
3.21880472825632e+22
3.21880478828613e+22
3.21880484908436e+22
3.21880491065381e+22
3.21880497300167e+22
3.21880503612496e+22
3.21880510002362e+22
3.21880516469734e+22
3.2188052301531e+22
3.21880529639326e+22
3.21880536342041e+22
3.21880543123835e+22
3.21880549984976e+22
3.21880556925664e+22
3.21880563946146e+22
3.21880571046992e+22
3.21880578228159e+22
3.21880585489981e+22
3.2188059283279e+22
3.21880600256669e+22
3.21880607762043e+22
3.2188061534903e+22
3.21880623017794e+22
3.21880630768568e+22
3.21880638601583e+22
3.21880646517121e+22
3.21880654515403e+22
3.21880662596646e+22
3.21880670761217e+22
3.2188067900949e+22
3.218806873414e+22
3.21880695757115e+22
3.21880704256889e+22
3.21880712841155e+22
3.2188072150995e+22
3.21880730263725e+22
3.21880739102534e+22
3.2188074802642e+22
3.21880757035554e+22
3.21880766130368e+22
3.21880775310832e+22
3.21880784577199e+22
3.21880793929629e+22
3.21880803368418e+22
3.21880812893741e+22
3.21880822505782e+22
3.21880832204934e+22
3.21880841991694e+22
3.21880851866001e+22
3.21880861827946e+22
3.21880871877905e+22
3.21880882016191e+22
3.21880892242837e+22
3.21880902558124e+22
3.21880912962338e+22
3.21880923455917e+22
3.21880934039296e+22
3.21880944712828e+22
3.21880955476419e+22
3.21880966330313e+22
3.2188097727476e+22
3.21880988310135e+22
3.21880999436986e+22
3.21881010655214e+22
3.21881021965099e+22
3.21881033367186e+22
3.21881044861469e+22
3.2188105644798e+22
3.21881068127014e+22
3.21881079898541e+22
3.21881091762775e+22
3.21881103718715e+22
3.21881115764787e+22
3.21881127904199e+22
3.21881140128292e+22
3.21881152453254e+22
3.21881164842189e+22
3.2188117736525e+22
3.21881189885875e+22
3.21881202375656e+22
3.21881215036054e+22
3.21881227792023e+22
3.21881240631413e+22
3.21881253509105e+22
3.21881266369669e+22
3.21881279286368e+22
3.21881292117931e+22
3.21881305023005e+22
3.21881318231195e+22
3.21881331060728e+22
3.21881343677576e+22
3.2188135667434e+22
3.21881369253845e+22
3.21881381279862e+22
3.21881393631338e+22
3.218814053009e+22
3.21881416177923e+22
3.21881427296848e+22
3.21881437324671e+22
3.21881446471078e+22
3.21881455563718e+22
3.2188146351059e+22
3.21881470394371e+22
3.21881476944343e+22
3.21881482601066e+22
3.21881487339033e+22
3.21881491116074e+22
3.21881494541746e+22
3.21881496707196e+22
3.21881498288222e+22
3.21881499285497e+22
3.21881500186716e+22
3.21881500743167e+22
3.21881501039435e+22
3.21881500792039e+22
3.21881500665208e+22
3.21881500607031e+22
3.21881501145119e+22
3.21881501896314e+22
3.21881502790137e+22
3.21881503654903e+22
3.21881504423989e+22
3.21881505091488e+22
3.21881505668462e+22
3.21881506163749e+22
3.21881506585818e+22
3.2188150712306e+22
3.21881507673611e+22
3.2188150818238e+22
3.2188150863815e+22
3.21881509061719e+22
3.21881509443503e+22
3.21881509802582e+22
3.21881510127146e+22
3.21881510438836e+22
3.21881510724549e+22
3.21881510999878e+22
3.21881511249974e+22
3.21881511640122e+22
3.21881512013401e+22
3.21881512383727e+22
3.21881512725952e+22
3.21881513067456e+22
3.21881513382306e+22
3.21881513698328e+22
3.21881513988483e+22
3.21881514281183e+22
3.2188151454868e+22
3.21881514819699e+22
3.21881515065922e+22
3.21881515316573e+22
3.21881515542645e+22
3.21881515773937e+22
3.21881515980761e+22
3.21881516219591e+22
3.21881516513966e+22
3.2188151681307e+22
3.21881517089084e+22
3.21881517370304e+22
3.21881517628748e+22
3.21881517893124e+22
3.21881518134934e+22
3.21881518383384e+22
3.21881518609504e+22
3.21881518842856e+22
3.21881519054091e+22
3.21881519273125e+22
3.21881519470156e+22
3.21881519675655e+22
3.21881519859239e+22
3.21881520051905e+22
3.21881520222791e+22
3.21881520403215e+22
3.21881520562011e+22
3.21881520730794e+22
3.2188152087809e+22
3.21881521035739e+22
3.21881521172045e+22
3.21881521366906e+22
3.21881521560128e+22
3.21881521765163e+22
3.21881521947995e+22
3.21881522143153e+22
3.21881522316178e+22
3.21881522502016e+22
3.21881522665832e+22
3.21881522842975e+22
3.21881522998176e+22
3.21881523167219e+22
3.21881523314362e+22
3.21881523475699e+22
3.21881523615098e+22
3.21881523769016e+22
3.21881523901035e+22
3.21881524048274e+22
3.21881524175399e+22
3.21881524319426e+22
3.21881524441776e+22
3.21881524579819e+22
3.21881524696077e+22
3.21881524828159e+22
3.21881524938483e+22
3.21881525068796e+22
3.2188152517983e+22
3.21881525307177e+22
3.21881525412537e+22
3.21881525540562e+22
3.21881525648899e+22
3.21881525776028e+22
3.21881525889194e+22
3.21881526025478e+22
3.21881526149038e+22
3.21881526399633e+22
)
;

boundaryField
{
    electrode
    {
        type            zeroGradient;
    }
    ground
    {
        type            zeroGradient;
    }
    otherfaces
    {
        type            empty;
    }
}


// ************************************************************************* //
