/*--------------------------------*- C++ -*----------------------------------*\
| =========                 |                                                 |
| \\      /  F ield         | foam-extend: Open Source CFD                    |
|  \\    /   O peration     | Version:     4.0                                |
|   \\  /    A nd           | Web:         http://www.foam-extend.org         |
|    \\/     M anipulation  |                                                 |
\*---------------------------------------------------------------------------*/
FoamFile
{
    version     2.0;
    format      ascii;
    class       volScalarField;
    location    "7.5e-06";
    object      electron;
}
// * * * * * * * * * * * * * * * * * * * * * * * * * * * * * * * * * * * * * //

dimensions      [0 0 0 1 0 0 0];

internalField   nonuniform List<scalar> 
300
(
6.55933352878757e+16
6.55916176556527e+16
6.55871609176777e+16
6.55795758255687e+16
6.55689232627922e+16
6.55551791099769e+16
6.55383377198728e+16
6.55183983667436e+16
6.54953578013489e+16
6.5469213220426e+16
6.5439961617035e+16
6.54075997295593e+16
6.53721241048236e+16
6.5333531078021e+16
6.52918167748147e+16
6.52469771127702e+16
6.51990078013729e+16
6.51479043427214e+16
6.50936620322007e+16
6.50362759592129e+16
6.49757410079957e+16
6.49120518585154e+16
6.48452029874369e+16
6.47751886691809e+16
6.4702002977066e+16
6.46256397845344e+16
6.45460927664729e+16
6.44633554006216e+16
6.43774209690839e+16
6.42882825599335e+16
6.41959330689192e+16
6.41003652012788e+16
6.40015714736586e+16
6.38995442161386e+16
6.37942755743752e+16
6.36857575118552e+16
6.35739818122692e+16
6.34589400820026e+16
6.3340623752749e+16
6.32190240842516e+16
6.30941321671652e+16
6.29659389260483e+16
6.28344351224842e+16
6.26996113583369e+16
6.25614580791394e+16
6.24199655776076e+16
6.22751239972988e+16
6.21269233364062e+16
6.19753534516825e+16
6.18204040625022e+16
6.16620647550642e+16
6.15003249867312e+16
6.13351740904965e+16
6.11666012795909e+16
6.09945956522266e+16
6.08191461964714e+16
6.0640241795251e+16
6.0457871231476e+16
6.02720231933032e+16
6.00826862795159e+16
5.98898490050209e+16
5.96934998064672e+16
5.94936270479743e+16
5.92902190269681e+16
5.90832639801177e+16
5.8872750089375e+16
5.86586654881021e+16
5.84409982672885e+16
5.82197364818506e+16
5.7994868156996e+16
5.77663812946625e+16
5.75342638800143e+16
5.72985038879868e+16
5.70590892898739e+16
5.6816008059951e+16
5.65692481821184e+16
5.6318797656564e+16
5.60646445064274e+16
5.58067767844561e+16
5.55451825796413e+16
5.52798500238308e+16
5.50107672983169e+16
5.4737922640377e+16
5.44613043496486e+16
5.41809007942243e+16
5.3896700417021e+16
5.36086917434391e+16
5.3316863388863e+16
5.3021204059021e+16
5.27217025404417e+16
5.2418347714399e+16
5.2111128654325e+16
5.18000347048938e+16
5.14850550770561e+16
5.11661778129072e+16
5.08433893746073e+16
5.05166754761518e+16
5.01860218330722e+16
4.98514143346367e+16
4.95128390838829e+16
4.91702824081467e+16
4.88237308601387e+16
4.84731712162711e+16
4.81185904739672e+16
4.77599758484057e+16
4.73973147688073e+16
4.70305948742633e+16
4.66598040090822e+16
4.62849302176109e+16
4.59059617384929e+16
4.55228869983136e+16
4.51356946045745e+16
4.47443733379485e+16
4.43489121437583e+16
4.39493001226088e+16
4.35455265201058e+16
4.31375807155946e+16
4.2725452209831e+16
4.23091306115022e+16
4.18886056225041e+16
4.14638670218725e+16
4.10349046482654e+16
4.06017083808681e+16
4.01642681185918e+16
3.97225737574326e+16
3.92766151658251e+16
3.8826382157823e+16
3.83718644639265e+16
3.79130516993484e+16
3.74499333294934e+16
3.69824986324095e+16
3.65107366579408e+16
3.6034636183283e+16
3.5554185664622e+16
3.50693731844994e+16
3.45801863945087e+16
3.40866124529007e+16
3.358863795663e+16
3.30862488673276e+16
3.25794304306484e+16
3.20681670883912e+16
3.15524423827361e+16
3.10322388519099e+16
3.05075379165251e+16
2.99783197558185e+16
2.94445631730542e+16
2.89062454489574e+16
2.8363342182988e+16
2.78158271211019e+16
2.72636719698559e+16
2.67068461932644e+16
2.61453168049918e+16
2.55790481313463e+16
2.50080015602242e+16
2.44321353185956e+16
2.38514042004053e+16
2.32657591710031e+16
2.26751472859845e+16
2.20795114169601e+16
2.14787882651078e+16
2.08729083000383e+16
2.02617948897376e+16
1.96453672818348e+16
1.90235318736454e+16
1.83961796385233e+16
1.77631291624828e+16
1.71239624534154e+16
1.64780800722002e+16
1.58249583109905e+16
1.51642069008307e+16
1.44954768035401e+16
1.38183718483489e+16
1.31324562485206e+16
1.24373399764248e+16
1.17328299678578e+16
1.10193146215361e+16
1.02978271266468e+16
9.569726739185e+15
8.83706720826837e+15
8.10301798349151e+15
7.37151586127821e+15
6.64728018875086e+15
5.93617690410592e+15
5.24476438009552e+15
4.58006012930626e+15
3.94942673103657e+15
3.3597889562772e+15
2.81725312467707e+15
2.32680984573304e+15
1.89170836119645e+15
1.51324961370738e+15
1.19084374691281e+15
922038552831722
702794461285782
527759262823358
390885960617120
286145740641821
207481292904947
149267220197587
105614809283365
72828390389674.9
49258564968097.1
32411775077307.2
20397924764548.7
12355554928113.3
7407553715962.3
4587498242474.03
3046240753104.09
2206611031129.1
1739487548553.77
1472316387031.47
1316297060051.25
1224263174102.26
1170367519308.73
1139909001170.22
1123977047351.13
1116863197956.97
1114791982389.94
1115316447970.41
1117025392308.16
1118794902235.49
1119787555910.08
1119656472700.17
1118036855991.86
1114745461129.3
1109694754857.08
1102870301678.9
1094308374925.58
1084081196784.08
1072286492900.67
1059039638605.27
1044467559598.06
1028703935724.13
1011885408363.6
994148584701.272
975627666455.632
956452628924.477
936747521110.187
916629574998.75
896202790079.517
875557000661.418
854782416246.401
833969998609.403
813203413653.446
792558480851.599
772102437002.233
751894269688.75
731985099754.844
712418662398.956
693231814605.769
674455058951.87
656113076690.311
638225246433.302
620806255348.155
603866526829.761
587414579186.087
571452752866.207
555976915548.692
540985352638.648
526475501399.977
512440726902.106
498873015219.826
485763034465.348
473100465011.84
460874208374.937
449072736225.836
437684433037.722
426697591136.4
416100309197.039
405880299179.436
396024850392.277
386515911029.957
377328914376.999
368445839398.225
359856851882.811
351553192030.321
343527042062.81
335771153213.044
328278901103.101
321044342786.986
314062258024.232
307328273064.65
300837930095.745
294586857261.618
288549056898.109
282694069486.927
277021694422.463
271546232450.977
266284173439.236
261250125565.358
256409576818.168
251746781473.495
247318374850.531
243147239366.092
239255133787.896
235734166113.553
232719055545.529
230486923824.239
229534393772.231
230695498912.877
)
;

boundaryField
{
    electrode
    {
        type            driftDiffusionElectronDensity;
        seec            0.05;
        Edepend         1;
        field_emission  0;
        field_enhancement_factor 55;
        work_function   5;
        value           uniform 6.55933352878758e+16;
    }
    ground
    {
        type            driftDiffusionElectronDensity;
        seec            0.05;
        Edepend         1;
        field_emission  0;
        field_enhancement_factor 55;
        work_function   5;
        value           uniform 232934489747.956;
    }
    otherfaces
    {
        type            empty;
    }
}


// ************************************************************************* //
