/*--------------------------------*- C++ -*----------------------------------*\
| =========                 |                                                 |
| \\      /  F ield         | foam-extend: Open Source CFD                    |
|  \\    /   O peration     | Version:     4.0                                |
|   \\  /    A nd           | Web:         http://www.foam-extend.org         |
|    \\/     M anipulation  |                                                 |
\*---------------------------------------------------------------------------*/
FoamFile
{
    version     2.0;
    format      ascii;
    class       volVectorField;
    location    "7.5e-06";
    object      J_electron;
}
// * * * * * * * * * * * * * * * * * * * * * * * * * * * * * * * * * * * * * //

dimensions      [1 -1 -1 0 0 0 0];

internalField   nonuniform List<vector> 
300
(
(-1.33028563974322e+19 0 0)
(-1.36534508715714e+19 0 0)
(-1.61350697329902e+19 0 0)
(-1.56405744070306e+19 0 0)
(-1.56384526074406e+19 0 0)
(-1.56241653752509e+19 0 0)
(-1.55591217183147e+19 0 0)
(-1.55102233719236e+19 0 0)
(-1.54589029918558e+19 0 0)
(-1.54069224703263e+19 0 0)
(-1.53552902737314e+19 0 0)
(-1.53035202656639e+19 0 0)
(-1.52517048595341e+19 0 0)
(-1.51998470030684e+19 0 0)
(-1.51479331376314e+19 0 0)
(-1.50959627687998e+19 0 0)
(-1.50439320659883e+19 0 0)
(-1.49918373543245e+19 0 0)
(-1.49396751870476e+19 0 0)
(-1.4887442053845e+19 0 0)
(-1.48351345065119e+19 0 0)
(-1.47827490640786e+19 0 0)
(-1.47302823783563e+19 0 0)
(-1.46777310048152e+19 0 0)
(-1.46250916374772e+19 0 0)
(-1.45723609107138e+19 0 0)
(-1.45195355669631e+19 0 0)
(-1.44666123491419e+19 0 0)
(-1.44135880353343e+19 0 0)
(-1.43604594171129e+19 0 0)
(-1.43072234264996e+19 0 0)
(-1.42538768818626e+19 0 0)
(-1.42004167790281e+19 0 0)
(-1.41468400786394e+19 0 0)
(-1.40931438018898e+19 0 0)
(-1.40393250607094e+19 0 0)
(-1.39853809389092e+19 0 0)
(-1.39313086389476e+19 0 0)
(-1.38771053856505e+19 0 0)
(-1.38227684312952e+19 0 0)
(-1.37682951505373e+19 0 0)
(-1.37136828900513e+19 0 0)
(-1.36589291479061e+19 0 0)
(-1.36040313837849e+19 0 0)
(-1.35489871594358e+19 0 0)
(-1.34937941622899e+19 0 0)
(-1.34384500199902e+19 0 0)
(-1.33829525176459e+19 0 0)
(-1.33272994648553e+19 0 0)
(-1.32714887753976e+19 0 0)
(-1.32155184030653e+19 0 0)
(-1.31593863240858e+19 0 0)
(-1.31030907190436e+19 0 0)
(-1.30466297223688e+19 0 0)
(-1.29900015844057e+19 0 0)
(-1.29332046149782e+19 0 0)
(-1.2876237207663e+19 0 0)
(-1.28190978798794e+19 0 0)
(-1.27617851136163e+19 0 0)
(-1.27042975868657e+19 0 0)
(-1.26466339738634e+19 0 0)
(-1.25887930784421e+19 0 0)
(-1.25307737371472e+19 0 0)
(-1.24725748833759e+19 0 0)
(-1.24141955765835e+19 0 0)
(-1.23556348586135e+19 0 0)
(-1.22968919689829e+19 0 0)
(-1.22379660956368e+19 0 0)
(-1.21788566039046e+19 0 0)
(-1.21195628914462e+19 0 0)
(-1.20600844425662e+19 0 0)
(-1.2000420791417e+19 0 0)
(-1.19405715781973e+19 0 0)
(-1.18805364923577e+19 0 0)
(-1.18203152995239e+19 0 0)
(-1.17599078397182e+19 0 0)
(-1.16993139802817e+19 0 0)
(-1.16385336941344e+19 0 0)
(-1.15775669467721e+19 0 0)
(-1.15164138716015e+19 0 0)
(-1.14550746020373e+19 0 0)
(-1.13935492936531e+19 0 0)
(-1.13318376788764e+19 0 0)
(-1.12699395270975e+19 0 0)
(-1.12078572509573e+19 0 0)
(-1.11455954644432e+19 0 0)
(-1.1083150050608e+19 0 0)
(-1.10204933198347e+19 0 0)
(-1.09576080662646e+19 0 0)
(-1.0894621063942e+19 0 0)
(-1.08317946657191e+19 0 0)
(-1.07687881364037e+19 0 0)
(-1.07037028777989e+19 0 0)
(-1.0635493894568e+19 0 0)
(-1.05680530897125e+19 0 0)
(-1.05031547957066e+19 0 0)
(-1.04386462580379e+19 0 0)
(-1.03740219962824e+19 0 0)
(-1.03091822314007e+19 0 0)
(-1.02440946710982e+19 0 0)
(-1.01787514087701e+19 0 0)
(-1.01131506139026e+19 0 0)
(-1.0047291882678e+19 0 0)
(-9.98117498756006e+18 0 0)
(-9.91479948441131e+18 0 0)
(-9.84816459122213e+18 0 0)
(-9.78126909556444e+18 0 0)
(-9.71411134490188e+18 0 0)
(-9.64668919905937e+18 0 0)
(-9.57899995643275e+18 0 0)
(-9.51104030914432e+18 0 0)
(-9.44280636093524e+18 0 0)
(-9.37429345474445e+18 0 0)
(-9.30549620449844e+18 0 0)
(-9.23640835617797e+18 0 0)
(-9.1670227984654e+18 0 0)
(-9.09733134717996e+18 0 0)
(-9.02732480467855e+18 0 0)
(-8.95699271180511e+18 0 0)
(-8.88632335471582e+18 0 0)
(-8.81530357908819e+18 0 0)
(-8.74391860933191e+18 0 0)
(-8.67215199533846e+18 0 0)
(-8.59998538328493e+18 0 0)
(-8.52739827601768e+18 0 0)
(-8.45436792754982e+18 0 0)
(-8.38086903079266e+18 0 0)
(-8.30687346606893e+18 0 0)
(-8.23235001805387e+18 0 0)
(-8.15726403963742e+18 0 0)
(-8.0815770664399e+18 0 0)
(-8.00524640820291e+18 0 0)
(-7.92822472048535e+18 0 0)
(-7.85045939976615e+18 0 0)
(-7.77189203526183e+18 0 0)
(-7.69245778058622e+18 0 0)
(-7.61208449734699e+18 0 0)
(-7.53069199516919e+18 0 0)
(-7.44819101852133e+18 0 0)
(-7.36448216133376e+18 0 0)
(-7.27945460475494e+18 0 0)
(-7.19298478900511e+18 0 0)
(-7.10493460602395e+18 0 0)
(-7.01514990345205e+18 0 0)
(-6.92345838747569e+18 0 0)
(-6.82966550810775e+18 0 0)
(-6.73355779832231e+18 0 0)
(-6.6348883751899e+18 0 0)
(-6.53338977785768e+18 0 0)
(-6.42873744363094e+18 0 0)
(-6.32065006506397e+18 0 0)
(-6.20861046188094e+18 0 0)
(-6.09230565349523e+18 0 0)
(-5.97130744464146e+18 0 0)
(-5.84481598988406e+18 0 0)
(-5.711898168378e+18 0 0)
(-5.57356796094815e+18 0 0)
(-5.4264328842914e+18 0 0)
(-5.26414490101927e+18 0 0)
(-5.09936146616785e+18 0 0)
(-4.9134653991142e+18 0 0)
(-4.73918323192811e+18 0 0)
(-4.48798642606283e+18 0 0)
(-4.26850767179822e+18 0 0)
(-3.72050290204475e+18 0 0)
(-2.68452855120029e+18 0 0)
(-2.27780787326419e+18 0 0)
(-2.33685406782797e+18 0 0)
(-2.13562458727619e+18 0 0)
(-1.68400956151457e+18 0 0)
(-9.53333105808114e+17 0 0)
(-3.60888535310402e+17 0 0)
(1.75541226498425e+17 0 0)
(3.06327641774883e+17 0 0)
(-6.87124110907539e+17 0 0)
(-7.31470916659184e+17 0 0)
(-3.7804028468396e+16 0 0)
(-1.38982956636989e+18 0 0)
(-2.52318353165648e+18 0 0)
(-2.23447072701415e+18 0 0)
(-3.19572636718019e+18 0 0)
(-4.60517207000272e+18 0 0)
(-3.90551064514186e+18 0 0)
(-4.40796408491645e+18 0 0)
(-3.90153808081794e+18 0 0)
(-1.69949762791617e+18 0 0)
(-1.2789718216029e+17 0 0)
(2.30418529796699e+18 0 0)
(5.63572093934318e+18 0 0)
(8.27140791095211e+18 0 0)
(1.0538871942375e+19 0 0)
(1.24157861400423e+19 0 0)
(1.31971161626572e+19 0 0)
(1.37364811479801e+19 0 0)
(1.24142771512851e+19 0 0)
(1.01218285103601e+19 0 0)
(9.09290142862384e+18 0 0)
(6.22950319762814e+18 0 0)
(8.21457349980822e+18 0 0)
(-1.05218211921723e+17 0 0)
(-9.23036546369356e+17 0 0)
(1.1463696663784e+18 0 0)
(-1.94475120228991e+18 0 0)
(-2.14496314570943e+18 0 0)
(-2.06465180728179e+18 0 0)
(-2.09700537274233e+18 0 0)
(-2.32722439649853e+18 0 0)
(-2.61515411682126e+18 0 0)
(-2.82642021318139e+18 0 0)
(-2.94045484604861e+18 0 0)
(-2.98667098852581e+18 0 0)
(-2.98754205457147e+18 0 0)
(-2.97345980081061e+18 0 0)
(-2.94256883646445e+18 0 0)
(-2.90748915849654e+18 0 0)
(-2.87057770141675e+18 0 0)
(-2.82844663433087e+18 0 0)
(-2.78302469533483e+18 0 0)
(-2.73675053637873e+18 0 0)
(-2.69002086313026e+18 0 0)
(-2.64355490330048e+18 0 0)
(-2.59627774802163e+18 0 0)
(-2.54935031701029e+18 0 0)
(-2.50166907827536e+18 0 0)
(-2.45396669870772e+18 0 0)
(-2.40626710116961e+18 0 0)
(-2.35869575555436e+18 0 0)
(-2.31135770366863e+18 0 0)
(-2.26434481427821e+18 0 0)
(-2.21773968720734e+18 0 0)
(-2.17161774775549e+18 0 0)
(-2.12604720148535e+18 0 0)
(-2.08108943312726e+18 0 0)
(-2.03679887633172e+18 0 0)
(-1.99322316901026e+18 0 0)
(-1.9504040256843e+18 0 0)
(-1.90837260756043e+18 0 0)
(-1.86716675562072e+18 0 0)
(-1.82673569082235e+18 0 0)
(-1.78722661914452e+18 0 0)
(-1.74870125834838e+18 0 0)
(-1.710966466799e+18 0 0)
(-1.67412818158643e+18 0 0)
(-1.63817192626607e+18 0 0)
(-1.60310810856569e+18 0 0)
(-1.56893071571514e+18 0 0)
(-1.53563248276777e+18 0 0)
(-1.50320281198292e+18 0 0)
(-1.47162907694999e+18 0 0)
(-1.44089668791601e+18 0 0)
(-1.4109896513122e+18 0 0)
(-1.38189037356498e+18 0 0)
(-1.35358189138235e+18 0 0)
(-1.32604166285145e+18 0 0)
(-1.29927630793251e+18 0 0)
(-1.27316482600889e+18 0 0)
(-1.24783116875812e+18 0 0)
(-1.22322152255627e+18 0 0)
(-1.19920464879739e+18 0 0)
(-1.1758659083833e+18 0 0)
(-1.15314989071259e+18 0 0)
(-1.1310431968898e+18 0 0)
(-1.10952474732325e+18 0 0)
(-1.08857574250369e+18 0 0)
(-1.06817904998446e+18 0 0)
(-1.04831511965582e+18 0 0)
(-1.02896371564139e+18 0 0)
(-1.01010911195277e+18 0 0)
(-9.91732212613762e+17 0 0)
(-9.73821053647434e+17 0 0)
(-9.56300381024463e+17 0 0)
(-9.39255855740194e+17 0 0)
(-9.22734662100216e+17 0 0)
(-9.06535975051539e+17 0 0)
(-8.90734230607787e+17 0 0)
(-8.75309350555701e+17 0 0)
(-8.60254725231023e+17 0 0)
(-8.45558439697838e+17 0 0)
(-8.31209741195963e+17 0 0)
(-8.17197116747234e+17 0 0)
(-8.03511302106512e+17 0 0)
(-7.90129924250233e+17 0 0)
(-7.77065573345001e+17 0 0)
(-7.64076881525271e+17 0 0)
(-7.51793539039403e+17 0 0)
(-7.39742229004238e+17 0 0)
(-7.27899232346474e+17 0 0)
(-7.16313961130307e+17 0 0)
(-7.05001078679467e+17 0 0)
(-6.93585965031012e+17 0 0)
(-6.83373835266282e+17 0 0)
(-6.72971342694692e+17 0 0)
(-6.62535762045773e+17 0 0)
(-6.52956677191275e+17 0 0)
(-6.43609406549468e+17 0 0)
(-6.34486207670125e+17 0 0)
(-6.2629104422167e+17 0 0)
(-6.19116498612491e+17 0 0)
(-6.12747877287249e+17 0 0)
(-6.01896422129026e+17 0 0)
)
;

boundaryField
{
    electrode
    {
        type            calculated;
        value           uniform (-1.58993661445386e+19 0 0);
    }
    ground
    {
        type            calculated;
        value           uniform (-5.99252427027578e+17 0 0);
    }
    otherfaces
    {
        type            empty;
    }
}


// ************************************************************************* //
