/*--------------------------------*- C++ -*----------------------------------*\
| =========                 |                                                 |
| \\      /  F ield         | foam-extend: Open Source CFD                    |
|  \\    /   O peration     | Version:     4.0                                |
|   \\  /    A nd           | Web:         http://www.foam-extend.org         |
|    \\/     M anipulation  |                                                 |
\*---------------------------------------------------------------------------*/
FoamFile
{
    version     2.0;
    format      ascii;
    class       volScalarField;
    location    "7.5e-06";
    object      Phi;
}
// * * * * * * * * * * * * * * * * * * * * * * * * * * * * * * * * * * * * * //

dimensions      [0 0 0 1 0 0 0];

internalField   nonuniform List<scalar> 
300
(
699.999927800796
699.999710735846
699.999199315799
699.998426483907
699.997400625474
699.996116367352
699.994574581483
699.992774831962
699.990716553425
699.988399252918
699.985822340755
699.982985174856
699.979887058347
699.976527236282
699.972904896493
699.969019168978
699.964869125439
699.960453778845
699.955772082925
699.95082293165
699.945605158674
699.940117536757
699.934358777145
699.928327528922
699.922022378337
699.915441848087
699.908584396576
699.901448417136
699.894032237212
699.886334117515
699.878352251136
699.870084762625
699.861529707026
699.852685068885
699.843548761203
699.834118624356
699.824392424975
699.814367854773
699.804042529336
699.793413986861
699.78247968685
699.771237008749
699.759683250544
699.747815627294
699.735631269617
699.723127222112
699.710300441727
699.697147796063
699.683666061612
699.669851921932
699.655701965753
699.641212685001
699.626380472766
699.611201621169
699.595672319162
699.579788650243
699.563546590069
699.54694200399
699.529970644477
699.512628148449
699.494910034494
699.476811699981
699.458328418048
699.439455334474
699.420187464413
699.400519689006
699.380446751835
699.359963255241
699.339063656475
699.317742263695
699.295993231776
699.27381055795
699.251188077246
699.228119457732
699.20459819554
699.180617609673
699.156170836566
699.13125082441
699.105850327197
699.079961898504
699.053577884967
699.026690419459
698.999291413941
698.971372551963
698.942925280746
698.913940802857
698.884410067733
698.854323763111
698.823672305309
698.792445826127
698.76063415878
698.728226838723
698.695213126858
698.661581980065
698.627321850238
698.592420530242
698.556865380369
698.520643375458
698.483741086125
698.446144661343
698.407839809781
698.368811779766
698.329045338059
698.288524747397
698.247233742699
698.20515550588
698.162272639138
698.118567136627
698.074020354379
698.028612978355
697.982324990473
697.935135632456
697.88702336734
697.837965838437
697.787939825567
697.736921198323
697.684884866134
697.631804724843
697.577653599521
697.522403183183
697.466023971038
697.408485189907
697.349754722338
697.289799024953
697.228583040497
697.166070102975
697.102221835235
697.036998038251
696.970356571292
696.90225322205
696.832641565722
696.761472811872
696.688695637804
696.614256006979
696.53809697085
696.460158452259
696.380377008305
696.29868557032
696.215013158233
696.129284566276
696.041420016509
695.951334776147
695.858938734096
695.7641359314
695.666824039469
695.566893779108
695.464228272085
695.358702315595
695.25018156943
695.138521640983
695.023567055708
694.905150090018
694.783089464489
694.657188814915
694.527235024307
694.392996261363
694.254219705078
694.110628918005
693.961921320128
693.80776390446
693.647788477297
693.481589053874
693.308712514704
693.128661476853
692.940864650242
692.744709835721
692.539383869213
692.323834268043
692.096967972745
691.857587915897
691.604334201631
691.335593958484
691.049415541626
690.743543952024
690.415270115582
690.061655296625
689.679765765812
689.265840833511
688.815535290735
688.324756930469
687.788717138764
687.201833345004
686.559109432206
685.854930517915
685.083072001051
684.238513824595
683.315680710093
682.308938730501
681.214248386067
680.027517541565
678.744789302161
677.36364395396
675.882177007611
674.298840969658
672.612275565598
670.822788871735
668.930598110244
666.936203701792
664.839862014306
662.641950257757
660.342930982305
657.943469983096
655.442871258793
652.840450744487
650.135305519144
647.327317920321
644.416763515803
641.404367251466
638.291065032573
635.077847684269
631.765693005476
628.35551893286
624.848165984464
621.244380979754
617.545183906371
613.751628742091
609.864692511376
605.885251624216
601.814116997687
597.652010164641
593.399598356436
589.057468971437
584.62616531513
580.106159685939
575.497888608516
570.801724560042
566.018311516566
561.148250434811
556.192127836935
551.150466246322
546.023780350101
540.812525565442
535.517154967444
530.138066029582
524.67565845104
519.130279141764
513.502281015986
507.791966418448
501.999646864508
496.125585065007
490.170055528454
484.133285336253
478.015567885432
471.817310859797
465.538934075614
459.180813951327
452.743340919014
446.226863084671
439.631744239875
432.958306739776
426.206890138109
419.377793160996
412.471333092348
405.487786753738
398.427450753623
391.290581445593
384.077456107921
376.78831195207
369.423408092619
361.982963727318
354.467220865239
346.876381733216
339.210672101296
331.470278052778
323.655409798968
315.766237891659
307.803053748939
299.766148462743
291.655839739858
283.472403285435
275.216142301057
266.887318022485
258.486220030039
250.01309592329
241.468222468868
232.851834441901
224.164196520513
215.405531383977
206.576092253023
197.676090287395
188.705767726891
179.665324649406
170.55499275918
161.374961486622
152.125452480116
142.806645167099
133.418751828592
123.961942435491
114.436420307406
104.842346389732
95.1799153667035
85.4492795540145
75.6506257253346
65.7840982525885
55.8498763096313
45.8480969033073
35.7789326180122
25.6425137569227
15.439007563691
5.16853860122152
)
;

boundaryField
{
    electrode
    {
        type            fixedValue;
        value           uniform 700;
    }
    ground
    {
        type            fixedValue;
        value           uniform 0;
    }
    otherfaces
    {
        type            empty;
    }
}


// ************************************************************************* //
