/*--------------------------------*- C++ -*----------------------------------*\
| =========                 |                                                 |
| \\      /  F ield         | foam-extend: Open Source CFD                    |
|  \\    /   O peration     | Version:     4.0                                |
|   \\  /    A nd           | Web:         http://www.foam-extend.org         |
|    \\/     M anipulation  |                                                 |
\*---------------------------------------------------------------------------*/
FoamFile
{
    version     2.0;
    format      ascii;
    class       volScalarField;
    location    "7.5e-06";
    object      TeMean;
}
// * * * * * * * * * * * * * * * * * * * * * * * * * * * * * * * * * * * * * //

dimensions      [0 0 0 1 0 0 0];

internalField   nonuniform List<scalar> 
300
(
35980.7666229344
35981.0594386626
35981.1942856312
35981.2067883223
35981.243923268
35981.2843676713
35981.3310743811
35981.3867059242
35981.4511843517
35981.5250922165
35981.6089134366
35981.7030997746
35981.8081007321
35981.9243385238
35982.0522235197
35982.1921530439
35982.3445101565
35982.5096677537
35982.6879881788
35982.8798230678
35983.0855157312
35983.3053993716
35983.5397991307
35983.7890314843
35984.0534039071
35984.3332242717
35984.6287946365
35984.9404090054
35985.2683606748
35985.6129323409
35985.974395019
35986.3530289817
35986.7491216982
35987.162951127
35987.5947905282
35988.0449050659
35988.5135586838
35989.0010216927
35989.5075633709
35990.0334481569
35990.578937371
35991.1442989289
35991.7298004321
35992.3357068214
35992.9622834284
35993.6097957967
35994.2785093492
35994.968688653
35995.6805947375
35996.4144850771
35997.1706138358
35997.9492444743
35998.7506569033
35999.5751319174
36000.4229553906
36001.2944234474
36002.1898290575
36003.1094638285
36004.053629156
36005.022630954
36006.0167784259
36007.0363919171
36008.0817823748
36009.1532601951
36010.2511654707
36011.3758554618
36012.52768891
36013.7070278896
36014.9142411431
36016.1497084278
36017.4138138182
36018.7069384344
36020.0294827867
36021.3818637791
36022.7644966754
36024.1777974592
36025.6222068577
36027.0981970305
36028.6062391125
36030.1468086188
36031.720415022
36033.3275847174
36034.9688426811
36036.644719194
36038.3557585459
36040.1025387485
36041.885668062
36043.7057617881
36045.5634447242
36047.4593682947
36049.3941923568
36051.3685957401
36053.3833174233
36055.439103036
36057.5367086133
36059.6769334693
36061.8605977736
36064.0885511945
36066.3616681109
36068.6808556896
36071.0470675389
36073.4612659961
36075.9244453532
36078.4376654779
36081.0020198143
36083.6186356815
36086.2886781923
36089.0133583673
36091.7939446673
36094.6317522872
36097.5281481606
36100.4845514089
36103.502430772
36106.5833326735
36109.7288577896
36112.9406613979
36116.2204650683
36119.5700829873
36122.9914263388
36126.48645523
36130.0572116601
36133.7058412347
36137.4345829918
36141.2457952217
36145.1419675038
36149.1256928095
36153.1996683639
36157.3667417689
36161.6299167888
36165.9923297831
36170.4572765399
36175.0282439859
36179.7089177523
36184.5031486331
36189.4149951712
36194.4488077334
36199.6092080004
36204.9010821274
36210.3296167017
36215.900334745
36221.6191252296
36227.4922672955
36233.5264645732
36239.7288790279
36246.1072129178
36252.6697900519
36259.425596422
36266.3843564143
36273.5565551962
36280.9535669228
36288.5878459438
36296.4729771861
36304.6238306987
36313.0568309482
36321.7900307316
36330.8434641915
36340.239367177
36350.0029092491
36360.1626686872
36370.7529613403
36381.8231402851
36393.4367219348
36405.6538484033
36418.5351407766
36432.1595899644
36446.6055902983
36461.9374953371
36478.2482739266
36495.677570425
36514.3680269321
36534.4190896367
36555.9209239831
36578.9942143136
36603.6718273435
36629.9971598125
36658.2454721014
36688.610827308
36721.2250222212
36756.764410858
36796.3091531734
36841.2953948362
36894.4713819474
36960.181168368
37044.6521235127
37157.6913942671
37313.8368316588
37533.9221284524
37849.0121937793
38305.3414797645
38972.1197620977
39955.5558365647
41422.7533670134
43642.5946966694
47128.0134626567
52399.9785864493
59826.9733122245
70616.8048607139
85380.4401766714
105253.84996022
130589.228937385
161488.340492031
197590.13452657
237937.493650302
281732.692260104
328472.830086351
377545.871464389
427901.552972116
477890.609775774
525716.181687267
569985.071100749
609941.374312653
645432.863308925
676696.372112201
704178.566553266
728378.334902343
749768.559959205
768808.562790912
785896.257902835
801352.661332572
815439.988874656
828366.501504943
840303.841345221
851405.32491556
861797.267248699
871583.183536133
880847.525630975
889659.999646272
898077.853562392
906147.920405023
913908.346713662
921389.920466511
928617.156164969
935609.1762934
942380.372749776
948941.044795891
955297.954670996
961454.70106027
967412.102607865
973168.508926732
978720.286240508
984061.262471517
989183.141024606
994076.63298425
998731.25230333
1003135.33803003
1007276.12245047
1011139.63677732
1014711.02178899
1017974.7458874
1020914.38428602
1023513.29180725
1025754.47372057
1027620.23460274
1029092.48808272
1030152.51173304
1030781.3356416
1030954.43437711
1030662.84714932
1029885.79262146
1028601.13906893
1026788.77806374
1024428.49718836
1021500.01556454
1017982.83639859
1013856.20538163
1009099.39462282
1003691.04843307
997609.286190343
990832.458030948
983338.381825967
975104.394340446
966106.461063551
956320.042556311
945720.474016612
934281.302862523
921974.57183665
908770.850870588
894639.062575191
879546.309414132
863457.600782856
846335.70713647
828140.97033045
808834.392477185
788372.457856547
766701.181875015
743765.491907591
719504.15645952
693842.018309962
666702.834473637
638000.82779486
607627.844141189
575460.813910978
541363.584741013
505153.102123075
466607.587247882
425448.105790331
381282.602699015
333569.875057498
281520.309384731
224092.955967903
)
;

boundaryField
{
    electrode
    {
        type            calculated;
        value           uniform 35980.766622936;
    }
    ground
    {
        type            calculated;
        value           uniform 191526.575267209;
    }
    otherfaces
    {
        type            empty;
    }
}


// ************************************************************************* //
