/*--------------------------------*- C++ -*----------------------------------*\
| =========                 |                                                 |
| \\      /  F ield         | foam-extend: Open Source CFD                    |
|  \\    /   O peration     | Version:     4.0                                |
|   \\  /    A nd           | Web:         http://www.foam-extend.org         |
|    \\/     M anipulation  |                                                 |
\*---------------------------------------------------------------------------*/
FoamFile
{
    version     2.0;
    format      ascii;
    class       volScalarField;
    location    "4e-07";
    object      Ar;
}
// * * * * * * * * * * * * * * * * * * * * * * * * * * * * * * * * * * * * * //

dimensions      [0 0 0 1 0 0 0];

internalField   nonuniform List<scalar> 
300
(
3.21880304779778e+22
3.21880304445682e+22
3.21880304794896e+22
3.21880304875335e+22
3.21880305119738e+22
3.21880305439629e+22
3.21880305809837e+22
3.21880306259079e+22
3.21880306780769e+22
3.21880307373666e+22
3.21880308039664e+22
3.21880308779225e+22
3.21880309592968e+22
3.21880310481489e+22
3.21880311445391e+22
3.21880312485224e+22
3.21880313601504e+22
3.21880314794624e+22
3.21880316064887e+22
3.21880317412517e+22
3.21880318837624e+22
3.21880320340208e+22
3.21880321920167e+22
3.2188032357724e+22
3.21880325311271e+22
3.21880327121639e+22
3.21880329007784e+22
3.21880330969043e+22
3.2188033300454e+22
3.2188033511335e+22
3.21880337294702e+22
3.21880339547442e+22
3.21880341870277e+22
3.21880344261995e+22
3.21880346721305e+22
3.2188034924687e+22
3.2188035183736e+22
3.2188035449134e+22
3.21880357207337e+22
3.21880359983892e+22
3.21880362819536e+22
3.21880365712757e+22
3.21880368662067e+22
3.2188037166597e+22
3.21880374722981e+22
3.21880377831623e+22
3.21880380990459e+22
3.21880384198053e+22
3.21880387453103e+22
3.21880390754217e+22
3.21880394100215e+22
3.21880397489594e+22
3.21880400921158e+22
3.21880404393417e+22
3.21880407905078e+22
3.21880411454749e+22
3.21880415041222e+22
3.21880418663321e+22
3.21880422319902e+22
3.2188042600988e+22
3.21880429732154e+22
3.21880433485711e+22
3.21880437269565e+22
3.21880441082973e+22
3.21880444924988e+22
3.21880448794442e+22
3.21880452690498e+22
3.21880456612315e+22
3.21880460559094e+22
3.21880464530098e+22
3.21880468524609e+22
3.21880472542029e+22
3.2188047658176e+22
3.21880480643096e+22
3.21880484725618e+22
3.21880488828808e+22
3.2188049295206e+22
3.21880497095052e+22
3.21880501257039e+22
3.2188050543809e+22
3.21880509637424e+22
3.21880513854755e+22
3.2188051808989e+22
3.21880522342548e+22
3.21880526612752e+22
3.21880530900295e+22
3.21880535204992e+22
3.21880539526812e+22
3.21880543865917e+22
3.2188054822235e+22
3.21880552596216e+22
3.21880556988306e+22
3.21880561398221e+22
3.21880565826319e+22
3.21880570272998e+22
3.21880574738703e+22
3.21880579223994e+22
3.21880583729476e+22
3.21880588255956e+22
3.21880592804206e+22
3.21880597375063e+22
3.2188060196939e+22
3.21880606588657e+22
3.21880611233653e+22
3.2188061590573e+22
3.21880620606404e+22
3.21880625336924e+22
3.21880630099156e+22
3.21880634894693e+22
3.21880639725334e+22
3.21880644593121e+22
3.218806495002e+22
3.2188065444894e+22
3.21880659441854e+22
3.21880664481539e+22
3.2188066957099e+22
3.21880674713389e+22
3.21880679911621e+22
3.21880685169087e+22
3.21880690489377e+22
3.21880695876644e+22
3.21880701334661e+22
3.21880706868043e+22
3.21880712481144e+22
3.21880718178597e+22
3.21880723965379e+22
3.21880729847093e+22
3.21880735829033e+22
3.21880741917141e+22
3.21880748117516e+22
3.21880754436682e+22
3.2188076088133e+22
3.218807674585e+22
3.218807741756e+22
3.21880781040604e+22
3.21880788061087e+22
3.21880795245089e+22
3.21880802601174e+22
3.21880810138173e+22
3.21880817864784e+22
3.21880825790201e+22
3.21880833923842e+22
3.21880842275445e+22
3.21880850854791e+22
3.21880859671868e+22
3.21880868736092e+22
3.21880878057322e+22
3.21880887645513e+22
3.21880897510415e+22
3.21880907662037e+22
3.21880918109626e+22
3.21880928862171e+22
3.21880939929144e+22
3.21880951318677e+22
3.2188096303868e+22
3.21880975096828e+22
3.21880987499863e+22
3.21881000253586e+22
3.21881013362991e+22
3.21881026832293e+22
3.2188104066388e+22
3.21881054858761e+22
3.21881069423729e+22
3.21881084349469e+22
3.21881099615064e+22
3.21881115241966e+22
3.21881131289233e+22
3.21881147674694e+22
3.21881164128275e+22
3.21881180807617e+22
3.21881197968778e+22
3.21881215429998e+22
3.21881232879659e+22
3.21881250270253e+22
3.21881268216463e+22
3.21881286261049e+22
3.21881303953653e+22
3.21881322090739e+22
3.21881339707593e+22
3.21881357171017e+22
3.21881374046487e+22
3.21881390265816e+22
3.21881405689411e+22
3.21881419645809e+22
3.21881433482837e+22
3.21881444557185e+22
3.21881453771161e+22
3.21881463804559e+22
3.21881471496145e+22
3.21881476271046e+22
3.2188148072799e+22
3.21881484878107e+22
3.21881487859676e+22
3.21881490342017e+22
3.21881492167104e+22
3.21881493475412e+22
3.21881494965428e+22
3.2188149587499e+22
3.21881496414586e+22
3.21881497347566e+22
3.21881498586717e+22
3.21881499372615e+22
3.21881499928792e+22
3.2188150062215e+22
3.21881501091355e+22
3.21881501616051e+22
3.21881502506808e+22
3.21881503607079e+22
3.21881504678544e+22
3.21881505487754e+22
3.21881506314827e+22
3.21881507098572e+22
3.21881507667518e+22
3.2188150838022e+22
3.21881509105467e+22
3.2188150971884e+22
3.2188151055815e+22
3.2188151156185e+22
3.2188151252784e+22
3.21881513465084e+22
3.21881514361484e+22
3.21881515237427e+22
3.21881516081893e+22
3.21881516890355e+22
3.21881517686459e+22
3.2188151844254e+22
3.21881519207154e+22
3.21881519953269e+22
3.21881520720133e+22
3.21881521485715e+22
3.21881522249805e+22
3.21881523033156e+22
3.21881523769403e+22
3.2188152454055e+22
3.21881525346274e+22
3.2188152612401e+22
3.21881526872924e+22
3.21881527595481e+22
3.21881528297299e+22
3.21881528982281e+22
3.21881529654277e+22
3.21881530315526e+22
3.21881530966451e+22
3.21881531607122e+22
3.21881532237117e+22
3.21881532857456e+22
3.21881533468701e+22
3.21881534071071e+22
3.21881534664112e+22
3.2188153524713e+22
3.21881535819571e+22
3.21881536381481e+22
3.21881536933117e+22
3.21881537474824e+22
3.21881538006231e+22
3.21881538527125e+22
3.21881539037098e+22
3.21881539536293e+22
3.21881540024565e+22
3.21881540503022e+22
3.21881540970672e+22
3.2188154142933e+22
3.21881541875461e+22
3.21881542313427e+22
3.2188154273575e+22
3.21881543153316e+22
3.21881543549921e+22
3.21881543948146e+22
3.2188154432006e+22
3.2188154469985e+22
3.2188154504916e+22
3.21881545411207e+22
3.21881545741839e+22
3.21881546090797e+22
3.2188154640593e+22
3.2188154674006e+22
3.21881547035052e+22
3.21881547355227e+22
3.21881547630689e+22
3.21881547936012e+22
3.2188154819323e+22
3.21881548485158e+22
3.21881548723891e+22
3.21881549003165e+22
3.21881549223162e+22
3.21881549490183e+22
3.21881549692414e+22
3.21881549947662e+22
3.21881550132129e+22
3.21881550377414e+22
3.21881550545234e+22
3.21881550780757e+22
3.21881550932184e+22
3.21881551160001e+22
3.21881551295937e+22
3.21881551516142e+22
3.21881551635903e+22
3.21881551848269e+22
3.21881551952132e+22
3.21881552201468e+22
)
;

boundaryField
{
    electrode
    {
        type            zeroGradient;
    }
    ground
    {
        type            zeroGradient;
    }
    otherfaces
    {
        type            empty;
    }
}


// ************************************************************************* //
