/*--------------------------------*- C++ -*----------------------------------*\
| =========                 |                                                 |
| \\      /  F ield         | foam-extend: Open Source CFD                    |
|  \\    /   O peration     | Version:     4.0                                |
|   \\  /    A nd           | Web:         http://www.foam-extend.org         |
|    \\/     M anipulation  |                                                 |
\*---------------------------------------------------------------------------*/
FoamFile
{
    version     2.0;
    format      ascii;
    class       volScalarField;
    location    "4e-07";
    object      Arm;
}
// * * * * * * * * * * * * * * * * * * * * * * * * * * * * * * * * * * * * * //

dimensions      [0 0 0 1 0 0 0];

internalField   nonuniform List<scalar> 
300
(
3.57416895780808e+15
3.576049828894e+15
3.57800006030937e+15
3.57930573669303e+15
3.58012185746415e+15
3.58050029067369e+15
3.58048525431608e+15
3.58010817207e+15
3.57939469804115e+15
3.57836682214612e+15
3.57704030871331e+15
3.57542924470662e+15
3.57354568226779e+15
3.57140022345867e+15
3.56900232483896e+15
3.56636053774674e+15
3.56347966856165e+15
3.56036831313591e+15
3.55703481674218e+15
3.55348565536542e+15
3.54972703048187e+15
3.54576486382533e+15
3.54160484540568e+15
3.53725245865444e+15
3.53269692720867e+15
3.52795608497373e+15
3.52303360731528e+15
3.51793147963346e+15
3.51266334065085e+15
3.50723409412961e+15
3.50162988186755e+15
3.49586212008989e+15
3.48994895979835e+15
3.48389575597688e+15
3.47770759491042e+15
3.47138928811622e+15
3.46494098455894e+15
3.45836921370432e+15
3.45168105393752e+15
3.44488003274371e+15
3.4379696497676e+15
3.43095518850467e+15
3.42384052713744e+15
3.4166293573428e+15
3.4093251794412e+15
3.40193126192857e+15
3.39444854304614e+15
3.38687849316597e+15
3.37921331339347e+15
3.37145163366024e+15
3.36358076786956e+15
3.3556133193956e+15
3.34754380133733e+15
3.33939000756135e+15
3.33116003081348e+15
3.32287029086305e+15
3.3145240596972e+15
3.30612425348818e+15
3.29767344845012e+15
3.28917204873634e+15
3.28062438378293e+15
3.27203257212811e+15
3.263393289774e+15
3.25468848984365e+15
3.24592215140343e+15
3.23711996400063e+15
3.2282839676932e+15
3.21941600228871e+15
3.21051765358273e+15
3.20159028568478e+15
3.19263306250624e+15
3.18363880528781e+15
3.17460596936129e+15
3.16554206992201e+15
3.15643348201982e+15
3.14728128596999e+15
3.1380918619034e+15
3.12886099936638e+15
3.11960885167626e+15
3.11030458955224e+15
3.10098302690689e+15
3.09164622659368e+15
3.08229107998631e+15
3.07291989981546e+15
3.06351777425419e+15
3.05409248848141e+15
3.04465578382724e+15
3.03520798260916e+15
3.02573709994168e+15
3.01625096793834e+15
3.0067436307583e+15
2.99716970833372e+15
2.98758483283873e+15
2.97799052119777e+15
2.96838679876737e+15
2.95877369221406e+15
2.94915098315385e+15
2.93951826297067e+15
2.92986454558943e+15
2.92018978054864e+15
2.91050025735308e+15
2.90079732144667e+15
2.89104898757401e+15
2.8812847155349e+15
2.87149519619766e+15
2.86167102708979e+15
2.8518273696582e+15
2.84194445912698e+15
2.83203280194272e+15
2.82209785523933e+15
2.81213773272813e+15
2.80215015971254e+15
2.79212736986858e+15
2.78206716385192e+15
2.77196735708357e+15
2.76181026407815e+15
2.75157689283866e+15
2.74129220178448e+15
2.73095702899689e+15
2.72056331676365e+15
2.71008454118959e+15
2.69953385526484e+15
2.6888820795808e+15
2.67813969832488e+15
2.66731817679922e+15
2.65641534304532e+15
2.64540291801745e+15
2.634298509833e+15
2.62309120380935e+15
2.6117790113491e+15
2.60034622966053e+15
2.58878901890519e+15
2.5771024277924e+15
2.56526034419552e+15
2.55322615011928e+15
2.5410188652604e+15
2.52864244567544e+15
2.5160717659066e+15
2.50328791653325e+15
2.49030014291425e+15
2.47709240075613e+15
2.46364806954298e+15
2.44993496761182e+15
2.43592097881211e+15
2.42158140372454e+15
2.40693622753682e+15
2.39197050514029e+15
2.37666790222443e+15
2.36099789126408e+15
2.34491139553675e+15
2.32842107503591e+15
2.31150218222212e+15
2.29409221849036e+15
2.27619017883674e+15
2.25777784027791e+15
2.23880538476756e+15
2.21922947692421e+15
2.19904970841742e+15
2.17824695045419e+15
2.15677616052292e+15
2.13460170612554e+15
2.11170859824825e+15
2.08805841121239e+15
2.0636638670581e+15
2.03851200868227e+15
2.01254799331229e+15
1.98579276315257e+15
1.95829097929156e+15
1.93007154294962e+15
1.90117639171807e+15
1.87167427284061e+15
1.84159829303567e+15
1.81104078898665e+15
1.78017340518668e+15
1.7491901989557e+15
1.71826094097561e+15
1.68756479469109e+15
1.65730071291506e+15
1.62770778559085e+15
1.59894138847943e+15
1.57115580627445e+15
1.54449820676992e+15
1.51904970766665e+15
1.49492540700272e+15
1.47212501746859e+15
1.45055762748205e+15
1.4302631290768e+15
1.41118977196628e+15
1.39324848007432e+15
1.37634994014618e+15
1.36037212758085e+15
1.34526799648009e+15
1.33102208582658e+15
1.31756490880821e+15
1.30491970789713e+15
1.29319707285853e+15
1.2824038848543e+15
1.27223424385236e+15
1.26271207550766e+15
1.2532815602345e+15
1.24346293012315e+15
1.23360880835844e+15
1.22414983415912e+15
1.21524354317122e+15
1.20683304613544e+15
1.19883429110977e+15
1.19123091212327e+15
1.1839717613211e+15
1.17700518945646e+15
1.17031683904554e+15
1.1638862606084e+15
1.15770320287957e+15
1.15174951103625e+15
1.145990160524e+15
1.14045240995798e+15
1.13511276387662e+15
1.12994233534496e+15
1.12496556818383e+15
1.12015836547899e+15
1.11551043353066e+15
1.11102682528965e+15
1.10669027397481e+15
1.10250120064948e+15
1.09845618847703e+15
1.09454251154369e+15
1.09075869359725e+15
1.08711112824528e+15
1.08358391755838e+15
1.08017631774639e+15
1.07689355518068e+15
1.07371849058693e+15
1.07065054946915e+15
1.06769477268629e+15
1.06484014874215e+15
1.06207998793014e+15
1.0594251930556e+15
1.05685419776375e+15
1.0543809602222e+15
1.05198920272294e+15
1.04968488430169e+15
1.04746410285653e+15
1.04531498998114e+15
1.0432486943137e+15
1.04124746135845e+15
1.03931413358313e+15
1.03746113523153e+15
1.03567184162634e+15
1.03395158150167e+15
1.03230063929376e+15
1.03070902485654e+15
1.02918188059598e+15
1.02771333144241e+15
1.02629922898288e+15
1.02494389735655e+15
1.02364015988888e+15
1.02238706587954e+15
1.02118491867083e+15
1.02002034633053e+15
1.01890434420789e+15
1.01783131836995e+15
1.0168091891156e+15
1.01582766749417e+15
1.01489209142633e+15
1.01399666313176e+15
1.01314166160873e+15
1.01232585316034e+15
1.01154445796933e+15
1.01079746370357e+15
1.01007711759055e+15
1.00939234900977e+15
1.00873824151033e+15
1.00812267227958e+15
1.00753452934932e+15
1.00698147701426e+15
1.00645305183944e+15
1.00594938079781e+15
1.00547018071729e+15
1.00501718983646e+15
1.00459384311181e+15
1.00419503149176e+15
1.00382102857279e+15
1.00346644324231e+15
1.00313111093339e+15
1.00282134904246e+15
1.00253521253663e+15
1.00226295741934e+15
1.00201189351652e+15
1.00178273535035e+15
1.00156985028607e+15
1.00137429070591e+15
1.00119730461472e+15
1.00103545042248e+15
1.00089049591521e+15
1.0007604182304e+15
1.00064427125331e+15
1.00054172621271e+15
1.00044948693958e+15
1.00036595805713e+15
1.00028678203976e+15
1.00020519034379e+15
)
;

boundaryField
{
    electrode
    {
        type            zeroGradient;
    }
    ground
    {
        type            zeroGradient;
    }
    otherfaces
    {
        type            empty;
    }
}


// ************************************************************************* //
