/*--------------------------------*- C++ -*----------------------------------*\
| =========                 |                                                 |
| \\      /  F ield         | foam-extend: Open Source CFD                    |
|  \\    /   O peration     | Version:     4.0                                |
|   \\  /    A nd           | Web:         http://www.foam-extend.org         |
|    \\/     M anipulation  |                                                 |
\*---------------------------------------------------------------------------*/
FoamFile
{
    version     2.0;
    format      ascii;
    class       volScalarField;
    location    "4e-07";
    object      Arp1;
}
// * * * * * * * * * * * * * * * * * * * * * * * * * * * * * * * * * * * * * //

dimensions      [0 0 0 1 0 0 0];

internalField   nonuniform List<scalar> 
300
(
6.14608337627312e+16
6.14948374854301e+16
6.14635718877727e+16
6.14631355538424e+16
6.14500844958016e+16
6.14332826737352e+16
6.14152093372258e+16
6.13929867645803e+16
6.1367285606948e+16
6.13382417005609e+16
6.13056849080409e+16
6.12695916199089e+16
6.12299237713565e+16
6.1186646353379e+16
6.11397224856732e+16
6.1089119100178e+16
6.10348068225422e+16
6.09767608029506e+16
6.09149609026526e+16
6.08493918957232e+16
6.0780044814387e+16
6.07069163921287e+16
6.06300081713754e+16
6.05493316321826e+16
6.04648983636918e+16
6.03767320426446e+16
6.02848587521763e+16
6.01893108803417e+16
6.00901255850228e+16
5.99873484030949e+16
5.98810240036178e+16
5.97712055726341e+16
5.96579497663126e+16
5.95413143891405e+16
5.9421362417363e+16
5.92981591303281e+16
5.91717712499806e+16
5.90422679756485e+16
5.89097199612741e+16
5.87741990341192e+16
5.86357770542488e+16
5.84945278399492e+16
5.8350523987842e+16
5.82038389344367e+16
5.80545455039024e+16
5.79027162321335e+16
5.77484226917166e+16
5.75917364673587e+16
5.7432725978056e+16
5.72714632444937e+16
5.71080114856789e+16
5.69424423518376e+16
5.67748160097437e+16
5.66052000984417e+16
5.64336540384771e+16
5.62602400479044e+16
5.60850166161603e+16
5.59080411814369e+16
5.57293697753571e+16
5.55490564113031e+16
5.53671544723209e+16
5.51837123395852e+16
5.4998782802057e+16
5.48124108716876e+16
5.46246416539184e+16
5.44355221526866e+16
5.42450919402701e+16
5.40533926512464e+16
5.38604638477173e+16
5.36663409198625e+16
5.34710609928738e+16
5.32746577931754e+16
5.30771607730635e+16
5.28786030294761e+16
5.26790120910495e+16
5.24784121479403e+16
5.22768332480115e+16
5.20742892282977e+16
5.18708136935222e+16
5.16664120734618e+16
5.14611109581702e+16
5.12549223721856e+16
5.10478564236245e+16
5.08399287063763e+16
5.06311439265735e+16
5.0421509469494e+16
5.02110288971131e+16
4.99997044446002e+16
4.97875340141109e+16
4.95745102178127e+16
4.93606361685693e+16
4.91458887035105e+16
4.89302658869104e+16
4.87137471794364e+16
4.84963131175223e+16
4.82779430446563e+16
4.80586087358794e+16
4.78382813459165e+16
4.7616926572496e+16
4.73945069007227e+16
4.71709763833158e+16
4.69462959714856e+16
4.67204041015906e+16
4.64932510770111e+16
4.62647746648431e+16
4.60349021861239e+16
4.58035686821323e+16
4.55706888113202e+16
4.53361804485637e+16
4.50999526433785e+16
4.48619044409868e+16
4.46219325529101e+16
4.43799241668457e+16
4.4135754881038e+16
4.3889300257371e+16
4.3640420400971e+16
4.33889672029797e+16
4.31347880869655e+16
4.28777129344275e+16
4.26175723381228e+16
4.23541698724198e+16
4.20873187241865e+16
4.18168022702504e+16
4.15424024049567e+16
4.12638847483392e+16
4.09810073133094e+16
4.06935049826583e+16
4.04011114533572e+16
4.0103538055064e+16
3.98004862219032e+16
3.94916426792834e+16
3.91766806291863e+16
3.88552539341057e+16
3.85270157848417e+16
3.81915878654902e+16
3.78485906429984e+16
3.7497627078487e+16
3.71382906810618e+16
3.6770155077371e+16
3.63927913732212e+16
3.60057579403753e+16
3.56086016105346e+16
3.52008623834966e+16
3.47820832686389e+16
3.43517858358989e+16
3.39095085111766e+16
3.34547828495158e+16
3.29871331003439e+16
3.25061158685936e+16
3.20112765105569e+16
3.15021680171813e+16
3.09783969195642e+16
3.04395469833369e+16
2.98852591435626e+16
2.93151955973098e+16
2.87290524628309e+16
2.81265889253451e+16
2.75075882035382e+16
2.6871903646641e+16
2.62194598541984e+16
2.55503210675441e+16
2.4864632891194e+16
2.41619446099299e+16
2.34433223091876e+16
2.27109951545606e+16
2.1962967577573e+16
2.11932960596138e+16
2.0410047892938e+16
1.96403928027224e+16
1.8869314560496e+16
1.80721232647084e+16
1.72676503374361e+16
1.64875913112239e+16
1.57374488452131e+16
1.49561495462631e+16
1.4188509102752e+16
1.34772259774435e+16
1.27385256879153e+16
1.20621805066518e+16
1.14022626414601e+16
1.07900232164689e+16
1.021717417441e+16
9.6804539331174e+15
9.22883422586531e+15
8.70999603697354e+15
8.37340846730599e+15
8.11877660234693e+15
7.67364971768132e+15
7.35554849963256e+15
7.22958986065793e+15
7.04831524473955e+15
6.82537805588304e+15
6.66224502885765e+15
6.50656008582103e+15
6.38639329266933e+15
6.29734323313939e+15
6.17674245718654e+15
6.10593671984508e+15
6.0673349842969e+15
5.98701487156922e+15
5.87501388157136e+15
5.8073656314445e+15
5.76171687147144e+15
5.70152412555015e+15
5.66312734899496e+15
5.61871256375674e+15
5.5372683542851e+15
5.43451401825102e+15
5.33434001014112e+15
5.26010904109939e+15
5.18383175455923e+15
5.11163844673591e+15
5.06069501855652e+15
4.99518138043261e+15
4.92819179845361e+15
4.8721918353244e+15
4.79342927570051e+15
4.69803464879948e+15
4.60624183465071e+15
4.51716494808859e+15
4.43200857076677e+15
4.34875134126276e+15
4.26849491606411e+15
4.19169515753228e+15
4.11600033851713e+15
4.04417833597562e+15
3.97136708817919e+15
3.90028575204208e+15
3.82701013258745e+15
3.75373816069704e+15
3.68050791947285e+15
3.60524463201088e+15
3.53457962138904e+15
3.46032361152585e+15
3.38251554838386e+15
3.30740103397621e+15
3.23508488486336e+15
3.16530663057649e+15
3.09752090150241e+15
3.03133133330733e+15
2.96635667190807e+15
2.90238515159767e+15
2.83936307774457e+15
2.77730121513827e+15
2.71623905078291e+15
2.65606205492273e+15
2.59673070139443e+15
2.53821768482901e+15
2.48056817253948e+15
2.42386160821297e+15
2.36814807219423e+15
2.31342902878047e+15
2.25968278701857e+15
2.20687056795451e+15
2.15503672723913e+15
2.10420336393651e+15
2.05441112734146e+15
2.00565901356941e+15
1.95795050539474e+15
1.91118045614295e+15
1.86544014040249e+15
1.82055832970559e+15
1.77688314379309e+15
1.73398435878296e+15
1.6926093150707e+15
1.65167064112064e+15
1.61279370913835e+15
1.57372020382219e+15
1.53725115351372e+15
1.49995887173908e+15
1.46568389457e+15
1.43009653576689e+15
1.39762327118997e+15
1.36328215205615e+15
1.33229893425895e+15
1.29939123348308e+15
1.27037282932855e+15
1.23880984407195e+15
1.2116884644682e+15
1.18155642226391e+15
1.15620999442626e+15
1.1273731283552e+15
1.10383648386442e+15
1.07622007252676e+15
1.05450782908511e+15
1.02807911353786e+15
1.00810823411176e+15
982813792011995
964581075333178
940249175927625
923645129857671
900255667466637
885258902246420
862608121265444
849131474452099
827214220389474
815330922917976
794178139999482
783871086642002
759018557353872
)
;

boundaryField
{
    electrode
    {
        type            driftDiffusionPositiveIonDensity;
        seec            0;
        fieldName       Arp1;
        value           uniform 6.13762803941114e+16;
    }
    ground
    {
        type            driftDiffusionPositiveIonDensity;
        seec            0;
        fieldName       Arp1;
        value           uniform 759018557353872;
    }
    otherfaces
    {
        type            empty;
    }
}


// ************************************************************************* //
