/*--------------------------------*- C++ -*----------------------------------*\
| =========                 |                                                 |
| \\      /  F ield         | foam-extend: Open Source CFD                    |
|  \\    /   O peration     | Version:     4.0                                |
|   \\  /    A nd           | Web:         http://www.foam-extend.org         |
|    \\/     M anipulation  |                                                 |
\*---------------------------------------------------------------------------*/
FoamFile
{
    version     2.0;
    format      ascii;
    class       volVectorField;
    location    "4e-07";
    object      E;
}
// * * * * * * * * * * * * * * * * * * * * * * * * * * * * * * * * * * * * * //

dimensions      [0 0 0 1 0 0 0];

internalField   nonuniform List<vector> 
300
(
(4.29230971182859 -0 -0)
(10.6344799008506 -0 -0)
(18.3249236201943 -0 -0)
(25.5118077704955 -0 -0)
(32.9557305320243 -0 -0)
(40.4284301244733 -0 -0)
(47.9081564960798 -0 -0)
(55.4908886382643 -0 -0)
(63.158237094408 -0 -0)
(70.9073813373602 -0 -0)
(78.7470905858052 -0 -0)
(86.6794513582078 -0 -0)
(94.7040035184653 -0 -0)
(102.818895539312 -0 -0)
(111.020783716277 -0 -0)
(119.304742031424 -0 -0)
(127.664399710012 -0 -0)
(136.092133029566 -0 -0)
(144.579247315925 -0 -0)
(153.116136299144 -0 -0)
(161.692481204236 -0 -0)
(170.297443688462 -0 -0)
(178.919804172392 -0 -0)
(187.548233718251 -0 -0)
(196.171358840538 -0 -0)
(204.777920062567 -0 -0)
(213.35702267006 -0 -0)
(221.898121847977 -0 -0)
(230.39112810041 -0 -0)
(238.826629231362 -0 -0)
(247.195841608675 -0 -0)
(255.490602861456 -0 -0)
(263.703581908385 -0 -0)
(271.828185527429 -0 -0)
(279.858535399912 -0 -0)
(287.789553038461 -0 -0)
(295.616900188063 -0 -0)
(303.336935324132 -0 -0)
(310.94671803653 -0 -0)
(318.443972395531 -0 -0)
(325.82701184607 -0 -0)
(333.094729003426 -0 -0)
(340.246554864121 -0 -0)
(347.282386664526 -0 -0)
(354.202565153206 -0 -0)
(361.007828385312 -0 -0)
(367.699267558789 -0 -0)
(374.2782976671 -0 -0)
(380.746581317465 -0 -0)
(387.106085615519 -0 -0)
(393.358936948181 -0 -0)
(399.507475813725 -0 -0)
(405.554220152179 -0 -0)
(411.50179425635 -0 -0)
(417.352990846094 -0 -0)
(423.110669937804 -0 -0)
(428.777820724077 -0 -0)
(434.35749285674 -0 -0)
(439.85281043676 -0 -0)
(445.26697715601 -0 -0)
(450.603272998717 -0 -0)
(455.864957557469 -0 -0)
(461.055414630091 -0 -0)
(466.178124328188 -0 -0)
(471.236467509866 -0 -0)
(476.23398264506 -0 -0)
(481.174287606023 -0 -0)
(486.060973261994 -0 -0)
(490.897756673426 -0 -0)
(495.688378897343 -0 -0)
(500.436667384597 -0 -0)
(505.146610944918 -0 -0)
(509.822166716628 -0 -0)
(514.467428516692 -0 -0)
(519.086713975156 -0 -0)
(523.684344189194 -0 -0)
(528.264876559117 -0 -0)
(532.832900164476 -0 -0)
(537.393369091973 -0 -0)
(541.951373407456 -0 -0)
(546.512052308828 -0 -0)
(551.08108874552 -0 -0)
(555.66419424047 -0 -0)
(560.267446790607 -0 -0)
(564.897314787926 -0 -0)
(569.560472884916 -0 -0)
(574.264013054945 -0 -0)
(579.015504080572 -0 -0)
(583.822895690193 -0 -0)
(588.694418887705 -0 -0)
(593.639129591099 -0 -0)
(598.666421482037 -0 -0)
(603.786104967699 -0 -0)
(609.008902587086 -0 -0)
(614.345968530262 -0 -0)
(619.809177590585 -0 -0)
(625.411151825086 -0 -0)
(631.165254410962 -0 -0)
(637.085729250704 -0 -0)
(643.187681660724 -0 -0)
(649.487024116529 -0 -0)
(656.00090361086 -0 -0)
(662.747406833592 -0 -0)
(669.745615096282 -0 -0)
(677.016141810493 -0 -0)
(684.580615990868 -0 -0)
(692.462149037717 -0 -0)
(700.685411038414 -0 -0)
(709.276469328182 -0 -0)
(718.263240034733 -0 -0)
(727.675352420255 -0 -0)
(737.544346496398 -0 -0)
(747.903934854145 -0 -0)
(758.7898326001 -0 -0)
(770.240164911585 -0 -0)
(782.295689269309 -0 -0)
(794.999608586062 -0 -0)
(808.398016719019 -0 -0)
(822.540027472896 -0 -0)
(837.478050828929 -0 -0)
(853.267692194165 -0 -0)
(869.968242403309 -0 -0)
(887.643000206729 -0 -0)
(906.359026135836 -0 -0)
(926.187757296728 -0 -0)
(947.205366828956 -0 -0)
(969.492659028208 -0 -0)
(993.135466065084 -0 -0)
(1018.22515776461 -0 -0)
(1044.85868021459 -0 -0)
(1073.13903461837 -0 -0)
(1103.17557827098 -0 -0)
(1135.08417469446 -0 -0)
(1168.98810819642 -0 -0)
(1205.01820545668 -0 -0)
(1243.31294143474 -0 -0)
(1284.01953698289 -0 -0)
(1327.29452443512 -0 -0)
(1373.30396246958 -0 -0)
(1422.22424362014 -0 -0)
(1474.24334518433 -0 -0)
(1529.56136951227 -0 -0)
(1588.39149897556 -0 -0)
(1650.96182980514 -0 -0)
(1717.5162080803 -0 -0)
(1788.31601259052 -0 -0)
(1863.64271094077 -0 -0)
(1943.79900625448 -0 -0)
(2029.11265613188 -0 -0)
(2119.93984061429 -0 -0)
(2216.66715053023 -0 -0)
(2319.71824494976 -0 -0)
(2429.55877070039 -0 -0)
(2546.70168169267 -0 -0)
(2671.71630612355 -0 -0)
(2805.23710100734 -0 -0)
(2947.97596955718 -0 -0)
(3100.73501458642 -0 -0)
(3264.42174693498 -0 -0)
(3440.07219451363 -0 -0)
(3628.88365173157 -0 -0)
(3832.23469860067 -0 -0)
(4051.66536502119 -0 -0)
(4289.05036146308 -0 -0)
(4546.85692514079 -0 -0)
(4827.64928838072 -0 -0)
(5133.40311243012 -0 -0)
(5467.7178183755 -0 -0)
(5839.99147657142 -0 -0)
(6261.92420266504 -0 -0)
(6740.71287891427 -0 -0)
(7283.85405147306 -0 -0)
(7908.18320893484 -0 -0)
(8637.24715274937 -0 -0)
(9487.50910467427 -0 -0)
(10473.9691165762 -0 -0)
(11623.7767820546 -0 -0)
(12958.8382587128 -0 -0)
(14500.316481321 -0 -0)
(16272.6230185622 -0 -0)
(18293.9619903281 -0 -0)
(20578.8536774557 -0 -0)
(23132.5115085893 -0 -0)
(25957.1560757606 -0 -0)
(29022.7927668001 -0 -0)
(32314.5622733214 -0 -0)
(35842.3430089022 -0 -0)
(39519.1133965411 -0 -0)
(43265.4897432306 -0 -0)
(47108.1657251946 -0 -0)
(51033.424333408 -0 -0)
(54966.642529813 -0 -0)
(58874.8688427195 -0 -0)
(62748.302248488 -0 -0)
(66577.7350355281 -0 -0)
(70369.4724907158 -0 -0)
(74112.3189310357 -0 -0)
(77806.5576283484 -0 -0)
(81473.7445720546 -0 -0)
(85106.6945342712 -0 -0)
(88682.5244013101 -0 -0)
(92204.8023461837 -0 -0)
(95693.3819028103 -0 -0)
(99150.3064867461 -0 -0)
(102577.534495592 -0 -0)
(105979.799466882 -0 -0)
(109344.129332032 -0 -0)
(112652.927953477 -0 -0)
(115900.534328443 -0 -0)
(119095.540679547 -0 -0)
(122245.154551178 -0 -0)
(125349.989012225 -0 -0)
(128417.683140013 -0 -0)
(131450.261649586 -0 -0)
(134442.885232409 -0 -0)
(137398.419794597 -0 -0)
(140313.323330593 -0 -0)
(143175.71316546 -0 -0)
(145981.652264137 -0 -0)
(148733.044087398 -0 -0)
(151431.890328692 -0 -0)
(154079.947194417 -0 -0)
(156678.691839311 -0 -0)
(159230.071789341 -0 -0)
(161735.463200412 -0 -0)
(164196.367755543 -0 -0)
(166613.656396235 -0 -0)
(168987.553557432 -0 -0)
(171317.920088641 -0 -0)
(173604.095246489 -0 -0)
(175846.092567083 -0 -0)
(178043.310760698 -0 -0)
(180196.521746024 -0 -0)
(182306.029924675 -0 -0)
(184369.680733837 -0 -0)
(186387.213714529 -0 -0)
(188360.284921867 -0 -0)
(190290.50385859 -0 -0)
(192179.237262652 -0 -0)
(194027.567857342 -0 -0)
(195836.343740067 -0 -0)
(197606.233999069 -0 -0)
(199337.827484982 -0 -0)
(201031.69999005 -0 -0)
(202688.442502649 -0 -0)
(204308.623411481 -0 -0)
(205892.764639182 -0 -0)
(207441.36794477 -0 -0)
(208954.940371298 -0 -0)
(210434.026506554 -0 -0)
(211879.21003844 -0 -0)
(213291.090250272 -0 -0)
(214670.260366215 -0 -0)
(216017.295366464 -0 -0)
(217332.771871604 -0 -0)
(218617.286527148 -0 -0)
(219871.45491769 -0 -0)
(221095.904603761 -0 -0)
(222291.263949591 -0 -0)
(223458.130677638 -0 -0)
(224597.098306093 -0 -0)
(225708.736182182 -0 -0)
(226793.667008758 -0 -0)
(227852.488682812 -0 -0)
(228885.894824217 -0 -0)
(229894.476441319 -0 -0)
(230878.986888964 -0 -0)
(231839.988652358 -0 -0)
(232778.207875233 -0 -0)
(233694.181774828 -0 -0)
(234588.572018573 -0 -0)
(235461.892858511 -0 -0)
(236314.687444377 -0 -0)
(237147.331397183 -0 -0)
(237960.274358717 -0 -0)
(238753.948772463 -0 -0)
(239528.947161751 -0 -0)
(240285.67505626 -0 -0)
(241024.704509414 -0 -0)
(241746.46706746 -0 -0)
(242451.49803734 -0 -0)
(243140.187992678 -0 -0)
(243813.082721351 -0 -0)
(244470.550261316 -0 -0)
(245113.140784934 -0 -0)
(245741.212486134 -0 -0)
(246355.290527599 -0 -0)
(246955.716956711 -0 -0)
(247543.016008109 -0 -0)
(248117.477981391 -0 -0)
(248679.594032116 -0 -0)
(249229.648360043 -0 -0)
(249768.125720228 -0 -0)
(250295.248891702 -0 -0)
(250811.476241442 -0 -0)
(251317.028908409 -0 -0)
(251812.387058131 -0 -0)
(252297.781517229 -0 -0)
(252773.69519391 -0 -0)
(253238.997543709 -0 -0)
)
;

boundaryField
{
    electrode
    {
        type            calculated;
        value           uniform (2.13684414802629 -0 -0);
    }
    ground
    {
        type            calculated;
        value           uniform (253467.893761868 -0 -0);
    }
    otherfaces
    {
        type            empty;
    }
}


// ************************************************************************* //
