/*--------------------------------*- C++ -*----------------------------------*\
| =========                 |                                                 |
| \\      /  F ield         | foam-extend: Open Source CFD                    |
|  \\    /   O peration     | Version:     4.0                                |
|   \\  /    A nd           | Web:         http://www.foam-extend.org         |
|    \\/     M anipulation  |                                                 |
\*---------------------------------------------------------------------------*/
FoamFile
{
    version     2.0;
    format      ascii;
    class       volScalarField;
    location    "4e-07";
    object      electron;
}
// * * * * * * * * * * * * * * * * * * * * * * * * * * * * * * * * * * * * * //

dimensions      [0 0 0 1 0 0 0];

internalField   nonuniform List<scalar> 
300
(
6.14663380623008e+16
6.14638628737464e+16
6.145825659509e+16
6.14493429245972e+16
6.14371369340086e+16
6.14215705224891e+16
6.14026373282249e+16
6.13803118452741e+16
6.13545565406905e+16
6.13253376372152e+16
6.12926200553949e+16
6.12563673580289e+16
6.12165434243034e+16
6.1173113314457e+16
6.1126044010475e+16
6.10753051430316e+16
6.10208696926091e+16
6.09627146129137e+16
6.09008213663161e+16
6.08351763744194e+16
6.07657713803399e+16
6.06926037152877e+16
6.06156764826047e+16
6.05349986445312e+16
6.0450585025932e+16
6.036245625955e+16
6.027063863827e+16
6.01751639092348e+16
6.00760690395556e+16
5.99733959110992e+16
5.98671909753198e+16
5.97575049134613e+16
5.96443922550663e+16
5.95279109735643e+16
5.94081221039284e+16
5.92850893495921e+16
5.91588786883566e+16
5.90295580013278e+16
5.88971967137719e+16
5.87618654478765e+16
5.86236357022996e+16
5.84825795539639e+16
5.8338769376018e+16
5.81922775835897e+16
5.80431764035719e+16
5.78915376636662e+16
5.77374326049222e+16
5.75809317131212e+16
5.74221045759359e+16
5.72610197488018e+16
5.70977446418826e+16
5.69323454286588e+16
5.67648869547465e+16
5.65954326712969e+16
5.64240445726865e+16
5.62507831450972e+16
5.607570732524e+16
5.58988744625984e+16
5.57203402941811e+16
5.55401589183909e+16
5.5358382770404e+16
5.51750626163515e+16
5.49902475420918e+16
5.48039849222276e+16
5.46163204296997e+16
5.44272980357802e+16
5.42369599802593e+16
5.40453467757321e+16
5.38524972031715e+16
5.36584482999121e+16
5.34632353566381e+16
5.32668918907084e+16
5.30694496401209e+16
5.28709385630538e+16
5.26713867940418e+16
5.24708206256727e+16
5.22692644860815e+16
5.20667409132548e+16
5.186327051134e+16
5.16588718868601e+16
5.145356164142e+16
5.12473542959555e+16
5.10402622211413e+16
5.0832295598807e+16
5.06234623238844e+16
5.04137679366344e+16
5.02032155503548e+16
4.99918057402098e+16
4.97795364384097e+16
4.95664028636721e+16
4.93523973844613e+16
4.91375093750475e+16
4.89217251411502e+16
4.87050277567094e+16
4.84873969059595e+16
4.82688087587356e+16
4.80492358000733e+16
4.7828646665065e+16
4.76070059585612e+16
4.73842740617311e+16
4.71604069580421e+16
4.69353560112025e+16
4.67090677298141e+16
4.64814835796727e+16
4.62525397151629e+16
4.60221667205218e+16
4.57902893710703e+16
4.55568263250101e+16
4.53216898462255e+16
4.50847854984566e+16
4.48460118115219e+16
4.46052599605312e+16
4.43624133987551e+16
4.4117347502101e+16
4.38699292071436e+16
4.3620016588893e+16
4.336745846805e+16
4.3112094015851e+16
4.28537523210307e+16
4.25922519463028e+16
4.23274005076346e+16
4.20589942574974e+16
4.17868176177066e+16
4.15106427696355e+16
4.12302292686402e+16
4.0945323611476e+16
4.06556588622226e+16
4.0360954338865e+16
4.00609152918683e+16
3.97552326354853e+16
3.94435827474744e+16
3.91256273146522e+16
3.88010132851627e+16
3.84693728662822e+16
3.81303235886014e+16
3.77834685567063e+16
3.74283967855167e+16
3.7064683594563e+16
3.66918911900338e+16
3.63095694306772e+16
3.5917256688507e+16
3.55144808682312e+16
3.51007606572611e+16
3.46756068961383e+16
3.4238524130168e+16
3.37890124026557e+16
3.33265691473086e+16
3.28506913210706e+16
3.23608777185885e+16
3.18566313087218e+16
3.13374618985794e+16
3.08028888900383e+16
3.0252443975564e+16
2.9685674088112e+16
2.9102144368791e+16
2.85014410830562e+16
2.78831744825611e+16
2.7246981589549e+16
2.65925290633942e+16
2.59195157863375e+16
2.52276746068136e+16
2.45167739727161e+16
2.37866239243183e+16
2.30370771332904e+16
2.2268009239269e+16
2.14793254364841e+16
2.06710424714966e+16
1.98432655493378e+16
1.89958041977874e+16
1.81278690855487e+16
1.7238475768093e+16
1.63269354062422e+16
1.53926224035426e+16
1.44346140568292e+16
1.34523207514504e+16
1.24464800258791e+16
1.14192491624073e+16
1.03745557671733e+16
9.31885286486178e+15
8.26123233732505e+15
7.21374397343483e+15
6.1913449818265e+15
5.21117349526588e+15
4.29128742571536e+15
3.44922278474289e+15
2.69993374547413e+15
2.05344659513517e+15
1.51428495292137e+15
1.08114269723905e+15
746483472729295
498017412643723
321025901165398
200230977646113
121126034653887
71419979799559.2
41355418083683.7
23743572647735.6
13760020345779.5
7922712141874.82
4374412706291.92
2278386205020.97
1190514454218.21
680433071061.154
443595918970.681
330300463394.133
274230994089.895
246114910074.68
232463770802.36
226592013589.936
224899344223.405
225445007740.583
227313148960.229
229835832250.614
232561127869.84
235190875073.634
237541746708.043
239495409311.891
240980100257.01
241951742792.659
242387480185.431
242337108619.293
241789819656.135
240764997873.38
239289504975.975
237395463219.884
235117577584.992
232491970998.912
229555266712.802
226343906560.819
222893611449.286
219238889342.152
215412635957.541
211445433297.229
207364276823.862
203195103830.693
198963656727.08
194693366942.039
190405379577.072
186118532967.565
181849488421.182
177612865317.439
173421381646.644
169286006215.142
165216065810.212
161219645159.591
157303280450.044
153471552753.205
149728283801.242
146076894954.03
142519744803.716
139058235782.761
135693059725.714
132424290885.875
129251479518.243
126173730000.532
123189767299.46
120298002391.099
117496517157.214
114783160090.965
112154226269.076
109605548523.669
107134368855.837
104738388657.773
102415383305.471
100163150203.698
97979504146.597
95862288355.3378
93809389165.8923
91818749623.9016
89888381514.5886
88016376798.703
86200916882.5778
84440282631.0498
82732864749.8857
81077160974.0921
79471792861.7997
77915291746.9486
76406297150.5363
74938716948.3542
73506717258.0986
72110433478.755
70751029147.6849
69430075587.8525
68149161419.8264
66909586736.4549
65710558626.8569
64544674605.9679
63408857691.2488
62309308247.111
61252909003.9692
60239362252.0822
59265598322.0702
58341634120.3865
57477645879.6755
56682751240.0571
55981582555.0419
55414635198.213
55072917296.5354
55016597175.8908
55518394656.6114
)
;

boundaryField
{
    electrode
    {
        type            driftDiffusionElectronDensity;
        seec            0.05;
        Edepend         1;
        field_emission  0;
        field_enhancement_factor 55;
        work_function   5;
        value           uniform 6.14663380623009e+16;
    }
    ground
    {
        type            driftDiffusionElectronDensity;
        seec            0.05;
        Edepend         1;
        field_emission  0;
        field_enhancement_factor 55;
        work_function   5;
        value           uniform 56167154877.3571;
    }
    otherfaces
    {
        type            empty;
    }
}


// ************************************************************************* //
