/*--------------------------------*- C++ -*----------------------------------*\
| =========                 |                                                 |
| \\      /  F ield         | foam-extend: Open Source CFD                    |
|  \\    /   O peration     | Version:     4.0                                |
|   \\  /    A nd           | Web:         http://www.foam-extend.org         |
|    \\/     M anipulation  |                                                 |
\*---------------------------------------------------------------------------*/
FoamFile
{
    version     2.0;
    format      ascii;
    class       volVectorField;
    location    "4e-07";
    object      J_Arp1;
}
// * * * * * * * * * * * * * * * * * * * * * * * * * * * * * * * * * * * * * //

dimensions      [1 -1 -1 0 0 0 0];

internalField   nonuniform List<vector> 
300
(
(1.86850287825899e+16 -0 -0)
(6.56580047037179e+16 -0 -0)
(1.13933737086709e+17 -0 -0)
(1.57237008398628e+17 -0 -0)
(2.03521257666963e+17 -0 -0)
(2.4949263359101e+17 -0 -0)
(2.9547606187194e+17 -0 -0)
(3.42110532926442e+17 -0 -0)
(3.89160279667171e+17 -0 -0)
(4.3663244365391e+17 -0 -0)
(4.84576476095861e+17 -0 -0)
(5.32990120792072e+17 -0 -0)
(5.81860696522538e+17 -0 -0)
(6.31166285332312e+17 -0 -0)
(6.80875582023044e+17 -0 -0)
(7.30947279240291e+17 -0 -0)
(7.8133117539232e+17 -0 -0)
(8.31969427195459e+17 -0 -0)
(8.82797773088995e+17 -0 -0)
(9.33746550034273e+17 -0 -0)
(9.84742041450182e+17 -0 -0)
(1.03570781381051e+18 -0 -0)
(1.08656540242723e+18 -0 -0)
(1.13723646601761e+18 -0 -0)
(1.18764280871127e+18 -0 -0)
(1.23770761168618e+18 -0 -0)
(1.28735712269163e+18 -0 -0)
(1.3365203671467e+18 -0 -0)
(1.38512979359037e+18 -0 -0)
(1.4331230005584e+18 -0 -0)
(1.48044202086812e+18 -0 -0)
(1.52703333808749e+18 -0 -0)
(1.57284946172165e+18 -0 -0)
(1.61784794318125e+18 -0 -0)
(1.66199134431243e+18 -0 -0)
(1.70524782399911e+18 -0 -0)
(1.74759057568745e+18 -0 -0)
(1.78899756944246e+18 -0 -0)
(1.82945155779889e+18 -0 -0)
(1.86893981256444e+18 -0 -0)
(1.90745352086035e+18 -0 -0)
(1.9449878192784e+18 -0 -0)
(1.98154140283421e+18 -0 -0)
(2.01711606189287e+18 -0 -0)
(2.05171652521811e+18 -0 -0)
(2.08535013084558e+18 -0 -0)
(2.11802648171167e+18 -0 -0)
(2.14975736862567e+18 -0 -0)
(2.18055595904825e+18 -0 -0)
(2.21043768937847e+18 -0 -0)
(2.23941853755637e+18 -0 -0)
(2.26751624872516e+18 -0 -0)
(2.2947492594418e+18 -0 -0)
(2.32113685220035e+18 -0 -0)
(2.34669915704401e+18 -0 -0)
(2.37145665331268e+18 -0 -0)
(2.39543054485289e+18 -0 -0)
(2.41864222906551e+18 -0 -0)
(2.44111346617115e+18 -0 -0)
(2.46286629329889e+18 -0 -0)
(2.48392319113101e+18 -0 -0)
(2.5043060385099e+18 -0 -0)
(2.52403760183736e+18 -0 -0)
(2.54314087366339e+18 -0 -0)
(2.56163782056631e+18 -0 -0)
(2.57955150003958e+18 -0 -0)
(2.59690488843494e+18 -0 -0)
(2.61372054320219e+18 -0 -0)
(2.63002165558741e+18 -0 -0)
(2.64583100277819e+18 -0 -0)
(2.66117166518913e+18 -0 -0)
(2.67606741054175e+18 -0 -0)
(2.69054111859025e+18 -0 -0)
(2.70461636210687e+18 -0 -0)
(2.71831759024787e+18 -0 -0)
(2.73166836873322e+18 -0 -0)
(2.74469396771963e+18 -0 -0)
(2.75741811731725e+18 -0 -0)
(2.76986755362453e+18 -0 -0)
(2.7820677867232e+18 -0 -0)
(2.79404477899162e+18 -0 -0)
(2.80582691663381e+18 -0 -0)
(2.81744139258039e+18 -0 -0)
(2.82891739113144e+18 -0 -0)
(2.8402850251963e+18 -0 -0)
(2.85157474517437e+18 -0 -0)
(2.86281840570545e+18 -0 -0)
(2.87404950501666e+18 -0 -0)
(2.88530261835512e+18 -0 -0)
(2.89661208368731e+18 -0 -0)
(2.90801685976069e+18 -0 -0)
(2.91955473672913e+18 -0 -0)
(2.93126554830796e+18 -0 -0)
(2.94319218812662e+18 -0 -0)
(2.95537793917563e+18 -0 -0)
(2.96786863014353e+18 -0 -0)
(2.9807119159833e+18 -0 -0)
(2.99395750182118e+18 -0 -0)
(3.00765756070989e+18 -0 -0)
(3.021866664558e+18 -0 -0)
(3.036640569011e+18 -0 -0)
(3.05203993051461e+18 -0 -0)
(3.06812616848771e+18 -0 -0)
(3.08496357079567e+18 -0 -0)
(3.10262119430329e+18 -0 -0)
(3.12116880298871e+18 -0 -0)
(3.14068111878314e+18 -0 -0)
(3.16123580361605e+18 -0 -0)
(3.18291344598623e+18 -0 -0)
(3.20579939065462e+18 -0 -0)
(3.22998195762473e+18 -0 -0)
(3.25555371985097e+18 -0 -0)
(3.28261210178935e+18 -0 -0)
(3.31125733003663e+18 -0 -0)
(3.34159507608641e+18 -0 -0)
(3.37373588820164e+18 -0 -0)
(3.40779361572615e+18 -0 -0)
(3.44388773745951e+18 -0 -0)
(3.48214161992269e+18 -0 -0)
(3.52268489525268e+18 -0 -0)
(3.56564926062665e+18 -0 -0)
(3.61117301558556e+18 -0 -0)
(3.65939838815775e+18 -0 -0)
(3.71047084062967e+18 -0 -0)
(3.76453982171237e+18 -0 -0)
(3.82175961723452e+18 -0 -0)
(3.88228551291376e+18 -0 -0)
(3.94627597115514e+18 -0 -0)
(4.01389120241761e+18 -0 -0)
(4.08529188234254e+18 -0 -0)
(4.16063880233877e+18 -0 -0)
(4.24009179260658e+18 -0 -0)
(4.32380640857193e+18 -0 -0)
(4.41193748558376e+18 -0 -0)
(4.50463260526863e+18 -0 -0)
(4.60203191691689e+18 -0 -0)
(4.70426743377222e+18 -0 -0)
(4.81146167771644e+18 -0 -0)
(4.9237223066404e+18 -0 -0)
(5.04114231464406e+18 -0 -0)
(5.16379836344411e+18 -0 -0)
(5.29174632288181e+18 -0 -0)
(5.42501846385248e+18 -0 -0)
(5.5636252155323e+18 -0 -0)
(5.70754535557381e+18 -0 -0)
(5.85672937315137e+18 -0 -0)
(6.01109606897527e+18 -0 -0)
(6.17052319081718e+18 -0 -0)
(6.33485674204766e+18 -0 -0)
(6.50390135858495e+18 -0 -0)
(6.67741198006252e+18 -0 -0)
(6.85511082421352e+18 -0 -0)
(7.03666629654317e+18 -0 -0)
(7.22170322098673e+18 -0 -0)
(7.4097996447218e+18 -0 -0)
(7.60048409807275e+18 -0 -0)
(7.79324673754996e+18 -0 -0)
(7.98752545960463e+18 -0 -0)
(8.18271304678735e+18 -0 -0)
(8.37816430814182e+18 -0 -0)
(8.57323800818682e+18 -0 -0)
(8.76728310662548e+18 -0 -0)
(8.95919814228337e+18 -0 -0)
(9.14843841932786e+18 -0 -0)
(9.33560336614985e+18 -0 -0)
(9.51911088783983e+18 -0 -0)
(9.69287232731609e+18 -0 -0)
(9.85792568968683e+18 -0 -0)
(1.00348881727464e+19 -0 -0)
(1.02081943422241e+19 -0 -0)
(1.0361152058898e+19 -0 -0)
(1.05047141075689e+19 -0 -0)
(1.06579838873343e+19 -0 -0)
(1.08241834358768e+19 -0 -0)
(1.09513119755087e+19 -0 -0)
(1.10681497034871e+19 -0 -0)
(1.12341599081849e+19 -0 -0)
(1.13087389407531e+19 -0 -0)
(1.14660785947086e+19 -0 -0)
(1.15631477635553e+19 -0 -0)
(1.16871615679456e+19 -0 -0)
(1.18128047186176e+19 -0 -0)
(1.18980452952747e+19 -0 -0)
(1.20966928723044e+19 -0 -0)
(1.2045287797043e+19 -0 -0)
(1.23113388416552e+19 -0 -0)
(1.25774668280805e+19 -0 -0)
(1.25012614963742e+19 -0 -0)
(1.25829542723149e+19 -0 -0)
(1.28812783066008e+19 -0 -0)
(1.30836186182846e+19 -0 -0)
(1.31970683163504e+19 -0 -0)
(1.33303060752697e+19 -0 -0)
(1.33937787800818e+19 -0 -0)
(1.35745315261619e+19 -0 -0)
(1.37997829313243e+19 -0 -0)
(1.39006076859276e+19 -0 -0)
(1.40620395787665e+19 -0 -0)
(1.42567109934016e+19 -0 -0)
(1.4394056442548e+19 -0 -0)
(1.44564483988973e+19 -0 -0)
(1.45919579232163e+19 -0 -0)
(1.4754813212922e+19 -0 -0)
(1.4853617976703e+19 -0 -0)
(1.49838253122422e+19 -0 -0)
(1.50753295552258e+19 -0 -0)
(1.50927288814875e+19 -0 -0)
(1.50683831887676e+19 -0 -0)
(1.50257592161912e+19 -0 -0)
(1.50345012835812e+19 -0 -0)
(1.50184580520333e+19 -0 -0)
(1.49959780578156e+19 -0 -0)
(1.50201780401739e+19 -0 -0)
(1.49865908610849e+19 -0 -0)
(1.49335461280485e+19 -0 -0)
(1.4900332651481e+19 -0 -0)
(1.47951840714001e+19 -0 -0)
(1.46727922334706e+19 -0 -0)
(1.45465969603583e+19 -0 -0)
(1.44151693633253e+19 -0 -0)
(1.42834739202644e+19 -0 -0)
(1.4146035767883e+19 -0 -0)
(1.40072869984103e+19 -0 -0)
(1.38696614818697e+19 -0 -0)
(1.37261466070043e+19 -0 -0)
(1.35866831859616e+19 -0 -0)
(1.34355812190492e+19 -0 -0)
(1.32824506591452e+19 -0 -0)
(1.31143590022429e+19 -0 -0)
(1.29390816359031e+19 -0 -0)
(1.27571656867439e+19 -0 -0)
(1.25616842393803e+19 -0 -0)
(1.2376174067683e+19 -0 -0)
(1.21800948430335e+19 -0 -0)
(1.19850471673049e+19 -0 -0)
(1.17930265939585e+19 -0 -0)
(1.16049735917031e+19 -0 -0)
(1.14204427483264e+19 -0 -0)
(1.12378928826982e+19 -0 -0)
(1.10562474680832e+19 -0 -0)
(1.08744281307196e+19 -0 -0)
(1.06919304300547e+19 -0 -0)
(1.0508805065376e+19 -0 -0)
(1.03253273684132e+19 -0 -0)
(1.0141871309206e+19 -0 -0)
(9.95822412300811e+18 -0 -0)
(9.77443576718928e+18 -0 -0)
(9.59059020899445e+18 -0 -0)
(9.40703583642299e+18 -0 -0)
(9.22424699277956e+18 -0 -0)
(9.04258306450285e+18 -0 -0)
(8.86221165741609e+18 -0 -0)
(8.68320302921891e+18 -0 -0)
(8.50555179096593e+18 -0 -0)
(8.32956495423274e+18 -0 -0)
(8.15545912104762e+18 -0 -0)
(7.98351765041309e+18 -0 -0)
(7.81385706880291e+18 -0 -0)
(7.64660558246428e+18 -0 -0)
(7.48145858928899e+18 -0 -0)
(7.31887372305043e+18 -0 -0)
(7.15827201837083e+18 -0 -0)
(7.00111421205867e+18 -0 -0)
(6.84579006862099e+18 -0 -0)
(6.69533727151766e+18 -0 -0)
(6.54552950277273e+18 -0 -0)
(6.40288920191933e+18 -0 -0)
(6.2585184020586e+18 -0 -0)
(6.12362402674913e+18 -0 -0)
(5.98461599149527e+18 -0 -0)
(5.85687025301501e+18 -0 -0)
(5.72314768182381e+18 -0 -0)
(5.60153629698033e+18 -0 -0)
(5.47524492783656e+18 -0 -0)
(5.36158076672333e+18 -0 -0)
(5.23935483551956e+18 -0 -0)
(5.13204738213891e+18 -0 -0)
(5.01372984248757e+18 -0 -0)
(4.91270498165069e+18 -0 -0)
(4.79882345306511e+18 -0 -0)
(4.70376869913532e+18 -0 -0)
(4.5939318675422e+18 -0 -0)
(4.50514982051089e+18 -0 -0)
(4.39919678894878e+18 -0 -0)
(4.3168944360643e+18 -0 -0)
(4.21482114488116e+18 -0 -0)
(4.13879243551354e+18 -0 -0)
(4.04049512158628e+18 -0 -0)
(3.97084776404309e+18 -0 -0)
(3.87572366321849e+18 -0 -0)
(3.81211264853949e+18 -0 -0)
(3.72016766060148e+18 -0 -0)
(3.66260134959346e+18 -0 -0)
(3.57307284323776e+18 -0 -0)
(3.52127369433175e+18 -0 -0)
(3.43420746009611e+18 -0 -0)
(3.38855590728242e+18 -0 -0)
(3.30414456465734e+18 -0 -0)
(3.26467042705739e+18 -0 -0)
(3.16429747034096e+18 -0 -0)
)
;

boundaryField
{
    electrode
    {
        type            calculated;
        value           uniform (-84298061823.7053 -0 -0);
    }
    ground
    {
        type            calculated;
        value           uniform (3.16570544813095e+18 -0 -0);
    }
    otherfaces
    {
        type            empty;
    }
}


// ************************************************************************* //
