/*--------------------------------*- C++ -*----------------------------------*\
| =========                 |                                                 |
| \\      /  F ield         | foam-extend: Open Source CFD                    |
|  \\    /   O peration     | Version:     4.0                                |
|   \\  /    A nd           | Web:         http://www.foam-extend.org         |
|    \\/     M anipulation  |                                                 |
\*---------------------------------------------------------------------------*/
FoamFile
{
    version     2.0;
    format      ascii;
    class       volVectorField;
    location    "4e-07";
    object      J_electron;
}
// * * * * * * * * * * * * * * * * * * * * * * * * * * * * * * * * * * * * * //

dimensions      [1 -1 -1 0 0 0 0];

internalField   nonuniform List<vector> 
300
(
(-8.31470162228125e+18 0 0)
(-9.00994959290955e+18 0 0)
(-1.0761986223587e+19 0 0)
(-9.93237233205235e+18 0 0)
(-1.02310818518444e+19 0 0)
(-1.01675571320631e+19 0 0)
(-1.00376189116497e+19 0 0)
(-1.00109295181097e+19 0 0)
(-9.96359993608471e+18 0 0)
(-9.90917608939323e+18 0 0)
(-9.86054554842667e+18 0 0)
(-9.81396291491594e+18 0 0)
(-9.76890122053642e+18 0 0)
(-9.72526783235876e+18 0 0)
(-9.68314256870205e+18 0 0)
(-9.6423907574165e+18 0 0)
(-9.60283757807547e+18 0 0)
(-9.56431161596759e+18 0 0)
(-9.52666954493841e+18 0 0)
(-9.48973432591955e+18 0 0)
(-9.4533330525841e+18 0 0)
(-9.41736509512299e+18 0 0)
(-9.38158389173971e+18 0 0)
(-9.34596531095378e+18 0 0)
(-9.31039211966117e+18 0 0)
(-9.27465437342754e+18 0 0)
(-9.23881367958127e+18 0 0)
(-9.20281097504607e+18 0 0)
(-9.1664745353313e+18 0 0)
(-9.1298991497929e+18 0 0)
(-9.09314288756405e+18 0 0)
(-9.05604060523738e+18 0 0)
(-9.01873754632644e+18 0 0)
(-8.98129541661747e+18 0 0)
(-8.94367421985823e+18 0 0)
(-8.90597532733748e+18 0 0)
(-8.86827504419734e+18 0 0)
(-8.83060526928468e+18 0 0)
(-8.79303193941718e+18 0 0)
(-8.75565623993854e+18 0 0)
(-8.71851133441566e+18 0 0)
(-8.6816579520666e+18 0 0)
(-8.64518336165183e+18 0 0)
(-8.60912177291828e+18 0 0)
(-8.57352902457426e+18 0 0)
(-8.53845643095441e+18 0 0)
(-8.50393047790256e+18 0 0)
(-8.47003498648227e+18 0 0)
(-8.43670271766115e+18 0 0)
(-8.40407941470958e+18 0 0)
(-8.37209870572742e+18 0 0)
(-8.34079027722112e+18 0 0)
(-8.31021493965711e+18 0 0)
(-8.28029361720027e+18 0 0)
(-8.25112033188014e+18 0 0)
(-8.22261151454174e+18 0 0)
(-8.19482476202898e+18 0 0)
(-8.16772386184915e+18 0 0)
(-8.1412947195286e+18 0 0)
(-8.11551337985501e+18 0 0)
(-8.09045705896572e+18 0 0)
(-8.06597384805705e+18 0 0)
(-8.04206379080221e+18 0 0)
(-8.01889488897468e+18 0 0)
(-7.99620238306207e+18 0 0)
(-7.97404532333085e+18 0 0)
(-7.95249836145587e+18 0 0)
(-7.93139409656322e+18 0 0)
(-7.91081204807211e+18 0 0)
(-7.89067349482773e+18 0 0)
(-7.87088400302237e+18 0 0)
(-7.85159918549913e+18 0 0)
(-7.83264578658186e+18 0 0)
(-7.81391821275975e+18 0 0)
(-7.79560765999442e+18 0 0)
(-7.77745183646024e+18 0 0)
(-7.75964491579077e+18 0 0)
(-7.7418468807968e+18 0 0)
(-7.72423726621105e+18 0 0)
(-7.7068833286277e+18 0 0)
(-7.68930059997728e+18 0 0)
(-7.67194754406233e+18 0 0)
(-7.65447405389454e+18 0 0)
(-7.63685361744059e+18 0 0)
(-7.61921106300581e+18 0 0)
(-7.60133423333586e+18 0 0)
(-7.58316160176384e+18 0 0)
(-7.56471860293455e+18 0 0)
(-7.54609014169456e+18 0 0)
(-7.52676560854712e+18 0 0)
(-7.50713654694747e+18 0 0)
(-7.48710113163189e+18 0 0)
(-7.46620431726648e+18 0 0)
(-7.4448377479147e+18 0 0)
(-7.42269492092627e+18 0 0)
(-7.39974110647157e+18 0 0)
(-7.3759367172446e+18 0 0)
(-7.35113382473656e+18 0 0)
(-7.32529772133876e+18 0 0)
(-7.29844887845811e+18 0 0)
(-7.27018867050781e+18 0 0)
(-7.24071340904494e+18 0 0)
(-7.20994534538766e+18 0 0)
(-7.17738946452888e+18 0 0)
(-7.14344031607272e+18 0 0)
(-7.1076539278704e+18 0 0)
(-7.06993697438512e+18 0 0)
(-7.03037221325452e+18 0 0)
(-6.98854136716041e+18 0 0)
(-6.9445179521237e+18 0 0)
(-6.89809376008261e+18 0 0)
(-6.84901411006081e+18 0 0)
(-6.79736698048401e+18 0 0)
(-6.74279181614318e+18 0 0)
(-6.68507408433729e+18 0 0)
(-6.62431770327174e+18 0 0)
(-6.56012666225348e+18 0 0)
(-6.49239781985642e+18 0 0)
(-6.42086624549667e+18 0 0)
(-6.34558879382949e+18 0 0)
(-6.26618572935214e+18 0 0)
(-6.18240285625916e+18 0 0)
(-6.09441654440041e+18 0 0)
(-6.00178094891755e+18 0 0)
(-5.90426844187433e+18 0 0)
(-5.80197588508187e+18 0 0)
(-5.69467010295477e+18 0 0)
(-5.58205882571529e+18 0 0)
(-5.46421016017083e+18 0 0)
(-5.34089714066784e+18 0 0)
(-5.21204395890704e+18 0 0)
(-5.07772848794711e+18 0 0)
(-4.93752882161045e+18 0 0)
(-4.79160716143047e+18 0 0)
(-4.6401673697548e+18 0 0)
(-4.48281557635013e+18 0 0)
(-4.31957990813414e+18 0 0)
(-4.15074190719923e+18 0 0)
(-3.97629391532039e+18 0 0)
(-3.79601955268329e+18 0 0)
(-3.6102276069007e+18 0 0)
(-3.41907090318243e+18 0 0)
(-3.22224682661105e+18 0 0)
(-3.020200566579e+18 0 0)
(-2.81293423773745e+18 0 0)
(-2.6000945959802e+18 0 0)
(-2.38239225003744e+18 0 0)
(-2.15912908816646e+18 0 0)
(-1.93007987253995e+18 0 0)
(-1.69610675087213e+18 0 0)
(-1.45565844035024e+18 0 0)
(-1.20861121848961e+18 0 0)
(-9.54957046272229e+17 0 0)
(-6.93123022505116e+17 0 0)
(-4.22445983420383e+17 0 0)
(-1.41025740159189e+17 0 0)
(1.52362897723359e+17 0 0)
(4.59266761968058e+17 0 0)
(7.8350202936125e+17 0 0)
(1.13054669682613e+18 0 0)
(1.50148189817458e+18 0 0)
(1.87889240726569e+18 0 0)
(2.31443176828594e+18 0 0)
(2.88069200190741e+18 0 0)
(3.38387023098072e+18 0 0)
(3.62083205149255e+18 0 0)
(4.35758000424826e+18 0 0)
(6.83907459168652e+18 0 0)
(9.57853905585177e+18 0 0)
(1.03537837130048e+19 0 0)
(1.08230423306243e+19 0 0)
(1.32848663967553e+19 0 0)
(1.64754827475115e+19 0 0)
(1.66031215997003e+19 0 0)
(1.53297115081752e+19 0 0)
(1.58289572603877e+19 0 0)
(1.39599442207782e+19 0 0)
(1.14148115054875e+19 0 0)
(9.77131819323988e+18 0 0)
(6.38922476392284e+18 0 0)
(4.76541015105837e+18 0 0)
(4.46132632997069e+18 0 0)
(7.62746002653105e+18 0 0)
(1.22766204707107e+19 0 0)
(2.20799631791982e+19 0 0)
(3.51621005724678e+19 0 0)
(4.46945675351782e+19 0 0)
(5.45562295572533e+19 0 0)
(6.29994784252279e+19 0 0)
(6.47080158985108e+19 0 0)
(6.0851314622706e+19 0 0)
(5.32625813673324e+19 0 0)
(4.40091433603186e+19 0 0)
(3.2198455150389e+19 0 0)
(2.27850951858234e+19 0 0)
(1.40615291951818e+19 0 0)
(7.64281184362339e+18 0 0)
(5.16765041179587e+18 0 0)
(1.12608853396154e+18 0 0)
(4.28303767410942e+17 0 0)
(-2.38287492112009e+17 0 0)
(-3.24162274922528e+17 0 0)
(-4.64828043813908e+17 0 0)
(-5.6578550876203e+17 0 0)
(-6.27961398112142e+17 0 0)
(-6.59363464836329e+17 0 0)
(-6.71866952843536e+17 0 0)
(-6.74101269744801e+17 0 0)
(-6.69999093660205e+17 0 0)
(-6.62201251828421e+17 0 0)
(-6.53238688224596e+17 0 0)
(-6.44707495643422e+17 0 0)
(-6.35579802388382e+17 0 0)
(-6.2638845472586e+17 0 0)
(-6.16702573647357e+17 0 0)
(-6.06823986402696e+17 0 0)
(-5.96750650207967e+17 0 0)
(-5.86499698250245e+17 0 0)
(-5.75982265287703e+17 0 0)
(-5.65627627656145e+17 0 0)
(-5.55440376641682e+17 0 0)
(-5.4501949787237e+17 0 0)
(-5.3462418033886e+17 0 0)
(-5.24254249125804e+17 0 0)
(-5.13944672867115e+17 0 0)
(-5.03714081804712e+17 0 0)
(-4.93580797372448e+17 0 0)
(-4.8356018074428e+17 0 0)
(-4.73666300523223e+17 0 0)
(-4.63910253652889e+17 0 0)
(-4.54303426526937e+17 0 0)
(-4.44849444162992e+17 0 0)
(-4.35553426834153e+17 0 0)
(-4.26465845673469e+17 0 0)
(-4.17529708606984e+17 0 0)
(-4.08775230328699e+17 0 0)
(-4.00202496523466e+17 0 0)
(-3.91814755246545e+17 0 0)
(-3.83612548005317e+17 0 0)
(-3.75595808641208e+17 0 0)
(-3.67763618233339e+17 0 0)
(-3.60114691334112e+17 0 0)
(-3.52646337379321e+17 0 0)
(-3.45360180366368e+17 0 0)
(-3.38241341033111e+17 0 0)
(-3.31297079495172e+17 0 0)
(-3.24532244240989e+17 0 0)
(-3.17925888942929e+17 0 0)
(-3.11479403118593e+17 0 0)
(-3.05192556250831e+17 0 0)
(-2.99059434100254e+17 0 0)
(-2.93076175091373e+17 0 0)
(-2.87238580314819e+17 0 0)
(-2.81542577269719e+17 0 0)
(-2.75984037628258e+17 0 0)
(-2.70559071423822e+17 0 0)
(-2.65262747393879e+17 0 0)
(-2.60093441748917e+17 0 0)
(-2.55029160691426e+17 0 0)
(-2.5011102685877e+17 0 0)
(-2.45300772739943e+17 0 0)
(-2.40597771839954e+17 0 0)
(-2.36002289603116e+17 0 0)
(-2.3151145948348e+17 0 0)
(-2.27122487615481e+17 0 0)
(-2.22832349636055e+17 0 0)
(-2.18638295400557e+17 0 0)
(-2.14537434080745e+17 0 0)
(-2.10527182953051e+17 0 0)
(-2.06604839569762e+17 0 0)
(-2.02767968791513e+17 0 0)
(-1.99014062799009e+17 0 0)
(-1.95340832101354e+17 0 0)
(-1.91745782477346e+17 0 0)
(-1.88227087019045e+17 0 0)
(-1.84779928742129e+17 0 0)
(-1.81408861569725e+17 0 0)
(-1.78060408364606e+17 0 0)
(-1.74882837487037e+17 0 0)
(-1.71731905683809e+17 0 0)
(-1.6864751923698e+17 0 0)
(-1.65628019763628e+17 0 0)
(-1.62674287328686e+17 0 0)
(-1.59783215835126e+17 0 0)
(-1.56942436007685e+17 0 0)
(-1.54140169820319e+17 0 0)
(-1.51514800842524e+17 0 0)
(-1.48885668434889e+17 0 0)
(-1.46324331243364e+17 0 0)
(-1.43769833703735e+17 0 0)
(-1.4136911639239e+17 0 0)
(-1.39054338094753e+17 0 0)
(-1.36714239740782e+17 0 0)
(-1.34536597644664e+17 0 0)
(-1.32436821519245e+17 0 0)
(-1.30426734886812e+17 0 0)
(-1.286452838868e+17 0 0)
(-1.26988236359954e+17 0 0)
(-1.25470578179354e+17 0 0)
(-1.23265036666926e+17 0 0)
)
;

boundaryField
{
    electrode
    {
        type            calculated;
        value           uniform (-1.04424997771429e+19 0 0);
    }
    ground
    {
        type            calculated;
        value           uniform (-1.22779601482462e+17 0 0);
    }
    otherfaces
    {
        type            empty;
    }
}


// ************************************************************************* //
