/*--------------------------------*- C++ -*----------------------------------*\
| =========                 |                                                 |
| \\      /  F ield         | foam-extend: Open Source CFD                    |
|  \\    /   O peration     | Version:     4.0                                |
|   \\  /    A nd           | Web:         http://www.foam-extend.org         |
|    \\/     M anipulation  |                                                 |
\*---------------------------------------------------------------------------*/
FoamFile
{
    version     2.0;
    format      ascii;
    class       volScalarField;
    location    "4e-07";
    object      N_electronMean;
}
// * * * * * * * * * * * * * * * * * * * * * * * * * * * * * * * * * * * * * //

dimensions      [0 0 0 1 0 0 0];

internalField   nonuniform List<scalar> 
300
(
6.06519895729242e+16
6.06567217778674e+16
6.06608716554288e+16
6.06621621067484e+16
6.06605653485218e+16
6.06556516919228e+16
6.06471331919565e+16
6.06348076514196e+16
6.06184966087564e+16
6.05980546323235e+16
6.05733653522053e+16
6.05443381071989e+16
6.05109047598216e+16
6.04730170729198e+16
6.0430644707888e+16
6.03837732185402e+16
6.03324023325175e+16
6.02765444640649e+16
6.02162232967412e+16
6.0151472470059e+16
6.00823344409978e+16
6.00088594487264e+16
5.99311045602986e+16
5.9849132749744e+16
5.97630122833312e+16
5.96728162998588e+16
5.95786220067925e+16
5.94805099340011e+16
5.93785634102777e+16
5.92728678195889e+16
5.91635102823519e+16
5.9050579876927e+16
5.89341671211889e+16
5.88143629025594e+16
5.8691257875414e+16
5.85649421183724e+16
5.84355048359217e+16
5.83030341563371e+16
5.81676168770711e+16
5.80293382165583e+16
5.78882817397484e+16
5.77445292753517e+16
5.75981606937458e+16
5.74492537613005e+16
5.72978841080326e+16
5.71441252163189e+16
5.69880484562038e+16
5.6829723192508e+16
5.66692170217512e+16
5.65065961401711e+16
5.63419260169881e+16
5.61752720719333e+16
5.60066998555691e+16
5.58362748016919e+16
5.56640615854139e+16
5.54901234351465e+16
5.53145216217853e+16
5.51373151808757e+16
5.49585608290376e+16
5.47783128943855e+16
5.45966233104621e+16
5.441354164271e+16
5.42291150496667e+16
5.40433887137272e+16
5.38564068176458e+16
5.36682125008963e+16
5.34788468671286e+16
5.32883485827286e+16
5.30967539345833e+16
5.29040968701838e+16
5.27104090179282e+16
5.25157199557688e+16
5.23200579403465e+16
5.2123450120181e+16
5.19259221701163e+16
5.17274987593109e+16
5.15282043303377e+16
5.13280631126892e+16
5.11270984146409e+16
5.09253323451071e+16
5.07227861159709e+16
5.05194792781144e+16
5.03154289905691e+16
5.01106500105393e+16
4.9905154901941e+16
4.96989545819744e+16
4.94920581546859e+16
4.92844721650948e+16
4.90762004442375e+16
4.88672443708612e+16
4.8657602751268e+16
4.84472723627919e+16
4.82362486457045e+16
4.80245246288449e+16
4.78120899164076e+16
4.75989305910064e+16
4.73850290989758e+16
4.71703641211086e+16
4.69549104294336e+16
4.67386389158594e+16
4.65215165727702e+16
4.63035060927874e+16
4.60845659997714e+16
4.5864651080984e+16
4.56437117923644e+16
4.54216938534631e+16
4.51985381869845e+16
4.49741806274255e+16
4.47485518781702e+16
4.45215769757118e+16
4.42931745550014e+16
4.40632564726023e+16
4.38317275927471e+16
4.35984858234921e+16
4.33634218109371e+16
4.31264186006114e+16
4.28873520700583e+16
4.26460908046063e+16
4.24024948392778e+16
4.21564145032884e+16
4.19076901877066e+16
4.16561523730058e+16
4.14016214676212e+16
4.1143907744933e+16
4.08828101816533e+16
4.06181145289802e+16
4.03495924154414e+16
4.00770008300247e+16
3.98000809162372e+16
3.95185568800366e+16
3.92321353053628e+16
3.89405044068372e+16
3.86433330443579e+16
3.83402696599878e+16
3.80309422710592e+16
3.77149587766058e+16
3.73919054455496e+16
3.70613450427079e+16
3.6722816478357e+16
3.63758344956133e+16
3.6019888221892e+16
3.56544398657505e+16
3.52789241528412e+16
3.48927481854468e+16
3.44952921725616e+16
3.40859098770891e+16
3.36639277633448e+16
3.32286440486939e+16
3.27793279015728e+16
3.23152200947482e+16
3.18355350162613e+16
3.13394611907345e+16
3.08261623627146e+16
3.0294779634045e+16
2.97444323870761e+16
2.91742201460371e+16
2.85832259023592e+16
2.79705193422081e+16
2.73351588687393e+16
2.66761934530655e+16
2.59926650421149e+16
2.52836070257693e+16
2.45480373691825e+16
2.37849442522545e+16
2.2993252774329e+16
2.2171752183154e+16
2.13189969733758e+16
2.0433254663481e+16
1.95125681569204e+16
1.85549646956702e+16
1.75587416776295e+16
1.65227453664161e+16
1.54467314382139e+16
1.43319236147264e+16
1.31816819263057e+16
1.20020496500828e+16
1.08021753708017e+16
9.59463615161066e+15
8.39541273889597e+15
7.22339946988563e+15
6.09940997326501e+15
5.04465291300266e+15
4.07883118506155e+15
3.21814350248673e+15
2.47353870950198e+15
1.84954800590806e+15
1.34402541020521e+15
948800848947320
651012116241631
434962270113325
284108530868727
182728588311405
117071586098196
75984628451269.3
50958549481465.3
36006744657987
27126372540258.6
21774687723570.9
18427615656866.6
16254559724280.2
14823586404827.2
13849098236757.6
13118518734805.2
12514827098575.9
11982968243594.5
11497482613752.9
11045807052421.5
10621132310535.8
10219279880614.9
9837440310074.95
9473610089302.56
9126201280884.17
8793891330410.73
8475570294902.74
8170283480384.25
7877192164205.2
7595556434564.9
7324719201930.86
7064082946810.7
6813111062423.96
6571336312794.95
6338298506002.94
6113583745778.14
5896817353134.13
5687649243407
5485754609725.88
5290833646208.49
5102602503457.38
4920798246445.98
4745172357245.6
4575486835429.12
4411523095090.29
4253068285017.54
4099920407536.73
3951891879870.54
3808802063576.45
3670475331874.54
3536750142099.23
3407466505044.28
3282471122157.64
3161622069388.71
3044779558598.77
2931815431740.85
2822604914591.15
2717027338210.61
2614969655289.75
2516319783721.16
2420970854708.52
2328816695290.38
2239755617938.03
2153689943853.18
2070522339284.04
1990159405006.18
1912508337356.98
1837481758225.46
1764998856152.46
1694981014047.16
1627353498162.93
1562046009678.06
1498988599912.23
1438115425725.9
1379359357323.92
1322655425285.75
1267936968855.6
1215139368958.93
1164203377559.31
1115072421688.47
1067694109999.74
1022016555952.69
977991666942.862
935569942841.535
894702084911.531
855338518149.415
817434319108.64
780945903775.687
745831618150.454
712050475122.721
679560327004.545
648321660495.797
618298254863.84
589454948017.422
561752299430.834
535154614223.178
509631149065.805
485147320727.054
461669862467.829
439171196421.438
417622799595.575
396997669965.748
377270819667.04
358414255885.818
340401896005.006
323214695192.802
306835133131.739
291255388769.579
276473875256.639
262498822621.942
249322470339.812
237150413365.044
225932436507.17
)
;

boundaryField
{
    electrode
    {
        type            calculated;
        value           uniform 6.06519895758709e+16;
    }
    ground
    {
        type            calculated;
        value           uniform 220983925924.84;
    }
    otherfaces
    {
        type            empty;
    }
}


// ************************************************************************* //
