/*--------------------------------*- C++ -*----------------------------------*\
| =========                 |                                                 |
| \\      /  F ield         | foam-extend: Open Source CFD                    |
|  \\    /   O peration     | Version:     4.0                                |
|   \\  /    A nd           | Web:         http://www.foam-extend.org         |
|    \\/     M anipulation  |                                                 |
\*---------------------------------------------------------------------------*/
FoamFile
{
    version     2.0;
    format      ascii;
    class       volScalarField;
    location    "4e-07";
    object      Phi;
}
// * * * * * * * * * * * * * * * * * * * * * * * * * * * * * * * * * * * * * //

dimensions      [0 0 0 1 0 0 0];

internalField   nonuniform List<scalar> 
300
(
699.999964385931
699.999749460088
699.999255420604
699.998527798513
699.99755463342
699.996330749811
699.994859404745
699.993136872712
699.991160012169
699.988926323572
699.986432853413
699.983676517533
699.980654223323
699.977362917298
699.973799630287
699.969961531717
699.965845980818
699.961450571736
699.95677317195
699.951811955248
699.94656542953
699.941032456501
699.935212266617
699.929104469557
699.922709051036
699.916026378968
699.909057189698
699.901802577456
699.894263981575
699.886443168916
699.878342206293
699.869963446142
699.861309499436
699.852383207348
699.8431876204
699.833725971655
699.824001650198
699.814018178309
699.803779187843
699.793288397107
699.782549589683
699.771566596317
699.760343274416
699.748883492659
699.737191115305
699.725269988316
699.713123926747
699.700756703811
699.688172040235
699.67537359839
699.662364967861
699.64914966926
699.63573113614
699.62211272125
699.60829768319
699.594289188527
699.580090305194
699.565704000479
699.551133139003
699.536380479783
699.52144867386
699.506340261583
699.491057676689
699.475603233941
699.459979135067
699.444187469441
699.42823020289
699.412109183601
699.395826138006
699.379382666489
699.36278024608
699.346020221997
699.32910380535
699.31203207755
699.294805976782
699.277426296618
699.259893687169
699.24220863818
699.224371493825
699.206382413574
699.188241402264
699.169948276754
699.151502663015
699.132903997138
699.114151499895
699.095244176152
699.076180801703
699.056959908615
699.037579768097
699.018038382236
698.998333473505
698.978462440263
698.958422378739
698.938210033265
698.917821785234
698.897253635363
698.876501173394
698.855559558575
698.834423489767
698.813087176625
698.791544310989
698.769788041684
698.747810917415
698.725604881228
698.703161209742
698.680470471774
698.657522502009
698.634306328505
698.610810141274
698.58702123055
698.562925925271
698.538509540389
698.513756302171
698.488649278066
698.463170313331
698.437299933738
698.41101726738
698.384299959832
698.357124066265
698.329463958001
698.30129219621
698.272579445188
698.243294313383
698.213403245174
698.182870378307
698.151657394688
698.119723353852
698.087024550752
698.053514322781
698.019142873568
697.983857077433
697.94760027126
697.910312038882
697.871927992947
697.832379498335
697.791593445917
697.749491968906
697.705992143451
697.661005667278
697.614438545953
697.566190717703
697.516155656274
697.464219959735
697.410262889676
697.354155837748
697.295761809137
697.234934770242
697.171518961741
697.105348169825
697.036244784666
696.964018847118
696.88846697463
696.809370964121
696.726496389917
696.639590852008
696.548381969509
696.452575045275
696.351850238205
696.245859377635
696.134222121742
696.016521231335
695.89229654496
695.761038918095
695.622185520625
695.475102227331
695.319061725616
695.153258941439
694.976834851454
694.788744420214
694.587502086349
694.371282806703
694.138121227755
693.885692536604
693.610909013826
693.309876059755
692.978408406848
692.611611451983
692.20348995471
691.747688901402
691.236802189289
690.662847366832
690.017204723267
689.290923788334
688.475037289361
687.560446716617
686.540184438241
685.406142565063
684.150694904314
682.771535005293
681.266328921432
679.630990623613
677.864100632538
675.966547788292
673.939109376357
671.783327638393
669.500593707322
667.092029472345
664.559772445252
661.904925630456
659.128189473782
656.231145994838
653.216021180362
650.084159171758
646.836462386841
643.474138739309
639.997960087135
636.40881877485
632.708351465
628.898623577952
624.981649176436
620.958920865981
616.831972206357
612.602254931833
608.270793330357
603.838904155195
599.307934314863
594.679009502222
589.95371275949
585.133961957857
580.221602608548
575.218425685364
570.126143253301
564.946429205737
559.68089713068
554.331091086447
548.89853291732
543.384666569411
537.790955824237
532.118829665583
526.369761151661
520.545223315816
514.646688313856
508.675669265103
502.63358686412
496.521933936792
490.342274815197
484.096119689157
477.784922487073
471.410086098584
464.972973336229
458.474914908095
451.917217086891
445.301165974823
438.628028587893
431.899052642153
425.115465754382
418.278477748056
411.389281445102
404.449053218404
397.458952087017
390.420118117968
383.333671417787
376.200712101282
369.022320726707
361.799559076851
354.533469268598
347.225073308375
339.875372274086
332.485346334791
325.055954677446
317.588137622948
310.082814790376
302.540888544136
294.96323698979
287.350722631949
279.704177334843
272.024424202527
264.312244875579
256.568424959037
248.793697683896
240.988812840715
233.154459549325
225.291353316813
217.400147053031
209.481531223667
201.536128762451
193.564601305504
185.567532285001
177.545556301754
169.499218651041
161.429125163924
153.335785448551
145.219779297745
137.081579933794
128.921742613657
120.740703881466
112.538995114581
104.317017846292
96.0752806508015
87.8141501124177
79.5341154520398
71.2355105102782
62.9188055613717
54.5843021289288
46.2324556352589
37.8635370461674
29.477987041365
21.0760445756247
12.6581349402147
4.22446489602979
)
;

boundaryField
{
    electrode
    {
        type            fixedValue;
        value           uniform 700;
    }
    ground
    {
        type            fixedValue;
        value           uniform 0;
    }
    otherfaces
    {
        type            empty;
    }
}


// ************************************************************************* //
