/*--------------------------------*- C++ -*----------------------------------*\
| =========                 |                                                 |
| \\      /  F ield         | foam-extend: Open Source CFD                    |
|  \\    /   O peration     | Version:     4.0                                |
|   \\  /    A nd           | Web:         http://www.foam-extend.org         |
|    \\/     M anipulation  |                                                 |
\*---------------------------------------------------------------------------*/
FoamFile
{
    version     2.0;
    format      ascii;
    class       volScalarField;
    location    "4e-07";
    object      PhiMean;
}
// * * * * * * * * * * * * * * * * * * * * * * * * * * * * * * * * * * * * * //

dimensions      [0 0 0 1 0 0 0];

internalField   nonuniform List<scalar> 
300
(
699.81671885966
699.801101284423
699.785099116727
699.768798557518
699.752222492996
699.735314680834
699.718059644578
699.700442589585
699.682449997702
699.664071518517
699.645298895733
699.626125974212
699.606548208999
699.586562535999
699.56616719481
699.545361554637
699.52414597323
699.502521697435
699.480490744555
699.458055791873
699.435220098988
699.411987429185
699.388361980365
699.364348315712
699.339951294323
699.315176157235
699.29002838197
699.264513637774
699.238637784502
699.212406774538
699.185826591634
699.158903439726
699.131643660857
699.104053552097
699.076139350585
699.047907211783
699.019363180708
698.990513200628
698.961363086399
698.93191849005
698.902184909845
698.872167702718
698.841872034772
698.811302877343
698.780465005095
698.749362994485
698.718001223151
698.686383884546
698.654515004012
698.622398501911
698.590038244633
698.557438237456
698.524602549991
698.491535384139
698.458240896754
698.424723160001
698.390986054044
698.357033254511
698.322868230825
698.288494230239
698.253914284484
698.219131208871
698.184147589451
698.148965772668
698.113588154936
698.078017163962
698.042254974512
698.006303515976
697.970164483335
697.933839335854
697.897329294839
697.860635328768
697.823758324462
697.786699145018
697.749458427574
697.712036713761
697.674434646126
697.63665288434
697.598692075221
697.56055259008
697.522234951369
697.483739423017
697.445065970322
697.406214302827
697.367183816726
697.32797382606
697.288583484737
697.249011601351
697.209256621896
697.169316749914
697.129189868386
697.088873513292
697.048365378995
697.007662762904
696.966762499805
696.925660978733
696.884354103675
696.842837301275
696.801105449224
696.759152916121
696.716973569806
696.674560674392
696.631906802009
696.589004188158
696.545844357812
696.502418123652
696.458715667748
696.41472630702
696.370438686819
696.325840566526
696.280918671434
696.23565866427
696.190045037933
696.144061168547
696.097689257333
696.050910104287
696.003703334998
695.956047414299
695.907919246207
695.859293968568
695.810144826702
695.760443352939
695.710159030786
695.659259553177
695.607710426765
695.555474489576
695.50251168965
695.44877912666
695.394230526121
695.338816023071
695.282481896088
695.225170328079
695.166819032901
695.107360799101
695.046723208526
694.98482882803
694.9215943392
694.856929759231
694.790738096539
694.722915037737
694.653347944875
694.58191504295
694.508484671133
694.432914433349
694.35505052172
694.274727043983
694.191764362044
694.105967753024
694.017125566366
693.925007411881
693.829363123689
693.729920105951
693.626380660855
693.518419977642
693.405681925061
693.287775486053
693.16427050706
693.034692666471
692.898517005869
692.755159703043
692.603969626629
692.444216202532
692.275073043156
692.09559866505
691.904707567318
691.701124705936
691.483309437883
691.24937896896
690.997036435418
690.723515619951
690.425544116103
690.099239380885
689.74000367476
689.342463443801
688.900479769991
688.407115000625
687.85455625838
687.234234382512
686.536927295505
685.752918057669
684.87231059187
683.885311639369
682.782623778404
681.555785946914
680.197546463513
678.70202769025
677.064824039737
675.283371548134
673.356583813083
671.284349335749
669.067782915155
666.709042410462
664.21072117592
661.57569598522
658.807082636643
655.908054178351
652.88175399062
649.731200025868
646.459290978776
643.068915918854
639.562910943041
635.943984140216
632.214751655103
628.377810727489
624.435711773637
620.390963440467
616.246073778873
612.003511687983
607.66566671732
603.234829765032
598.713224151667
594.10302759952
589.406359489294
584.625311427474
579.761956633043
574.818329015221
569.796451229415
564.69832912638
559.525907667007
554.281062146699
548.965606390638
543.581294572149
538.129830039315
532.612863790424
527.032004107681
521.388814726099
515.684821321872
509.921512558498
504.100339971118
498.222722375115
492.29004050599
486.303643993655
480.264861194437
474.175026894849
468.035468234024
461.847478669271
455.612312653822
449.331187931841
443.005287763479
436.635762505381
430.223731257262
423.770282725377
417.276476303609
410.743342770415
404.171884998311
397.563078800842
390.917873548132
384.237192629386
377.521934182068
370.772971356649
363.991153035963
357.177304238459
350.332226767044
343.456699622331
336.551479637314
329.617301723224
322.654879618358
315.664906116905
308.648053813379
301.604975462484
294.536304518057
287.4426554695
280.324624297707
273.18278878314
266.017709190862
258.829928195542
251.619972324003
244.388350702982
237.135558305557
229.862072215676
222.568358035516
215.25486221308
207.922022788132
200.570256736442
193.199976220323
185.81157025276
178.405426663294
170.981907373518
163.541377183246
156.084171512721
148.610633349102
141.121072297549
133.615810789763
126.095133326888
118.559343266411
111.008700610099
103.443490952212
95.8639504943272
88.2703485347059
80.662897960209
73.0418531764839
65.4074042071419
57.7597918546965
50.0991836517427
42.4258081244937
34.7398104481834
27.0414081257926
19.3307240926567
11.6079661577962
3.87323738923198
)
;

boundaryField
{
    electrode
    {
        type            calculated;
        value           uniform 699.999999999969;
    }
    ground
    {
        type            calculated;
        value           uniform 0;
    }
    otherfaces
    {
        type            empty;
    }
}


// ************************************************************************* //
