/*--------------------------------*- C++ -*----------------------------------*\
| =========                 |                                                 |
| \\      /  F ield         | foam-extend: Open Source CFD                    |
|  \\    /   O peration     | Version:     4.0                                |
|   \\  /    A nd           | Web:         http://www.foam-extend.org         |
|    \\/     M anipulation  |                                                 |
\*---------------------------------------------------------------------------*/
FoamFile
{
    version     2.0;
    format      ascii;
    class       volScalarField;
    location    "4e-07";
    object      Sy_electron;
}
// * * * * * * * * * * * * * * * * * * * * * * * * * * * * * * * * * * * * * //

dimensions      [1 -3 -1 0 0 0 0];

internalField   nonuniform List<scalar> 
300
(
4.17622244543676e-12
4.1764295143783e-12
4.1755171502139e-12
4.17379701609388e-12
4.17158003416864e-12
4.16869910845576e-12
4.16524586583978e-12
4.16121171153543e-12
4.15657767823793e-12
4.1513486931583e-12
4.14552415599833e-12
4.139101621324e-12
4.13207976033667e-12
4.12445764689274e-12
4.11623468036959e-12
4.10741064448404e-12
4.09798580309948e-12
4.08796096290659e-12
4.07733749393695e-12
4.06611735596025e-12
4.05430312916117e-12
4.04189801257894e-12
4.02890584792773e-12
4.01533110489099e-12
4.00117882043615e-12
3.98645470963899e-12
3.97116503534703e-12
3.95531658000363e-12
3.93891669608201e-12
3.92197321082122e-12
3.90449433203767e-12
3.8864887517139e-12
3.86796556289694e-12
3.84893414566427e-12
3.82940419608369e-12
3.80938568621724e-12
3.78888880123693e-12
3.76792394320992e-12
3.74650169380966e-12
3.72463276539752e-12
3.70232798800942e-12
3.67959829637011e-12
3.65645469068542e-12
3.63290822320004e-12
3.60896998524603e-12
3.58465108616071e-12
3.55996263936041e-12
3.53491574653469e-12
3.50952148587024e-12
3.48379091532277e-12
3.45773503120033e-12
3.43136484418702e-12
3.40469127129609e-12
3.37772522014789e-12
3.35047751896201e-12
3.32295894196559e-12
3.29518017401717e-12
3.26715181854517e-12
3.23888440636406e-12
3.21038838585013e-12
3.18167411265487e-12
3.15275185947657e-12
3.12363182092314e-12
3.09432403703103e-12
3.0648385001017e-12
3.03518517002806e-12
3.00537383537324e-12
2.97541419037606e-12
2.94531583151536e-12
2.91508823961927e-12
2.88474080400962e-12
2.85428277283748e-12
2.82372328427338e-12
2.7930714134144e-12
2.76233605871375e-12
2.73152602393986e-12
2.70064999990318e-12
2.66971654847229e-12
2.63873415734407e-12
2.60771105085117e-12
2.57665548027955e-12
2.54557549992474e-12
2.51447898698963e-12
2.48337373102347e-12
2.45226732018399e-12
2.42116722966212e-12
2.39008081631334e-12
2.35901525398027e-12
2.32797750751243e-12
2.29697445848873e-12
2.26601280249791e-12
2.23509894736737e-12
2.20423934804992e-12
2.17344019154994e-12
2.14270745354123e-12
2.11204695716301e-12
2.0814643311803e-12
2.05096502177601e-12
2.02055427217865e-12
1.99023712915785e-12
1.96001848066595e-12
1.9299030111399e-12
1.89989511490425e-12
1.86999912271211e-12
1.84021908813656e-12
1.81055883597698e-12
1.78102205580789e-12
1.7516121461479e-12
1.72233234691341e-12
1.69318568542453e-12
1.6641749454662e-12
1.63530271338367e-12
1.60657133388345e-12
1.57798293666739e-12
1.54953946031807e-12
1.52124257666319e-12
1.49309373125252e-12
1.46509422926413e-12
1.43724512450225e-12
1.40954722568826e-12
1.38200109813334e-12
1.35460717895099e-12
1.32736561020014e-12
1.30027637830665e-12
1.27333930625851e-12
1.24655398812852e-12
1.21991978417034e-12
1.1934359675362e-12
1.1671016080699e-12
1.14091563338572e-12
1.11487682991502e-12
1.08898387135645e-12
1.06323535503754e-12
1.03762979324765e-12
1.0121656043016e-12
9.868412787004e-13
9.61655333675847e-13
9.36606277835202e-13
9.11692702421384e-13
8.86913391577247e-13
8.62267274372773e-13
8.37753478485702e-13
8.13371408133115e-13
7.89120795279529e-13
7.65001742731876e-13
7.41014881930914e-13
7.17161282023761e-13
6.9344257360418e-13
6.69861050407964e-13
6.46419619741319e-13
6.23122039671454e-13
5.99972909528932e-13
5.76977623480246e-13
5.54142619767963e-13
5.31475361876759e-13
5.08984368893683e-13
4.8667931287381e-13
4.64571055927064e-13
4.42671721458879e-13
4.20994866340638e-13
3.99555343316432e-13
3.78368243833839e-13
3.57451237657856e-13
3.36828295399426e-13
3.16518340507421e-13
2.96524929237251e-13
2.76877410163536e-13
2.57681614700619e-13
2.39019972974681e-13
2.20826427384302e-13
2.03022628345824e-13
1.85678357526228e-13
1.68891359592568e-13
1.52590637926426e-13
1.36659174046074e-13
1.21155890984453e-13
1.06133059061355e-13
9.15978083269389e-14
7.76797118425368e-14
6.45055964438969e-14
5.22352822596002e-14
4.10987206369609e-14
3.13176645749589e-14
2.30517730919876e-14
1.62682210315081e-14
1.06616063624079e-14
6.85996790328282e-15
4.4114587116562e-15
2.95440483227536e-15
2.15923347210777e-15
1.79406612082898e-15
1.81650225035245e-15
2.18208560807991e-15
4.1439276543906e-15
1.48542400333916e-14
9.95522290677071e-14
2.9629837250615e-12
1.11925212713554e-10
5.70667828834605e-10
9.95417045305699e-10
1.00223908214934e-09
7.7526175337628e-10
5.62358807526991e-10
4.20952645022202e-10
3.40265350015239e-10
2.9568448651673e-10
2.729008211441e-10
2.62515438752705e-10
2.59057404693482e-10
2.58917784453773e-10
2.61072415009889e-10
2.64548226878083e-10
2.68621992634076e-10
2.72686655454445e-10
2.76184209084099e-10
2.79311529102099e-10
2.81935612820455e-10
2.8397660664612e-10
2.85386299731459e-10
2.86140256686534e-10
2.86298830170629e-10
2.85851045487829e-10
2.84821555685121e-10
2.8324332293103e-10
2.81155379849343e-10
2.78599669769526e-10
2.75619716253001e-10
2.72259557620331e-10
2.68562956939598e-10
2.64572775879864e-10
2.60330400128491e-10
2.55875279041581e-10
2.51244098786887e-10
2.4646920498198e-10
2.41581702079163e-10
2.3661251078379e-10
2.31589762098524e-10
2.26538864664603e-10
2.21482477553787e-10
2.16440666964758e-10
2.11431066841716e-10
2.06469045668303e-10
2.01567887972422e-10
1.96738915747516e-10
1.91991982030401e-10
1.87335001020994e-10
1.82773751059958e-10
1.78312999639461e-10
1.73956978943722e-10
1.69708690532997e-10
1.65569991437747e-10
1.61541888944374e-10
1.57624648673031e-10
1.53817906076518e-10
1.5012075924309e-10
1.46531847530272e-10
1.43049430912533e-10
1.39671368427521e-10
1.36395257272044e-10
1.33216799776703e-10
1.30131147423748e-10
1.27135173319582e-10
1.24226263952284e-10
1.2140188167391e-10
1.18659506366826e-10
1.15996631433163e-10
1.13410777080813e-10
1.10899507805333e-10
1.08460448403147e-10
1.06091298085225e-10
1.03789843875725e-10
1.01553971190944e-10
9.93816750924689e-11
9.72710725190417e-11
9.52203978480211e-11
9.32280251103377e-11
9.12505257486182e-11
8.92454463180706e-11
8.72876666731601e-11
8.5370291499315e-11
8.34935529030235e-11
8.16586823299199e-11
7.98673240966528e-11
7.81210768556711e-11
7.64211727329559e-11
7.46821959549462e-11
7.28246058632636e-11
7.10000312829424e-11
6.92148476580199e-11
6.74757455549656e-11
6.56507907550502e-11
6.35938666546334e-11
6.15883454444523e-11
5.95679295351666e-11
5.70608066701605e-11
5.46440438278673e-11
5.14821564586259e-11
4.79365462138806e-11
4.33449135846999e-11
3.69508427578704e-11
)
;

boundaryField
{
    electrode
    {
        type            zeroGradient;
    }
    ground
    {
        type            zeroGradient;
    }
    otherfaces
    {
        type            empty;
    }
}


// ************************************************************************* //
