/*--------------------------------*- C++ -*----------------------------------*\
| =========                 |                                                 |
| \\      /  F ield         | foam-extend: Open Source CFD                    |
|  \\    /   O peration     | Version:     4.0                                |
|   \\  /    A nd           | Web:         http://www.foam-extend.org         |
|    \\/     M anipulation  |                                                 |
\*---------------------------------------------------------------------------*/
FoamFile
{
    version     2.0;
    format      ascii;
    class       volScalarField;
    location    "4e-07";
    object      Te;
}
// * * * * * * * * * * * * * * * * * * * * * * * * * * * * * * * * * * * * * //

dimensions      [0 0 0 1 0 0 0];

internalField   nonuniform List<scalar> 
300
(
31924.2239778959
31924.2930991302
31924.1935488277
31923.9856333338
31923.7268398038
31923.3867782109
31922.9823652523
31922.5120807082
31921.9725793877
31921.3648815678
31920.6889532386
31919.9443899139
31919.1309485379
31918.2484025215
31917.296517476
31916.2750526998
31915.1837711792
31914.022440973
31912.7908339129
31911.4887258159
31910.1158976941
31908.6721327627
31907.1572194787
31905.5709486137
31903.9131082035
31902.1834911799
31900.3818883935
31898.5080827173
31896.56185866
31894.542996405
31892.4512627103
31890.2864216324
31888.0482312417
31885.7364345876
31883.3507674135
31880.8909567451
31878.3567163033
31875.7477494927
31873.0637499813
31870.3043989855
31867.4693667253
31864.5583142086
31861.570891092
31858.5067368525
31855.3654821716
31852.1467482892
31848.850148283
31845.4752857551
31842.0217587996
31838.4891574536
31834.8770636596
31831.1850562145
31827.4127053973
31823.5595775877
31819.6252338807
31815.6092302606
31811.5111191767
31807.330447487
31803.0667595386
31798.7195966336
31794.2884930317
31789.7729814563
31785.1725964917
31780.4868605187
31775.7152952059
31770.857426356
31765.9127688312
31760.8808364524
31755.7611417517
31750.5531919004
31745.2564964171
31739.8705565502
31734.3948686137
31728.8289357407
31723.1722512422
31717.4243054756
31711.584585582
31705.6525788206
31699.6277731501
31693.5096380631
31687.2976550651
31680.9912994096
31674.5900333098
31668.0933284266
31661.5006432043
31654.8114311164
31648.0251491599
31641.1412461252
31634.1591549647
31627.0783179141
31619.8981713743
31612.6181252251
31605.2376031686
31597.7560181776
31590.1727641381
31582.4872359098
31574.6988152137
31566.8068751219
31558.8107786838
31550.7098691833
31542.5034869867
31534.1909594
31525.7715826221
31517.2446551217
31508.6094519258
31499.8652196802
31491.0111997335
31482.0465985762
31472.9706020122
31463.7823730628
31454.4810378714
31445.0656998057
31435.5354203671
31425.8892208791
31416.1260947805
31406.2449783216
31396.2447553433
31386.1242635161
31375.8822816833
31365.5175150044
31355.0285945255
31344.4140875737
31333.6724590811
31322.80207358
31311.8012092364
31300.6680173149
31289.4005113878
31277.9965781422
31266.4539474998
31254.7701747998
31242.9426342707
31230.9684845313
31218.8446711974
31206.5679028355
31194.134591409
31181.540862316
31168.782540401
31155.8550802237
31142.7535368061
31129.4725633667
31116.0063546945
31102.3485819269
31088.4923869213
31074.4303140046
31060.1542337503
31045.6553355609
31030.9240124294
31015.9498076667
31000.7213981171
30985.226390501
30969.4513085364
30953.3815518203
30937.0011509857
30920.2927264555
30903.2373761412
30885.8145162024
30868.0017186449
30849.7744433326
30831.1059819728
30811.9675069615
30792.3275182012
30772.1493226669
30751.3950734283
30730.0345188965
30708.0212606214
30685.2606418716
30661.7058332131
30637.5327911192
30612.9203162297
30587.6161465619
30561.2432628915
30533.8978233687
30505.8574127772
30476.6887694134
30445.4843561403
30411.9522739102
30375.5695040793
30335.1011552863
30289.6574258448
30237.8081750681
30177.7584173548
30108.1145447461
30027.7806705405
29935.9685452874
29833.4924902126
29725.6869631203
29617.8803190128
29518.0888848998
29448.7082040417
29441.3126781926
29533.8771293884
29790.5629900576
30323.795503154
31304.6005307646
33008.3136203081
35978.6462042648
41083.4345384398
50441.9847323346
66959.0491387479
91892.7913584516
131585.612051211
187191.432807825
260604.43088584
345159.308838576
431225.420461272
510712.293125195
579804.761936487
638046.176991589
686628.298628774
727247.022097596
761474.368300005
790505.69204327
815286.063491689
836601.265296485
855087.514995696
871273.928581956
885567.245694846
898293.968432029
909723.724637701
920059.495204448
929441.952823779
938007.585957575
945880.178154105
953150.239089602
959892.561571958
966167.752116161
972025.366590971
977505.734462176
982641.487777935
987458.813141488
991978.397221104
996216.512844941
1000185.82292956
1003892.3932275
1007340.61514152
1010535.26541981
1013477.07410056
1016164.84677252
1018595.54245642
1020764.62713636
1022666.27563065
1024293.54607494
1025638.59559655
1026692.49471543
1027446.32930712
1027884.96518471
1028005.48940347
1027797.98278784
1027248.60489455
1026346.23187393
1025079.41630444
1023436.80433991
1021406.99405605
1018978.59041981
1016140.22633654
1012880.56722089
1009188.42772478
1005052.52476153
1000463.57466616
995409.701833226
989877.829266028
983858.537271042
977341.27651547
970314.838779026
962767.761232894
954688.330048552
946064.544513148
936884.073727528
927134.199586823
916801.740524571
905872.990054948
894333.622285675
882168.613430583
869362.158975566
855897.52032028
841757.320872317
826922.328154093
811379.584022396
795104.60496555
778069.134665654
760253.407469326
741626.153416115
722153.01776782
701796.424734152
680517.658991354
658282.145660791
635039.288925339
610731.488285336
585298.290216423
558666.726298509
530754.096824823
501454.763133526
470654.410748646
438206.932649847
403925.167947466
367572.316286075
328809.502409627
287190.450391626
242082.05514574
192592.297444957
)
;

boundaryField
{
    electrode
    {
        type            electronTemperature;
        seec            0.05;
        Tse             1000;
        Edepend         1;
        TFN             1000;
        field_emission  0;
        field_enhancement_factor 55;
        work_function   5;
        value           uniform 31924.2239778959;
    }
    ground
    {
        type            electronTemperature;
        seec            0.05;
        Tse             1000;
        Edepend         1;
        TFN             1000;
        field_emission  0;
        field_enhancement_factor 55;
        work_function   5;
        value           uniform 164689.792633318;
    }
    otherfaces
    {
        type            empty;
    }
}


// ************************************************************************* //
