/*--------------------------------*- C++ -*----------------------------------*\
| =========                 |                                                 |
| \\      /  F ield         | foam-extend: Open Source CFD                    |
|  \\    /   O peration     | Version:     4.0                                |
|   \\  /    A nd           | Web:         http://www.foam-extend.org         |
|    \\/     M anipulation  |                                                 |
\*---------------------------------------------------------------------------*/
FoamFile
{
    version     2.0;
    format      ascii;
    class       volScalarField;
    location    "4e-07";
    object      TeMean;
}
// * * * * * * * * * * * * * * * * * * * * * * * * * * * * * * * * * * * * * //

dimensions      [0 0 0 1 0 0 0];

internalField   nonuniform List<scalar> 
300
(
43551.0415304465
43552.2761502295
43552.1819709186
43550.9085644069
43549.2766178038
43547.1854599414
43544.6632874032
43541.7370061589
43538.4141748821
43534.7041054588
43530.6159293002
43526.1585307859
43521.3403805186
43516.1694321839
43510.6533510359
43504.7994796823
43498.6148200051
43492.1061078492
43485.2798050807
43478.14209589
43470.6989300553
43462.9559895099
43454.9187250647
43446.5923445268
43437.981807169
43429.0919967575
43419.9276057578
43410.4930940356
43400.7928232103
43390.8308714159
43380.6110144085
43370.13711427
43359.4130803469
43348.4425573501
43337.2290120296
43325.7756686938
43314.0856378288
43302.1620560669
43290.0079460774
43277.6261447092
43265.0193346488
43252.1902250837
43239.1414201106
43225.8753717254
43212.3944341372
43198.7008584114
43184.7967831147
43170.6842181718
43156.3649903783
43141.8407415924
43127.112931939
43112.1830720482
43097.0528556828
43081.7238628852
43066.1976351266
43050.4757688912
43034.5596604878
43018.45053622
43002.1496557221
42985.6582077018
42968.9772836492
42952.1080195921
42935.0512049826
42917.8074482755
42900.3777368879
42882.763195165
42864.964787609
42846.9833452211
42828.8196225805
42810.4743735741
42791.9482148115
42773.2414843787
42754.3546533758
42735.2882589144
42716.0425622691
42696.6175821223
42677.0135364939
42657.2309581486
42637.2700745941
42617.1309058679
42596.8137999406
42576.3191064009
42555.6468235607
42534.7967058197
42513.7684193794
42492.5618969189
42471.177257676
42449.6143598049
42427.8728318011
42405.9523702871
42383.852382709
42361.5721703948
42339.1116806519
42316.4705264881
42293.6480444683
42270.6438279757
42247.457257205
42224.0876560217
42200.534194198
42176.7960190609
42152.8724792275
42128.762389046
42104.464438436
42079.9777798011
42055.3013987976
42030.4340842661
42005.3744542087
41980.1210734662
41954.6726209694
41929.0276404403
41903.184587625
41877.1417789672
41850.8972901737
41824.4494203673
41797.7961817047
41770.9352421901
41743.8640670435
41716.580328804
41689.081903664
41661.3658786557
41633.4290690752
41605.2683106621
41576.8801594655
41548.2612479663
41519.4083661333
41490.3177962809
41460.9851686239
41431.406142883
41401.5763285345
41371.4906347178
41341.1435387942
41310.5294359366
41279.6424956652
41248.4757357647
41217.0214605018
41185.2725137473
41153.2212464152
41120.8587827244
41088.1758051035
41055.1627308672
41021.8091816276
40988.1036539826
40954.033462625
40919.5846634458
40884.7425287265
40849.4917646305
40813.8160019084
40777.697715053
40741.1168638158
40704.0513805174
40666.4785709937
40628.3732265272
40589.707682986
40550.4528239486
40510.5761131579
40470.0416754741
40428.8108355429
40386.8420837906
40344.0905905094
40300.5072082847
40256.0409291625
40210.6397111103
40164.2513898867
40116.8325012638
40068.3632634846
40018.8412119241
39968.2396891257
39916.465295178
39863.3266833824
39808.5575023349
39751.8566694054
39692.8119039575
39630.7711898422
39564.827905361
39493.9257303789
39416.8011131642
39331.8517367385
39237.2834201238
39131.249752536
39012.0281439885
38878.4452468886
38730.3840189395
38569.4519786131
38399.8918262587
38229.7485551293
38072.0350879179
37946.6221278604
37883.4919076874
37927.1356487721
38143.209424874
38632.3682653851
39556.8364746046
41185.8123711244
44029.2293448231
48869.7403920128
56861.7298820475
70593.474543235
92788.242192709
127247.980896229
176651.950909193
241608.562125573
318893.983824558
401870.95132918
482932.983480467
556312.247236696
619428.134089842
672239.773178111
715980.105675984
752197.490057596
782325.976841852
807538.788667891
828766.272157703
846763.668256423
862138.586516023
875375.074295583
886854.101910012
896877.555228085
905689.491717296
913486.839602987
920414.790686995
926583.051052592
932097.354636785
937049.984741195
941510.41378828
945535.694986121
949172.426687605
952458.735869906
955425.807093289
958099.065146332
960498.875199974
962641.423122881
964539.501171161
966202.854234399
967638.137890904
968849.908852549
969841.125114921
970612.83719919
971164.669408935
971494.9017442
971600.711140934
971478.296349407
971123.009937461
970529.543552676
969691.901930847
968603.642246809
967257.950904251
965647.874473885
963765.407171725
961602.703832845
959151.710476524
956404.141421016
953351.676897977
949985.834602252
946298.041168846
942279.603971094
937921.793077231
933215.80283403
928152.714818098
922723.487317174
916918.946722845
910729.863061415
904146.844448331
897160.305167754
889760.329457511
881936.925357891
873679.674935136
864977.772880578
855819.998535739
846194.784271636
836089.94065652
825492.717282259
814389.633509872
802766.461605617
790608.006043691
777898.207798747
764619.723125292
750754.151854147
736281.290509622
721179.403392572
705425.478308473
688994.128876049
671857.447730421
653985.055505329
635343.535731599
615896.113511807
595601.247908139
574412.078760946
552276.024210801
529132.891368874
504913.981755531
479538.624128675
452911.763662497
424921.513434547
395428.882404803
364259.800362169
331190.847987497
295901.434508149
257977.962427293
216834.291476568
171649.886496783
)
;

boundaryField
{
    electrode
    {
        type            calculated;
        value           uniform 43551.0415304776;
    }
    ground
    {
        type            calculated;
        value           uniform 146143.54304874;
    }
    otherfaces
    {
        type            empty;
    }
}


// ************************************************************************* //
