/*--------------------------------*- C++ -*----------------------------------*\
| =========                 |                                                 |
| \\      /  F ield         | foam-extend: Open Source CFD                    |
|  \\    /   O peration     | Version:     4.0                                |
|   \\  /    A nd           | Web:         http://www.foam-extend.org         |
|    \\/     M anipulation  |                                                 |
\*---------------------------------------------------------------------------*/
FoamFile
{
    version     2.0;
    format      ascii;
    class       volScalarField;
    location    "9e-06";
    object      Ar;
}
// * * * * * * * * * * * * * * * * * * * * * * * * * * * * * * * * * * * * * //

dimensions      [0 0 0 1 0 0 0];

internalField   nonuniform List<scalar> 
300
(
3.21880176109433e+22
3.21880175683722e+22
3.21880175984201e+22
3.21880176111326e+22
3.21880176323942e+22
3.21880176617654e+22
3.21880176974825e+22
3.21880177402284e+22
3.21880177898787e+22
3.21880178463981e+22
3.21880179097923e+22
3.21880179800493e+22
3.21880180571637e+22
3.21880181411318e+22
3.21880182319513e+22
3.2188018329621e+22
3.2188018434144e+22
3.218801854552e+22
3.2188018663749e+22
3.21880187888335e+22
3.21880189207764e+22
3.21880190595814e+22
3.21880192052528e+22
3.21880193577951e+22
3.21880195172297e+22
3.21880196835498e+22
3.21880198567627e+22
3.21880200368779e+22
3.21880202238937e+22
3.21880204178174e+22
3.21880206186751e+22
3.21880208264681e+22
3.21880210411914e+22
3.21880212628529e+22
3.21880214914612e+22
3.21880217270252e+22
3.21880219695589e+22
3.21880222190704e+22
3.21880224755671e+22
3.21880227390605e+22
3.21880230095622e+22
3.21880232870824e+22
3.2188023571633e+22
3.2188023863226e+22
3.21880241618742e+22
3.21880244675905e+22
3.21880247803907e+22
3.218802510029e+22
3.21880254273131e+22
3.21880257614786e+22
3.21880261028164e+22
3.21880264513315e+22
3.21880268070469e+22
3.21880271699627e+22
3.21880275400888e+22
3.21880279174269e+22
3.2188028301992e+22
3.21880286937995e+22
3.21880290928654e+22
3.21880294992077e+22
3.21880299128409e+22
3.21880303337816e+22
3.21880307620521e+22
3.21880311976892e+22
3.2188031640708e+22
3.21880320911019e+22
3.2188032548888e+22
3.21880330140836e+22
3.21880334867062e+22
3.21880339667736e+22
3.2188034454306e+22
3.21880349493296e+22
3.21880354518652e+22
3.21880359619245e+22
3.21880364795403e+22
3.21880370047304e+22
3.21880375375077e+22
3.21880380778953e+22
3.21880386258922e+22
3.21880391815477e+22
3.21880397448461e+22
3.2188040315804e+22
3.21880408944431e+22
3.21880414807796e+22
3.21880420748466e+22
3.21880426766547e+22
3.21880432862103e+22
3.21880439035311e+22
3.21880445286468e+22
3.21880451615672e+22
3.21880458023161e+22
3.21880464509555e+22
3.21880471074476e+22
3.21880477718075e+22
3.21880484440522e+22
3.2188049124198e+22
3.21880498122615e+22
3.21880505082595e+22
3.21880512122186e+22
3.21880519241547e+22
3.2188052644077e+22
3.21880533719995e+22
3.21880541079688e+22
3.21880548519707e+22
3.21880556040287e+22
3.21880563641665e+22
3.21880571323833e+22
3.21880579087126e+22
3.21880586931567e+22
3.21880594857215e+22
3.21880602864258e+22
3.21880610952978e+22
3.21880619123455e+22
3.21880627375274e+22
3.21880635709191e+22
3.21880644125637e+22
3.21880652624965e+22
3.21880661207132e+22
3.21880669872335e+22
3.21880678620857e+22
3.21880687453161e+22
3.21880696369313e+22
3.21880705369795e+22
3.21880714454694e+22
3.2188072362408e+22
3.21880732878161e+22
3.21880742217396e+22
3.21880751641791e+22
3.2188076115163e+22
3.21880770747107e+22
3.21880780428552e+22
3.21880790196172e+22
3.21880800050186e+22
3.21880809991024e+22
3.21880820019215e+22
3.21880830134737e+22
3.21880840337714e+22
3.2188085062856e+22
3.21880861007625e+22
3.21880871474981e+22
3.21880882030948e+22
3.21880892675852e+22
3.2188090341017e+22
3.2188091423438e+22
3.21880925148878e+22
3.21880936153616e+22
3.21880947248885e+22
3.21880958434983e+22
3.2188096971234e+22
3.21880981081554e+22
3.21880992542603e+22
3.21881004095792e+22
3.21881015741814e+22
3.21881027480629e+22
3.21881039312493e+22
3.21881051237574e+22
3.21881063256545e+22
3.21881075368354e+22
3.2188108757417e+22
3.21881099871454e+22
3.21881112263973e+22
3.21881124743792e+22
3.21881137321898e+22
3.2188114997791e+22
3.21881162740108e+22
3.21881175575258e+22
3.21881188384417e+22
3.21881201260588e+22
3.21881214281157e+22
3.21881227383141e+22
3.21881240566471e+22
3.21881253740345e+22
3.21881266963952e+22
3.21881280140503e+22
3.21881293326618e+22
3.21881306697073e+22
3.2188132008791e+22
3.21881333101361e+22
3.21881346155896e+22
3.21881359389106e+22
3.21881371983004e+22
3.21881384387257e+22
3.21881396844727e+22
3.21881408362461e+22
3.21881419653635e+22
3.21881430490847e+22
3.21881440339123e+22
3.21881449647883e+22
3.21881458392185e+22
3.21881465906867e+22
3.21881472760324e+22
3.2188147902443e+22
3.21881484320967e+22
3.21881488551657e+22
3.21881492151519e+22
3.21881494726497e+22
3.21881496582646e+22
3.21881497891339e+22
3.2188149881276e+22
3.21881499534268e+22
3.21881499742101e+22
3.21881499453633e+22
3.21881498985428e+22
3.21881498782532e+22
3.21881499169369e+22
3.21881499989742e+22
3.21881500991958e+22
3.21881502023849e+22
3.21881502928533e+22
3.21881503702813e+22
3.21881504350204e+22
3.21881504894092e+22
3.21881505349163e+22
3.21881505860751e+22
3.21881506425039e+22
3.21881506946069e+22
3.21881507408878e+22
3.21881507835891e+22
3.21881508219237e+22
3.21881508578851e+22
3.21881508903433e+22
3.21881509217433e+22
3.21881509506426e+22
3.21881509785711e+22
3.21881510040129e+22
3.2188151042414e+22
3.21881510806527e+22
3.21881511186247e+22
3.21881511539032e+22
3.21881511891504e+22
3.21881512218281e+22
3.21881512546625e+22
3.21881512849857e+22
3.21881513156007e+22
3.21881513437468e+22
3.21881513722809e+22
3.21881513983627e+22
3.21881514249143e+22
3.21881514490099e+22
3.21881514736486e+22
3.21881514958159e+22
3.21881515219505e+22
3.21881515530279e+22
3.21881515846343e+22
3.2188151613835e+22
3.21881516436307e+22
3.21881516710246e+22
3.21881516991002e+22
3.21881517247684e+22
3.21881517512002e+22
3.21881517752283e+22
3.21881518000889e+22
3.21881518225681e+22
3.21881518459608e+22
3.21881518669579e+22
3.21881518889237e+22
3.2188151908479e+22
3.21881519290792e+22
3.21881519472625e+22
3.21881519665563e+22
3.21881519834292e+22
3.21881520014937e+22
3.2188152017155e+22
3.21881520340695e+22
3.2188152048563e+22
3.2188152071565e+22
3.21881520910941e+22
3.21881521135161e+22
3.21881521318986e+22
3.2188152153318e+22
3.21881521706096e+22
3.21881521910824e+22
3.21881522073439e+22
3.21881522269379e+22
3.21881522422319e+22
3.21881522610092e+22
3.21881522753964e+22
3.21881522933958e+22
3.21881523069187e+22
3.21881523241705e+22
3.21881523368778e+22
3.21881523534584e+22
3.21881523656002e+22
3.21881523819253e+22
3.2188152393603e+22
3.21881524093673e+22
3.21881524203571e+22
3.21881524355304e+22
3.2188152445846e+22
3.21881524608656e+22
3.2188152471328e+22
3.21881524862076e+22
3.21881524960203e+22
3.21881525110501e+22
3.21881525212794e+22
3.2188152536336e+22
3.21881525471984e+22
3.21881525635933e+22
3.21881525782148e+22
3.2188152605899e+22
)
;

boundaryField
{
    electrode
    {
        type            zeroGradient;
    }
    ground
    {
        type            zeroGradient;
    }
    otherfaces
    {
        type            empty;
    }
}


// ************************************************************************* //
