/*--------------------------------*- C++ -*----------------------------------*\
| =========                 |                                                 |
| \\      /  F ield         | foam-extend: Open Source CFD                    |
|  \\    /   O peration     | Version:     4.0                                |
|   \\  /    A nd           | Web:         http://www.foam-extend.org         |
|    \\/     M anipulation  |                                                 |
\*---------------------------------------------------------------------------*/
FoamFile
{
    version     2.0;
    format      ascii;
    class       volScalarField;
    location    "9e-06";
    object      Arm;
}
// * * * * * * * * * * * * * * * * * * * * * * * * * * * * * * * * * * * * * //

dimensions      [0 0 0 1 0 0 0];

internalField   nonuniform List<scalar> 
300
(
3.57410480325576e+15
3.57597798660348e+15
3.57792515365503e+15
3.57923145615988e+15
3.58004778731499e+15
3.58042640841906e+15
3.58041151565802e+15
3.58003456168218e+15
3.57932120910047e+15
3.57829343652825e+15
3.57696702711702e+15
3.57535606620515e+15
3.57347260802077e+15
3.57132725569841e+15
3.56892946671036e+15
3.56628778016828e+15
3.56340703409321e+15
3.560295807242e+15
3.55696243777886e+15
3.55341340823219e+15
3.54965492005358e+15
3.54569289488485e+15
3.54153302269639e+15
3.53718071945324e+15
3.53262539771278e+15
3.52788471107993e+15
3.5229623872588e+15
3.51786046772063e+15
3.51259250491167e+15
3.50716336045317e+15
3.50155936184811e+15
3.49579184718651e+15
3.48987888453769e+15
3.48382588144159e+15
3.47763792416894e+15
3.47131980562941e+15
3.46487172134072e+15
3.4583001760379e+15
3.45161223058586e+15
3.44481142730152e+15
3.4379012733415e+15
3.4308870386273e+15
3.42377260642392e+15
3.41656166823952e+15
3.40925772415056e+15
3.40186403372584e+15
3.39438154711204e+15
3.3868116934884e+15
3.37914674005246e+15
3.37138524236407e+15
3.36351466844278e+15
3.35554743909328e+15
3.34747824130915e+15
3.33932472999923e+15
3.33109507332205e+15
3.32280560030861e+15
3.31445963673622e+15
3.30606009878791e+15
3.29760955496639e+15
3.28910843508232e+15
3.28056104256292e+15
3.27196948212872e+15
3.26333039098044e+15
3.25462587754524e+15
3.24585991939351e+15
3.23705801436536e+15
3.22822230098991e+15
3.21935461904596e+15
3.21045655439012e+15
3.20152946268256e+15
3.192572490436e+15
3.18357850962734e+15
3.1745459898314e+15
3.1654823190203e+15
3.15637402339281e+15
3.14722214376354e+15
3.13803299321502e+15
3.12880250815742e+15
3.11955052482956e+15
3.11024670517172e+15
3.1009254484759e+15
3.09158893315714e+15
3.08223409540441e+15
3.07286315279692e+15
3.06346136183279e+15
3.05403642870497e+15
3.04460002943487e+15
3.03515248275977e+15
3.02568193925086e+15
3.01619608913507e+15
3.00668886942903e+15
2.99711549193905e+15
2.98753093486202e+15
2.97793693583229e+15
2.96833352694502e+15
2.95872073388625e+15
2.94909833836666e+15
2.93946588815902e+15
2.92981248800706e+15
2.92013806817689e+15
2.91044887012381e+15
2.90074612027598e+15
2.89099823269239e+15
2.88123424493762e+15
2.87144501061955e+15
2.86162123128327e+15
2.85177781785507e+15
2.84189528018573e+15
2.83198397604477e+15
2.82204935255762e+15
2.81208955276203e+15
2.80210228059715e+15
2.79207981644353e+15
2.78201993753112e+15
2.77192039392324e+15
2.76176356060351e+15
2.75153063640919e+15
2.74124629253754e+15
2.73091143069809e+15
2.72051795351973e+15
2.71003958211651e+15
2.69948912440078e+15
2.6888377463716e+15
2.67809576944798e+15
2.66727459649831e+15
2.65637200354573e+15
2.6453600149877e+15
2.63425592563972e+15
2.6230489780903e+15
2.61173708884639e+15
2.60030466290308e+15
2.58874780578188e+15
2.57706148162576e+15
2.56521962401365e+15
2.55318589411461e+15
2.54097901335981e+15
2.52860287828328e+15
2.51603251275115e+15
2.50324909999914e+15
2.4902616600797e+15
2.47705425256436e+15
2.46361019425176e+15
2.44989736975526e+15
2.43588369482581e+15
2.42154462693752e+15
2.40689981553123e+15
2.39193445635762e+15
2.37663216149565e+15
2.36096238590168e+15
2.34487639138735e+15
2.32838641990403e+15
2.31146772270203e+15
2.29405822004064e+15
2.27615657529674e+15
2.25774450462288e+15
2.23877235128675e+15
2.21919693394817e+15
2.1990175841779e+15
2.17821514261534e+15
2.15674471629524e+15
2.13457072025389e+15
2.11167798023317e+15
2.08802838452135e+15
2.06363433112375e+15
2.03848279485544e+15
2.01251942936512e+15
1.98576495748146e+15
1.9582638728413e+15
1.93004519752154e+15
1.9011509265302e+15
1.87164954374414e+15
1.84157455563707e+15
1.81101838306929e+15
1.78015242874086e+15
1.74917055109028e+15
1.71824266132702e+15
1.68754796473916e+15
1.65728549836065e+15
1.62769382967682e+15
1.59892868493955e+15
1.57114433068238e+15
1.54448770174292e+15
1.5190403475091e+15
1.49491678485446e+15
1.47211694071939e+15
1.45055102648592e+15
1.43025847883402e+15
1.41118892776377e+15
1.39325665216062e+15
1.37638116271985e+15
1.36046907153443e+15
1.34557253004164e+15
1.33218749082878e+15
1.32540402604797e+15
1.3513945548901e+15
1.41738341102306e+15
1.49747541986723e+15
1.5641250868249e+15
1.62596979873081e+15
1.69538723433894e+15
1.77235934401166e+15
1.85149765795578e+15
1.90951705060956e+15
1.91544189689838e+15
1.87657708686418e+15
1.8136698302227e+15
1.74890750267808e+15
1.69464159471157e+15
1.65527740263095e+15
1.62871226750134e+15
1.61132514554099e+15
1.60085742539466e+15
1.59404762125117e+15
1.5907679204865e+15
1.58870017309206e+15
1.58691156082641e+15
1.58581692298499e+15
1.58488040523623e+15
1.58372294928312e+15
1.58212952751536e+15
1.57994112329964e+15
1.576519774247e+15
1.57195719718586e+15
1.56651051812104e+15
1.56025168945302e+15
1.55333745662471e+15
1.54581652152618e+15
1.53772385625014e+15
1.52911468712413e+15
1.52005316490264e+15
1.51058264572104e+15
1.5007627877898e+15
1.4906577279896e+15
1.48031383143814e+15
1.46977925903975e+15
1.45911656977407e+15
1.44835311735777e+15
1.43754773141021e+15
1.42672598335807e+15
1.41593071817939e+15
1.40519076807707e+15
1.39452450750268e+15
1.38397058086381e+15
1.37353672209255e+15
1.36324830766029e+15
1.35313728434281e+15
1.34320391110371e+15
1.33346737837015e+15
1.32393956023241e+15
1.31461999543591e+15
1.30552156953781e+15
1.296644763328e+15
1.28797777717963e+15
1.27952781235004e+15
1.27130240982126e+15
1.26330777530729e+15
1.25554646928792e+15
1.2480047213294e+15
1.24069047070023e+15
1.23359358974545e+15
1.22671421491226e+15
1.22003023411664e+15
1.21353076087965e+15
1.20721986819552e+15
1.20109658052597e+15
1.19515521325562e+15
1.18938618869378e+15
1.18378435736232e+15
1.17833711282125e+15
1.17304815385351e+15
1.16790737476464e+15
1.16291687494128e+15
1.15805991116739e+15
1.15333965043568e+15
1.1487427502767e+15
1.14426648729683e+15
1.13990798572598e+15
1.13566614064932e+15
1.13154185286806e+15
1.12752777943557e+15
1.12362174051136e+15
1.11978246395773e+15
1.11586644862501e+15
1.11181334280035e+15
1.10780880478858e+15
1.10388079789644e+15
1.10003819623706e+15
1.0962848350596e+15
1.09261193489545e+15
1.08861793396591e+15
1.08431267122449e+15
1.08010472576034e+15
1.07600442803981e+15
1.07130846065115e+15
1.06637247408962e+15
1.06136062208115e+15
1.0554063813905e+15
1.04891801202478e+15
1.04140609825612e+15
1.03221928995086e+15
)
;

boundaryField
{
    electrode
    {
        type            zeroGradient;
    }
    ground
    {
        type            zeroGradient;
    }
    otherfaces
    {
        type            empty;
    }
}


// ************************************************************************* //
