/*--------------------------------*- C++ -*----------------------------------*\
| =========                 |                                                 |
| \\      /  F ield         | foam-extend: Open Source CFD                    |
|  \\    /   O peration     | Version:     4.0                                |
|   \\  /    A nd           | Web:         http://www.foam-extend.org         |
|    \\/     M anipulation  |                                                 |
\*---------------------------------------------------------------------------*/
FoamFile
{
    version     2.0;
    format      ascii;
    class       volScalarField;
    location    "9e-06";
    object      Arp1;
}
// * * * * * * * * * * * * * * * * * * * * * * * * * * * * * * * * * * * * * //

dimensions      [0 0 0 1 0 0 0];

internalField   nonuniform List<scalar> 
300
(
6.78915094916211e+16
6.79340949550385e+16
6.79069063214909e+16
6.79010044825513e+16
6.78902914307714e+16
6.78751789245442e+16
6.78573925122974e+16
6.78362183162901e+16
6.78117582990708e+16
6.77840283671006e+16
6.77530098327407e+16
6.77187037235267e+16
6.76811066641607e+16
6.76402149982555e+16
6.7596025282603e+16
6.7548533769134e+16
6.74977365498246e+16
6.7443629548606e+16
6.73862085142477e+16
6.73254690254364e+16
6.72614064910103e+16
6.71940161518159e+16
6.71232930822402e+16
6.704923219147e+16
6.69718282255501e+16
6.68910757693136e+16
6.68069692476859e+16
6.67195029282078e+16
6.6628670923063e+16
6.65344671909297e+16
6.64368855393133e+16
6.63359196273072e+16
6.62315629674377e+16
6.61238089283435e+16
6.60126507377559e+16
6.58980814845659e+16
6.57800941219287e+16
6.56586814703226e+16
6.55338362199024e+16
6.54055509339102e+16
6.52738180519423e+16
6.51386298925406e+16
6.49999786569011e+16
6.48578564322591e+16
6.47122551948428e+16
6.45631668137236e+16
6.44105830545156e+16
6.42544955824465e+16
6.40948959665118e+16
6.39317756833811e+16
6.37651261206007e+16
6.3594938581113e+16
6.34212042871453e+16
6.32439143839077e+16
6.30630599439376e+16
6.28786319714486e+16
6.26906214062123e+16
6.24990191278706e+16
6.23038159607175e+16
6.21050026774239e+16
6.19025700038516e+16
6.16965086237518e+16
6.14868091827238e+16
6.12734622931783e+16
6.10564585390956e+16
6.08357884801515e+16
6.06114426568086e+16
6.03834115951517e+16
6.0151685811152e+16
5.99162558157719e+16
5.96771121199611e+16
5.94342452389548e+16
5.91876456974761e+16
5.89373040347464e+16
5.86832108088118e+16
5.84253566018876e+16
5.8163732025232e+16
5.78983277237472e+16
5.76291343809683e+16
5.73561427242453e+16
5.7079343529255e+16
5.67987276248733e+16
5.65142858984205e+16
5.62260093000706e+16
5.59338888477484e+16
5.56379156322285e+16
5.5338080821507e+16
5.50343756656718e+16
5.47267915018238e+16
5.44153197583546e+16
5.40999519597482e+16
5.37806797313156e+16
5.34574948035376e+16
5.31303890163854e+16
5.27993543242277e+16
5.24643827997464e+16
5.21254666384538e+16
5.17825981629455e+16
5.14357698268596e+16
5.10849742194733e+16
5.07302040708241e+16
5.03714522529719e+16
5.00087117780885e+16
4.96419758140138e+16
4.92712377249225e+16
4.88964910350834e+16
4.85177291979193e+16
4.8134945719385e+16
4.77481355057789e+16
4.73572947154665e+16
4.69624136962179e+16
4.65634737588004e+16
4.6160481553398e+16
4.57534888986744e+16
4.53424328276399e+16
4.49272992821207e+16
4.450808380989e+16
4.40847777394042e+16
4.36573723434115e+16
4.32258590954786e+16
4.27902297260823e+16
4.2350476256333e+16
4.19065910073698e+16
4.14585666066687e+16
4.10063959944475e+16
4.05500724305131e+16
4.00895895027312e+16
3.9624941137409e+16
3.91561216110804e+16
3.86831255652154e+16
3.82059480236478e+16
3.77245844130987e+16
3.72390305879194e+16
3.67492828596137e+16
3.62553380316227e+16
3.57571934410518e+16
3.52548470083197e+16
3.47482972958805e+16
3.42375435785401e+16
3.37225859269749e+16
3.32034253072464e+16
3.26800636992798e+16
3.21525042390356e+16
3.16207513869019e+16
3.1084811130089e+16
3.05446912287703e+16
3.00004014888168e+16
2.94519541724761e+16
2.88993642331494e+16
2.83426503249755e+16
2.77818341578069e+16
2.72169441462316e+16
2.66480099762176e+16
2.60750768261869e+16
2.54981803512259e+16
2.49173998785391e+16
2.43327616116417e+16
2.37444256099902e+16
2.3152352855752e+16
2.25569053661841e+16
2.1957810107115e+16
2.13559493365358e+16
2.07503410133601e+16
2.01430982886827e+16
1.95315074514217e+16
1.89190839402312e+16
1.83159965428551e+16
1.77134270519057e+16
1.71041974125473e+16
1.64950454931112e+16
1.588629857119e+16
1.5287396349809e+16
1.46927709470467e+16
1.41123815310496e+16
1.35407241455811e+16
1.29601126039922e+16
1.23860704577682e+16
1.18569886382463e+16
1.13291436075018e+16
1.07860123104097e+16
1.03055637261731e+16
9.83822586436832e+15
9.35412590313106e+15
8.94593332869067e+15
8.53536927921678e+15
8.1378589378104e+15
7.79938594650175e+15
7.4682280587196e+15
7.14113342610218e+15
6.88037712326536e+15
6.6268371944823e+15
6.37290604197234e+15
6.157513382949e+15
5.98885528439344e+15
5.80210756997729e+15
5.63554769090706e+15
5.49084887456436e+15
5.38471262200062e+15
5.29858510029813e+15
5.20691959113387e+15
5.14694452643741e+15
5.12435328988838e+15
5.13266805244257e+15
5.16101543981024e+15
5.17081799847638e+15
5.15778976739538e+15
5.12588344199924e+15
5.07891028948677e+15
5.0288586641195e+15
4.97857231333892e+15
4.93154486911026e+15
4.88781137430479e+15
4.84922392210506e+15
4.80140919803597e+15
4.74708471039838e+15
4.69678982684494e+15
4.65161256709298e+15
4.60985066513598e+15
4.5726733021667e+15
4.53830341569849e+15
4.50803137609288e+15
4.48005105288055e+15
4.45571370857449e+15
4.43323253474838e+15
4.41405192610878e+15
4.382569203069e+15
4.35185732927628e+15
4.32198564171942e+15
4.29532567045161e+15
4.2691509346634e+15
4.24595622961954e+15
4.22295557433482e+15
4.20275249572636e+15
4.1824976177075e+15
4.16490324165016e+15
4.14704994255005e+15
4.13175031926637e+15
4.11602340084695e+15
4.10276930169672e+15
4.0889460855828e+15
4.07753913846369e+15
4.06209144195443e+15
4.04158862408205e+15
4.02043673139306e+15
4.00154503058006e+15
3.98188072674373e+15
3.96444046505038e+15
3.94612128559133e+15
3.93000044860615e+15
3.91290745373374e+15
3.89799658560871e+15
3.88203125715999e+15
3.86823703655733e+15
3.85331177707099e+15
3.84055704645007e+15
3.82660251483055e+15
3.81482456399271e+15
3.80178170732904e+15
3.79092773737731e+15
3.77874543973479e+15
3.76876604538199e+15
3.75739915783578e+15
3.74825060814501e+15
3.73765978807472e+15
3.72930182279703e+15
3.71225318888538e+15
3.69850452945436e+15
3.68169547937154e+15
3.66877088278217e+15
3.65265074451485e+15
3.64050986583428e+15
3.62503717597902e+15
3.61364193576856e+15
3.59877718374004e+15
3.5880886815813e+15
3.57379600605484e+15
3.5637754069408e+15
3.55002572224511e+15
3.5406345956489e+15
3.52740420319185e+15
3.51860998045679e+15
3.50587540517141e+15
3.49765621495854e+15
3.4853905482589e+15
3.47772345221173e+15
3.46589299978735e+15
3.45875158252787e+15
3.44733717955873e+15
3.44069973392564e+15
3.42967917032624e+15
3.42352695118088e+15
3.41285994233712e+15
3.40715210319811e+15
3.39682243443351e+15
3.39153303932e+15
3.38149182124712e+15
3.37658673153114e+15
3.36668240412425e+15
3.35957377898728e+15
3.34107526512403e+15
)
;

boundaryField
{
    electrode
    {
        type            driftDiffusionPositiveIonDensity;
        seec            0;
        fieldName       Arp1;
        value           uniform 6.77078762685365e+16;
    }
    ground
    {
        type            driftDiffusionPositiveIonDensity;
        seec            0;
        fieldName       Arp1;
        value           uniform 3.34107526512403e+15;
    }
    otherfaces
    {
        type            empty;
    }
}


// ************************************************************************* //
