/*--------------------------------*- C++ -*----------------------------------*\
| =========                 |                                                 |
| \\      /  F ield         | foam-extend: Open Source CFD                    |
|  \\    /   O peration     | Version:     4.0                                |
|   \\  /    A nd           | Web:         http://www.foam-extend.org         |
|    \\/     M anipulation  |                                                 |
\*---------------------------------------------------------------------------*/
FoamFile
{
    version     2.0;
    format      ascii;
    class       volVectorField;
    location    "9e-06";
    object      E;
}
// * * * * * * * * * * * * * * * * * * * * * * * * * * * * * * * * * * * * * //

dimensions      [0 0 0 1 0 0 0];

internalField   nonuniform List<vector> 
300
(
(5.45439316629315 -0 -0)
(11.1879152941974 -0 -0)
(19.6752990982985 -0 -0)
(27.5531996510317 -0 -0)
(35.3873342087689 -0 -0)
(43.2896348642746 -0 -0)
(51.1852999901535 -0 -0)
(59.0957318039031 -0 -0)
(67.0218648871076 -0 -0)
(74.9639786828967 -0 -0)
(82.9242709665651 -0 -0)
(90.9043054039835 -0 -0)
(98.9057269584769 -0 -0)
(106.93021750968 -0 -0)
(114.979453816334 -0 -0)
(123.055127508599 -0 -0)
(131.158942415219 -0 -0)
(139.29261506729 -0 -0)
(147.457875893099 -0 -0)
(155.656469880136 -0 -0)
(163.890157461878 -0 -0)
(172.160715379567 -0 -0)
(180.469937544055 -0 -0)
(188.819635918438 -0 -0)
(197.211641496389 -0 -0)
(205.647805159854 -0 -0)
(214.129998753201 -0 -0)
(222.660116007414 -0 -0)
(231.240073576828 -0 -0)
(239.871812129924 -0 -0)
(248.557297394284 -0 -0)
(257.298521309738 -0 -0)
(266.097503152955 -0 -0)
(274.956290760604 -0 -0)
(283.876961762406 -0 -0)
(292.861624826032 -0 -0)
(301.912420971914 -0 -0)
(311.031524972908 -0 -0)
(320.221146732391 -0 -0)
(329.483532736407 -0 -0)
(338.820967594953 -0 -0)
(348.235775590769 -0 -0)
(357.730322297946 -0 -0)
(367.307016260682 -0 -0)
(376.96831079185 -0 -0)
(386.716705733133 -0 -0)
(396.554749383579 -0 -0)
(406.485040439814 -0 -0)
(416.510230076592 -0 -0)
(426.633024033699 -0 -0)
(436.856184868374 -0 -0)
(447.182534223143 -0 -0)
(457.614955245897 -0 -0)
(468.156395125366 -0 -0)
(478.809867667009 -0 -0)
(489.57845603788 -0 -0)
(500.465315614367 -0 -0)
(511.473676945202 -0 -0)
(522.606848883563 -0 -0)
(533.868221792907 -0 -0)
(545.261270976147 -0 -0)
(556.789560203384 -0 -0)
(568.456745433995 -0 -0)
(580.266578720291 -0 -0)
(592.222912251686 -0 -0)
(604.329702634579 -0 -0)
(616.59101536639 -0 -0)
(629.011029508337 -0 -0)
(641.594042610831 -0 -0)
(654.344475882534 -0 -0)
(667.266879596097 -0 -0)
(680.365938771152 -0 -0)
(693.646479171873 -0 -0)
(707.113473578793 -0 -0)
(720.772048371028 -0 -0)
(734.627490535446 -0 -0)
(748.685254916976 -0 -0)
(762.950971974834 -0 -0)
(777.430455878379 -0 -0)
(792.129713085402 -0 -0)
(807.054951305986 -0 -0)
(822.212589113386 -0 -0)
(837.609265904983 -0 -0)
(853.251852585362 -0 -0)
(869.147462734339 -0 -0)
(885.303464503812 -0 -0)
(901.727493137039 -0 -0)
(918.427464230521 -0 -0)
(935.41158784608 -0 -0)
(952.688383328108 -0 -0)
(970.266695167575 -0 -0)
(988.155709736957 -0 -0)
(1006.36497303029 -0 -0)
(1024.90440961621 -0 -0)
(1043.78434264953 -0 -0)
(1063.01551523757 -0 -0)
(1082.60911321085 -0 -0)
(1102.576789194 -0 -0)
(1122.93068843955 -0 -0)
(1143.68347631105 -0 -0)
(1164.84836775015 -0 -0)
(1186.43915831009 -0 -0)
(1208.47025686388 -0 -0)
(1230.95672214083 -0 -0)
(1253.91430562961 -0 -0)
(1277.35949091862 -0 -0)
(1301.30951036094 -0 -0)
(1325.78238811894 -0 -0)
(1350.79713908539 -0 -0)
(1376.37391398299 -0 -0)
(1402.53330380437 -0 -0)
(1429.29553113447 -0 -0)
(1456.68399976454 -0 -0)
(1484.73139161984 -0 -0)
(1513.47249627025 -0 -0)
(1542.93686113857 -0 -0)
(1573.15326139179 -0 -0)
(1604.15203867851 -0 -0)
(1635.96524942295 -0 -0)
(1668.62677384183 -0 -0)
(1702.17245978756 -0 -0)
(1736.64026877316 -0 -0)
(1772.07043439583 -0 -0)
(1808.50563478185 -0 -0)
(1845.99118106495 -0 -0)
(1884.57522364731 -0 -0)
(1924.3089781672 -0 -0)
(1965.24697361023 -0 -0)
(2007.44732497419 -0 -0)
(2050.97203334082 -0 -0)
(2095.88731674523 -0 -0)
(2142.26397547997 -0 -0)
(2190.17779607865 -0 -0)
(2239.70999889227 -0 -0)
(2290.94773468883 -0 -0)
(2343.98463684633 -0 -0)
(2398.92143622196 -0 -0)
(2455.86664739422 -0 -0)
(2514.93733575164 -0 -0)
(2576.2599770782 -0 -0)
(2639.97142237343 -0 -0)
(2706.21998341882 -0 -0)
(2775.16665680932 -0 -0)
(2846.98650723118 -0 -0)
(2921.87023441692 -0 -0)
(3000.02595258414 -0 -0)
(3081.68121560291 -0 -0)
(3167.08533022904 -0 -0)
(3256.51199676253 -0 -0)
(3350.26235761291 -0 -0)
(3448.6684570113 -0 -0)
(3552.09734565135 -0 -0)
(3660.95558751062 -0 -0)
(3775.69499120139 -0 -0)
(3896.81828227636 -0 -0)
(4024.88770388689 -0 -0)
(4160.53125441192 -0 -0)
(4304.45726003259 -0 -0)
(4457.45837596896 -0 -0)
(4620.43967361848 -0 -0)
(4794.41128132433 -0 -0)
(4980.55099852397 -0 -0)
(5180.15744185638 -0 -0)
(5394.80817288188 -0 -0)
(5626.20489939276 -0 -0)
(5876.82679611173 -0 -0)
(6151.84025971203 -0 -0)
(6456.88291088597 -0 -0)
(6795.10323057866 -0 -0)
(7169.55572489658 -0 -0)
(7585.21828257199 -0 -0)
(8049.68829506937 -0 -0)
(8572.18012431903 -0 -0)
(9163.43633843945 -0 -0)
(9834.78371144134 -0 -0)
(10593.074597092 -0 -0)
(11445.3845671212 -0 -0)
(12409.4375564972 -0 -0)
(13501.0947165701 -0 -0)
(14723.5056836654 -0 -0)
(16090.6480432159 -0 -0)
(17620.2574386895 -0 -0)
(19311.1079837675 -0 -0)
(21171.789519512 -0 -0)
(23210.3568949368 -0 -0)
(25416.5317131584 -0 -0)
(27789.6925123406 -0 -0)
(30323.9348638773 -0 -0)
(32995.5694018733 -0 -0)
(35792.8543928189 -0 -0)
(38702.9737029395 -0 -0)
(41694.0000206364 -0 -0)
(44742.8681749299 -0 -0)
(47841.0085191196 -0 -0)
(50967.1824552883 -0 -0)
(54095.3442811279 -0 -0)
(57213.3099500957 -0 -0)
(60320.3681889436 -0 -0)
(63416.0276833285 -0 -0)
(66498.0481318876 -0 -0)
(69561.6985852774 -0 -0)
(72612.6639469349 -0 -0)
(75676.4416649666 -0 -0)
(78764.2121127408 -0 -0)
(81868.3922167482 -0 -0)
(84975.8456718817 -0 -0)
(88072.7074673834 -0 -0)
(91147.6544088831 -0 -0)
(94194.3823419873 -0 -0)
(97211.3320343381 -0 -0)
(100199.151343531 -0 -0)
(103159.709060475 -0 -0)
(106095.502548733 -0 -0)
(109005.27532074 -0 -0)
(111884.266125023 -0 -0)
(114731.719043323 -0 -0)
(117550.387925653 -0 -0)
(120342.84446676 -0 -0)
(123111.494652165 -0 -0)
(125858.563982314 -0 -0)
(128586.138144287 -0 -0)
(131296.143116748 -0 -0)
(133990.368093852 -0 -0)
(136670.473383825 -0 -0)
(139338.01560955 -0 -0)
(141990.280551374 -0 -0)
(144623.791694221 -0 -0)
(147239.035860569 -0 -0)
(149837.236074089 -0 -0)
(152419.508269818 -0 -0)
(154986.898451348 -0 -0)
(157540.364739538 -0 -0)
(160080.810153202 -0 -0)
(162609.063488613 -0 -0)
(165125.912119222 -0 -0)
(167632.080875675 -0 -0)
(170128.262294337 -0 -0)
(172615.098004159 -0 -0)
(175093.205264212 -0 -0)
(177563.158521606 -0 -0)
(180025.514918284 -0 -0)
(182479.784657955 -0 -0)
(184923.224730071 -0 -0)
(187354.114830676 -0 -0)
(189772.940802497 -0 -0)
(192180.151204527 -0 -0)
(194576.183652118 -0 -0)
(196961.443665223 -0 -0)
(199336.328981322 -0 -0)
(201701.209193719 -0 -0)
(204056.448981703 -0 -0)
(206402.388187144 -0 -0)
(208739.36331238 -0 -0)
(211067.687763166 -0 -0)
(213387.674698649 -0 -0)
(215699.616779393 -0 -0)
(218003.808049286 -0 -0)
(220300.523177212 -0 -0)
(222590.040764757 -0 -0)
(224872.619854944 -0 -0)
(227148.523982374 -0 -0)
(229417.99876873 -0 -0)
(231681.294508741 -0 -0)
(233938.644982377 -0 -0)
(236190.288937791 -0 -0)
(238434.277341044 -0 -0)
(240668.984177443 -0 -0)
(242894.482670566 -0 -0)
(245111.020492093 -0 -0)
(247318.805191952 -0 -0)
(249518.072863417 -0 -0)
(251709.018558609 -0 -0)
(253891.867005075 -0 -0)
(256066.801291819 -0 -0)
(258234.034370923 -0 -0)
(260393.738641572 -0 -0)
(262546.115343917 -0 -0)
(264691.3280766 -0 -0)
(266829.566512429 -0 -0)
(268960.987108559 -0 -0)
(271085.769723319 -0 -0)
(273204.06375291 -0 -0)
(275316.042445594 -0 -0)
(277421.847042526 -0 -0)
(279521.643964478 -0 -0)
(281615.564326179 -0 -0)
(283703.766501176 -0 -0)
(285786.375938822 -0 -0)
(287863.544446124 -0 -0)
(289935.390611332 -0 -0)
(292002.060769054 -0 -0)
(294063.661324479 -0 -0)
(296120.326126982 -0 -0)
(298172.156855584 -0 -0)
(300219.279408238 -0 -0)
(302261.780441301 -0 -0)
(304299.775269756 -0 -0)
(306333.304075396 -0 -0)
(308361.710394618 -0 -0)
(310382.393102511 -0 -0)
)
;

boundaryField
{
    electrode
    {
        type            calculated;
        value           uniform (4.20685070139371 -0 -0);
    }
    ground
    {
        type            calculated;
        value           uniform (311389.940354554 -0 -0);
    }
    otherfaces
    {
        type            empty;
    }
}


// ************************************************************************* //
