/*--------------------------------*- C++ -*----------------------------------*\
| =========                 |                                                 |
| \\      /  F ield         | foam-extend: Open Source CFD                    |
|  \\    /   O peration     | Version:     4.0                                |
|   \\  /    A nd           | Web:         http://www.foam-extend.org         |
|    \\/     M anipulation  |                                                 |
\*---------------------------------------------------------------------------*/
FoamFile
{
    version     2.0;
    format      ascii;
    class       volScalarField;
    location    "9e-06";
    object      electron;
}
// * * * * * * * * * * * * * * * * * * * * * * * * * * * * * * * * * * * * * //

dimensions      [0 0 0 1 0 0 0];

internalField   nonuniform List<scalar> 
300
(
6.79030134353785e+16
6.79011259186652e+16
6.78963194611662e+16
6.78882024692907e+16
6.78768375734561e+16
6.78622001361106e+16
6.78442842679667e+16
6.78230894204155e+16
6.77986124378674e+16
6.77708506612071e+16
6.77398012629222e+16
6.77054611879187e+16
6.76678272210999e+16
6.76268959667634e+16
6.75826638510333e+16
6.7535127123798e+16
6.74842818591359e+16
6.74301239564754e+16
6.73726491417386e+16
6.73118529685653e+16
6.72477308196414e+16
6.7180277908106e+16
6.71094892790496e+16
6.70353598111056e+16
6.69578842181229e+16
6.68770570509315e+16
6.67928726991922e+16
6.67053253933291e+16
6.66144092065576e+16
6.65201180569913e+16
6.64224457098351e+16
6.63213857796646e+16
6.62169317327895e+16
6.61090768897001e+16
6.59978144275908e+16
6.58831373829707e+16
6.5765038654358e+16
6.56435110050494e+16
6.55185470659667e+16
6.53901393385874e+16
6.52582801979479e+16
6.51229618957208e+16
6.49841765633705e+16
6.48419162153845e+16
6.46961727525695e+16
6.45469379654199e+16
6.43942035375585e+16
6.42379610492418e+16
6.40782019809288e+16
6.39149177169153e+16
6.37480995490291e+16
6.35777386803866e+16
6.34038262292094e+16
6.32263532326902e+16
6.30453106509141e+16
6.28606893708321e+16
6.26724802102824e+16
6.24806739220569e+16
6.22852611980094e+16
6.2086232673206e+16
6.18835789301132e+16
6.16772905028177e+16
6.14673578812794e+16
6.1253771515609e+16
6.10365218203703e+16
6.08155991789063e+16
6.0590993947678e+16
6.03626964606187e+16
6.01306970334968e+16
5.98949859682816e+16
5.9655553557508e+16
5.94123900886399e+16
5.91654858484227e+16
5.89148311272188e+16
5.86604162233304e+16
5.84022314472921e+16
5.81402671261347e+16
5.7874513607615e+16
5.76049612643997e+16
5.73316004982005e+16
5.70544217438591e+16
5.67734154733666e+16
5.6488572199812e+16
5.61998824812586e+16
5.590733692453e+16
5.56109261889062e+16
5.53106409897145e+16
5.50064721018142e+16
5.46984103629554e+16
5.43864466770096e+16
5.40705720170588e+16
5.37507774283246e+16
5.34270540309396e+16
5.3099393022537e+16
5.27677856806477e+16
5.24322233648968e+16
5.2092697518968e+16
5.17491996723393e+16
5.14017214417691e+16
5.10502545325027e+16
5.0694790739172e+16
5.03353219464004e+16
4.99718401291786e+16
4.96043373528641e+16
4.92328057722572e+16
4.88572376300533e+16
4.84776252577903e+16
4.80939610790223e+16
4.77062375972121e+16
4.73144473613533e+16
4.69185829973915e+16
4.65186373790948e+16
4.6114603481413e+16
4.57064731796427e+16
4.52942362542045e+16
4.48778811219268e+16
4.44573959020492e+16
4.40327687335126e+16
4.36039878257264e+16
4.31710414634972e+16
4.27339179962175e+16
4.22926058218036e+16
4.18470933681978e+16
4.1397369073034e+16
4.09434213615376e+16
4.04852386225473e+16
4.00228091825066e+16
3.95561212772358e+16
3.90851630212688e+16
3.86099223745343e+16
3.81303871061279e+16
3.76465447548967e+16
3.71583825865363e+16
3.66658875468668e+16
3.61690462109256e+16
3.56678447274731e+16
3.51622687584705e+16
3.46523034130505e+16
3.4137933175452e+16
3.36191418263398e+16
3.30959123568789e+16
3.25682268748883e+16
3.20360665023291e+16
3.1499411263337e+16
3.09582399619617e+16
3.04125300487039e+16
2.98622574749885e+16
2.93073965344507e+16
2.87479196906202e+16
2.81837973888752e+16
2.76149978547636e+16
2.70414868722008e+16
2.64632275530763e+16
2.58801800761602e+16
2.52923014388072e+16
2.46995451440202e+16
2.41018609725131e+16
2.34991945881131e+16
2.28914874210393e+16
2.22786761096927e+16
2.16606927067649e+16
2.10374635937346e+16
2.04089100703743e+16
1.97749448236215e+16
1.91354666565523e+16
1.84903377494674e+16
1.78392629367708e+16
1.71817157055498e+16
1.65171063448324e+16
1.5844953387817e+16
1.51648680162931e+16
1.44764571028142e+16
1.37792772432897e+16
1.30728767550573e+16
1.2356903772199e+16
1.16313969564477e+16
1.08970493380224e+16
1.01550476596346e+16
9.40702998041973e+15
8.65560439509965e+15
7.90444642705338e+15
7.15801434950609e+15
6.42181327105528e+15
5.70235447027046e+15
5.00659928630802e+15
4.34195249798283e+15
3.71588850707857e+15
3.13523789515033e+15
2.60583253339465e+15
2.13199405854211e+15
1.71609834702399e+15
1.35851354674882e+15
1.05763579348336e+15
810006850935084
610776530266061
453848702411774
332839719784545
241456349339451
173596533046399
123693457960153
85912848740063
58212330691182.6
38698508112965.4
24715830213724
15094290862804.9
8992319184654.13
5439445014507.74
3489274884269.59
2436740648741.44
1860256826076.61
1535645958268.9
1348139238611.13
1238215946895.75
1173917639268.68
1137327515271.22
1117841498330.46
1108804590750.92
1105877927379.27
1106141392046.48
1108032263984.33
1110287363650.01
1111995092320.26
1112630646474.16
1111893937318.54
1109530137513.59
1105421428487.58
1099530266213.77
1091877118736.79
1082522556788.19
1071555881646.95
1059086508993.61
1045237376980.39
1030139765054.81
1013929201461.86
996742220560.78
978713784807.727
959975216449.657
940652214691.915
920862312963.611
900704484645.244
880274999939.74
859675683461.256
839000753746.008
818337527221.45
797764906998.693
777353159871.193
757164172330.907
737251842252.353
717662540231.936
698435606602.386
679603869701.694
661194184747.481
643228007400.142
625722213737.319
608689132321.542
592138858143.223
576075011571.412
560494435078.328
545396325585.914
530778970307.748
516636402260.558
502961027368.346
489743772342.437
476974672373.715
464643097826.912
452738031890.06
441248346667.029
430162685774.767
419469370916.251
409156551168.006
399211692346.106
389622139899.574
380362809415.826
371409447372.676
362751599022.591
354380273951.293
346287763354.343
338466932376.158
330911272150.84
323614937983.459
316572805626.565
309780576614.548
303234093024.997
296929151770.691
290844676592.124
284948865158.132
279234989025.286
273717437482.536
268413079799.7
263339924435.853
258465132546.323
253768935276.281
249305309872.436
245103115179.78
241182955985.613
237636138741.131
234597122760.535
232341654569.506
231375516732.363
232535297420.872
)
;

boundaryField
{
    electrode
    {
        type            driftDiffusionElectronDensity;
        seec            0.05;
        Edepend         1;
        field_emission  0;
        field_enhancement_factor 55;
        work_function   5;
        value           uniform 6.79030134353785e+16;
    }
    ground
    {
        type            driftDiffusionElectronDensity;
        seec            0.05;
        Edepend         1;
        field_emission  0;
        field_enhancement_factor 55;
        work_function   5;
        value           uniform 234783822494.315;
    }
    otherfaces
    {
        type            empty;
    }
}


// ************************************************************************* //
