/*--------------------------------*- C++ -*----------------------------------*\
| =========                 |                                                 |
| \\      /  F ield         | foam-extend: Open Source CFD                    |
|  \\    /   O peration     | Version:     4.0                                |
|   \\  /    A nd           | Web:         http://www.foam-extend.org         |
|    \\/     M anipulation  |                                                 |
\*---------------------------------------------------------------------------*/
FoamFile
{
    version     2.0;
    format      ascii;
    class       volVectorField;
    location    "9e-06";
    object      J_Arp1;
}
// * * * * * * * * * * * * * * * * * * * * * * * * * * * * * * * * * * * * * //

dimensions      [1 -1 -1 0 0 0 0];

internalField   nonuniform List<vector> 
300
(
(2.13275365035061e+16 -0 -0)
(7.58045351568344e+16 -0 -0)
(1.3486018016216e+17 -0 -0)
(1.87617889702791e+17 -0 -0)
(2.41056860009653e+17 -0 -0)
(2.94820436280097e+17 -0 -0)
(3.48443475692947e+17 -0 -0)
(4.02123243460098e+17 -0 -0)
(4.55830269015906e+17 -0 -0)
(5.09563234066955e+17 -0 -0)
(5.63329404850762e+17 -0 -0)
(6.17130644588823e+17 -0 -0)
(6.709700295547e+17 -0 -0)
(7.24850616135143e+17 -0 -0)
(7.78775335589638e+17 -0 -0)
(8.3274713096588e+17 -0 -0)
(8.86768913977058e+17 -0 -0)
(9.40843567392552e+17 -0 -0)
(9.94973945538087e+17 -0 -0)
(1.04916287147272e+18 -0 -0)
(1.10341313589925e+18 -0 -0)
(1.15772749562213e+18 -0 -0)
(1.21210867193675e+18 -0 -0)
(1.26655934896308e+18 -0 -0)
(1.32108217246985e+18 -0 -0)
(1.3756797477874e+18 -0 -0)
(1.43035463892254e+18 -0 -0)
(1.48510936651538e+18 -0 -0)
(1.53994640639897e+18 -0 -0)
(1.59486818827323e+18 -0 -0)
(1.64987709385346e+18 -0 -0)
(1.70497545557746e+18 -0 -0)
(1.76016555485546e+18 -0 -0)
(1.81544962069794e+18 -0 -0)
(1.87082982822898e+18 -0 -0)
(1.92630829695808e+18 -0 -0)
(1.98188708922417e+18 -0 -0)
(2.03756820896481e+18 -0 -0)
(2.09335359997324e+18 -0 -0)
(2.14924514432441e+18 -0 -0)
(2.20524466110307e+18 -0 -0)
(2.26135390475416e+18 -0 -0)
(2.3175745635353e+18 -0 -0)
(2.3739082580175e+18 -0 -0)
(2.43035653988091e+18 -0 -0)
(2.48692089005811e+18 -0 -0)
(2.54360271755862e+18 -0 -0)
(2.60040335782419e+18 -0 -0)
(2.65732407150694e+18 -0 -0)
(2.71436604283087e+18 -0 -0)
(2.77153037836457e+18 -0 -0)
(2.82881810537274e+18 -0 -0)
(2.8862301705584e+18 -0 -0)
(2.94376743883779e+18 -0 -0)
(3.00143069172904e+18 -0 -0)
(3.05922062614428e+18 -0 -0)
(3.11713785305178e+18 -0 -0)
(3.17518289606974e+18 -0 -0)
(3.23335619037753e+18 -0 -0)
(3.2916580811588e+18 -0 -0)
(3.3500888225397e+18 -0 -0)
(3.40864857625844e+18 -0 -0)
(3.4673374104489e+18 -0 -0)
(3.5261552985187e+18 -0 -0)
(3.5851021178386e+18 -0 -0)
(3.64417764861797e+18 -0 -0)
(3.7033815727712e+18 -0 -0)
(3.76271347274012e+18 -0 -0)
(3.82217283039418e+18 -0 -0)
(3.88175902598455e+18 -0 -0)
(3.94147133704998e+18 -0 -0)
(4.00130893728623e+18 -0 -0)
(4.06127089562109e+18 -0 -0)
(4.12135617517248e+18 -0 -0)
(4.18156363205142e+18 -0 -0)
(4.24189201471377e+18 -0 -0)
(4.30233996263665e+18 -0 -0)
(4.36290600562616e+18 -0 -0)
(4.42358856273397e+18 -0 -0)
(4.48438594148915e+18 -0 -0)
(4.54529633663487e+18 -0 -0)
(4.60631782969544e+18 -0 -0)
(4.66744838763859e+18 -0 -0)
(4.72868586234823e+18 -0 -0)
(4.79002798946393e+18 -0 -0)
(4.8514723877662e+18 -0 -0)
(4.91301655815326e+18 -0 -0)
(4.9746578826937e+18 -0 -0)
(5.03639362408771e+18 -0 -0)
(5.09822092435417e+18 -0 -0)
(5.16013680433553e+18 -0 -0)
(5.22213816275629e+18 -0 -0)
(5.28422177511813e+18 -0 -0)
(5.34638429310738e+18 -0 -0)
(5.40862224343519e+18 -0 -0)
(5.4709320269868e+18 -0 -0)
(5.53330991815736e+18 -0 -0)
(5.59575206331402e+18 -0 -0)
(5.65825448005972e+18 -0 -0)
(5.72081305620578e+18 -0 -0)
(5.78342354962525e+18 -0 -0)
(5.8460815857265e+18 -0 -0)
(5.90878265149365e+18 -0 -0)
(5.97152209767158e+18 -0 -0)
(6.03429516541373e+18 -0 -0)
(6.09709698198355e+18 -0 -0)
(6.15992239824084e+18 -0 -0)
(6.22276592672972e+18 -0 -0)
(6.28562259654395e+18 -0 -0)
(6.34848864030094e+18 -0 -0)
(6.41135729515911e+18 -0 -0)
(6.47421303745172e+18 -0 -0)
(6.53705078145186e+18 -0 -0)
(6.59991163343017e+18 -0 -0)
(6.6628222491052e+18 -0 -0)
(6.72578182765891e+18 -0 -0)
(6.78878301305102e+18 -0 -0)
(6.85181790475626e+18 -0 -0)
(6.91487827061595e+18 -0 -0)
(6.97795567820243e+18 -0 -0)
(7.04104155091392e+18 -0 -0)
(7.10412717368462e+18 -0 -0)
(7.16720369113078e+18 -0 -0)
(7.23026210213946e+18 -0 -0)
(7.29329325393488e+18 -0 -0)
(7.35628783563107e+18 -0 -0)
(7.41923637117934e+18 -0 -0)
(7.48212921247902e+18 -0 -0)
(7.54495653192469e+18 -0 -0)
(7.60770831447555e+18 -0 -0)
(7.67037434957956e+18 -0 -0)
(7.73294422252846e+18 -0 -0)
(7.79540730531459e+18 -0 -0)
(7.85775274717282e+18 -0 -0)
(7.91996946424201e+18 -0 -0)
(7.98204612909853e+18 -0 -0)
(8.0439711592922e+18 -0 -0)
(8.10573270555576e+18 -0 -0)
(8.16731863890928e+18 -0 -0)
(8.22871653763355e+18 -0 -0)
(8.28991367292651e+18 -0 -0)
(8.35089699392932e+18 -0 -0)
(8.41165311213314e+18 -0 -0)
(8.47216828446304e+18 -0 -0)
(8.53242839543346e+18 -0 -0)
(8.59241894049283e+18 -0 -0)
(8.65212499827995e+18 -0 -0)
(8.71153123747298e+18 -0 -0)
(8.77062181299395e+18 -0 -0)
(8.82938056546314e+18 -0 -0)
(8.88779044574381e+18 -0 -0)
(8.94583476410346e+18 -0 -0)
(9.00349439375222e+18 -0 -0)
(9.0607535225443e+18 -0 -0)
(9.11758791678858e+18 -0 -0)
(9.17398814042967e+18 -0 -0)
(9.22991436504928e+18 -0 -0)
(9.28538192168269e+18 -0 -0)
(9.34030334459344e+18 -0 -0)
(9.39477346104199e+18 -0 -0)
(9.44856273453268e+18 -0 -0)
(9.50200661425197e+18 -0 -0)
(9.55446998263648e+18 -0 -0)
(9.60693045704125e+18 -0 -0)
(9.65781227869001e+18 -0 -0)
(9.70879403687075e+18 -0 -0)
(9.75958537250592e+18 -0 -0)
(9.80883131470619e+18 -0 -0)
(9.8575532158056e+18 -0 -0)
(9.90616140203395e+18 -0 -0)
(9.95298053959036e+18 -0 -0)
(1.00010614128173e+19 -0 -0)
(1.00455548463557e+19 -0 -0)
(1.00930811198916e+19 -0 -0)
(1.0136088049257e+19 -0 -0)
(1.01797485174648e+19 -0 -0)
(1.0220718947534e+19 -0 -0)
(1.02673505811823e+19 -0 -0)
(1.03020318607721e+19 -0 -0)
(1.03416768956191e+19 -0 -0)
(1.0384275654001e+19 -0 -0)
(1.04155427202032e+19 -0 -0)
(1.04489023265658e+19 -0 -0)
(1.04892935685028e+19 -0 -0)
(1.05102367139612e+19 -0 -0)
(1.0546558990131e+19 -0 -0)
(1.05713016562932e+19 -0 -0)
(1.05984760509068e+19 -0 -0)
(1.06183368705289e+19 -0 -0)
(1.06508176928311e+19 -0 -0)
(1.06638611847847e+19 -0 -0)
(1.06932780563671e+19 -0 -0)
(1.07121229736667e+19 -0 -0)
(1.07446289245697e+19 -0 -0)
(1.07625860509762e+19 -0 -0)
(1.08045060970856e+19 -0 -0)
(1.08350773847198e+19 -0 -0)
(1.08949670559964e+19 -0 -0)
(1.09543878761222e+19 -0 -0)
(1.10597441263996e+19 -0 -0)
(1.12081573035654e+19 -0 -0)
(1.1412658824619e+19 -0 -0)
(1.16666953500947e+19 -0 -0)
(1.19501220748793e+19 -0 -0)
(1.21733094714484e+19 -0 -0)
(1.23880903396111e+19 -0 -0)
(1.25641854925692e+19 -0 -0)
(1.2683987165018e+19 -0 -0)
(1.27761537489235e+19 -0 -0)
(1.28484369656517e+19 -0 -0)
(1.29108484103504e+19 -0 -0)
(1.29647346117792e+19 -0 -0)
(1.30163740260567e+19 -0 -0)
(1.30627839528218e+19 -0 -0)
(1.31106710505816e+19 -0 -0)
(1.31558599375418e+19 -0 -0)
(1.32027373039383e+19 -0 -0)
(1.32476037182418e+19 -0 -0)
(1.32947742294425e+19 -0 -0)
(1.33399704773411e+19 -0 -0)
(1.33877241820422e+19 -0 -0)
(1.34333671276894e+19 -0 -0)
(1.34815184559856e+19 -0 -0)
(1.35273120222387e+19 -0 -0)
(1.35757090430829e+19 -0 -0)
(1.3620730538422e+19 -0 -0)
(1.36694815310306e+19 -0 -0)
(1.37140335763579e+19 -0 -0)
(1.37623298047956e+19 -0 -0)
(1.38060641583612e+19 -0 -0)
(1.38536193655994e+19 -0 -0)
(1.38962621841338e+19 -0 -0)
(1.39428124558844e+19 -0 -0)
(1.39841159374805e+19 -0 -0)
(1.40294448068628e+19 -0 -0)
(1.40692173736048e+19 -0 -0)
(1.41131402565336e+19 -0 -0)
(1.41512459928633e+19 -0 -0)
(1.41936392910603e+19 -0 -0)
(1.42299803939188e+19 -0 -0)
(1.42707932012938e+19 -0 -0)
(1.43052339819318e+19 -0 -0)
(1.43442486107781e+19 -0 -0)
(1.43771198210706e+19 -0 -0)
(1.44144249043458e+19 -0 -0)
(1.444542437868e+19 -0 -0)
(1.44810892472236e+19 -0 -0)
(1.45102519340888e+19 -0 -0)
(1.45443121874132e+19 -0 -0)
(1.4571687412681e+19 -0 -0)
(1.46041957926798e+19 -0 -0)
(1.46298485483439e+19 -0 -0)
(1.46608624745366e+19 -0 -0)
(1.46848475680647e+19 -0 -0)
(1.47144378900557e+19 -0 -0)
(1.4736835640463e+19 -0 -0)
(1.47650881273651e+19 -0 -0)
(1.47859811172355e+19 -0 -0)
(1.4812985074736e+19 -0 -0)
(1.48324541980206e+19 -0 -0)
(1.48582814975424e+19 -0 -0)
(1.48764020786e+19 -0 -0)
(1.49011193421216e+19 -0 -0)
(1.4917963890682e+19 -0 -0)
(1.49416741540929e+19 -0 -0)
(1.49557166930625e+19 -0 -0)
(1.49815540913892e+19 -0 -0)
(1.49929134743653e+19 -0 -0)
(1.50180707997798e+19 -0 -0)
(1.50281771683421e+19 -0 -0)
(1.50527385064257e+19 -0 -0)
(1.50616530049776e+19 -0 -0)
(1.50856874770757e+19 -0 -0)
(1.50934592481876e+19 -0 -0)
(1.51170130576331e+19 -0 -0)
(1.51236880663388e+19 -0 -0)
(1.51467895121041e+19 -0 -0)
(1.51524258116585e+19 -0 -0)
(1.51750881882428e+19 -0 -0)
(1.51797521944455e+19 -0 -0)
(1.52019987599633e+19 -0 -0)
(1.52057448658043e+19 -0 -0)
(1.52276318635815e+19 -0 -0)
(1.52304877056745e+19 -0 -0)
(1.52520550994817e+19 -0 -0)
(1.52540068559491e+19 -0 -0)
(1.52752678395362e+19 -0 -0)
(1.52763543678249e+19 -0 -0)
(1.52973326672197e+19 -0 -0)
(1.52975700331413e+19 -0 -0)
(1.53182932609864e+19 -0 -0)
(1.53176075267246e+19 -0 -0)
(1.53379943255074e+19 -0 -0)
(1.53364093013656e+19 -0 -0)
(1.53564361114218e+19 -0 -0)
(1.5353819941741e+19 -0 -0)
(1.53734174076456e+19 -0 -0)
(1.53691734675075e+19 -0 -0)
(1.53889186460658e+19 -0 -0)
(1.53628751252479e+19 -0 -0)
)
;

boundaryField
{
    electrode
    {
        type            calculated;
        value           uniform (-14069510003.0841 -0 -0);
    }
    ground
    {
        type            calculated;
        value           uniform (1.53918512381941e+19 -0 -0);
    }
    otherfaces
    {
        type            empty;
    }
}


// ************************************************************************* //
