/*--------------------------------*- C++ -*----------------------------------*\
| =========                 |                                                 |
| \\      /  F ield         | foam-extend: Open Source CFD                    |
|  \\    /   O peration     | Version:     4.0                                |
|   \\  /    A nd           | Web:         http://www.foam-extend.org         |
|    \\/     M anipulation  |                                                 |
\*---------------------------------------------------------------------------*/
FoamFile
{
    version     2.0;
    format      ascii;
    class       volVectorField;
    location    "9e-06";
    object      J_electron;
}
// * * * * * * * * * * * * * * * * * * * * * * * * * * * * * * * * * * * * * //

dimensions      [1 -1 -1 0 0 0 0];

internalField   nonuniform List<vector> 
300
(
(-1.34115150660501e+19 0 0)
(-1.37666496707389e+19 0 0)
(-1.62768953295911e+19 0 0)
(-1.57695665977516e+19 0 0)
(-1.57634065963529e+19 0 0)
(-1.5748702030488e+19 0 0)
(-1.56802116215442e+19 0 0)
(-1.56285219637786e+19 0 0)
(-1.55744013881898e+19 0 0)
(-1.55195626855037e+19 0 0)
(-1.54651005460644e+19 0 0)
(-1.54105030666046e+19 0 0)
(-1.53558657525076e+19 0 0)
(-1.53011936429062e+19 0 0)
(-1.5246472932701e+19 0 0)
(-1.51917039889341e+19 0 0)
(-1.51368834716922e+19 0 0)
(-1.50820083001113e+19 0 0)
(-1.50270756674639e+19 0 0)
(-1.49720826156825e+19 0 0)
(-1.49170262950971e+19 0 0)
(-1.48619038759679e+19 0 0)
(-1.48067125581772e+19 0 0)
(-1.47514495153428e+19 0 0)
(-1.46961120858711e+19 0 0)
(-1.46406974588605e+19 0 0)
(-1.45852030277373e+19 0 0)
(-1.45296261423605e+19 0 0)
(-1.44739641599099e+19 0 0)
(-1.44182145573163e+19 0 0)
(-1.43623747847881e+19 0 0)
(-1.43064423786803e+19 0 0)
(-1.42504148724305e+19 0 0)
(-1.41942898563208e+19 0 0)
(-1.41380649953038e+19 0 0)
(-1.4081737984143e+19 0 0)
(-1.40253065080127e+19 0 0)
(-1.39687683765683e+19 0 0)
(-1.39121214248203e+19 0 0)
(-1.38553634979101e+19 0 0)
(-1.37984925377996e+19 0 0)
(-1.37415065170016e+19 0 0)
(-1.36844034626159e+19 0 0)
(-1.36271814090894e+19 0 0)
(-1.35698385362729e+19 0 0)
(-1.35123729904616e+19 0 0)
(-1.3454783030835e+19 0 0)
(-1.33970669047078e+19 0 0)
(-1.33392229899651e+19 0 0)
(-1.32812496539689e+19 0 0)
(-1.32231453799439e+19 0 0)
(-1.31649086660231e+19 0 0)
(-1.31065380489679e+19 0 0)
(-1.30480321766419e+19 0 0)
(-1.29893897137574e+19 0 0)
(-1.29306093932603e+19 0 0)
(-1.28716900093141e+19 0 0)
(-1.28126303878549e+19 0 0)
(-1.27534294680417e+19 0 0)
(-1.26940861752625e+19 0 0)
(-1.26345995420906e+19 0 0)
(-1.25749686314753e+19 0 0)
(-1.25151925501968e+19 0 0)
(-1.24552704961599e+19 0 0)
(-1.23952016943989e+19 0 0)
(-1.23349854244407e+19 0 0)
(-1.22746210232516e+19 0 0)
(-1.22141078724503e+19 0 0)
(-1.2153445401806e+19 0 0)
(-1.20926330923269e+19 0 0)
(-1.20316704739796e+19 0 0)
(-1.19705571056946e+19 0 0)
(-1.19092926051734e+19 0 0)
(-1.18478766436524e+19 0 0)
(-1.17863088651242e+19 0 0)
(-1.17245890492912e+19 0 0)
(-1.16627169046881e+19 0 0)
(-1.16006922337911e+19 0 0)
(-1.15385148354257e+19 0 0)
(-1.14761845798491e+19 0 0)
(-1.14137012438392e+19 0 0)
(-1.13510647565706e+19 0 0)
(-1.12882749316352e+19 0 0)
(-1.12253316858181e+19 0 0)
(-1.11622348451584e+19 0 0)
(-1.10989842913857e+19 0 0)
(-1.10355798842771e+19 0 0)
(-1.09720214046313e+19 0 0)
(-1.0908308710693e+19 0 0)
(-1.0844441500207e+19 0 0)
(-1.07804195021421e+19 0 0)
(-1.0716242400446e+19 0 0)
(-1.06519097254913e+19 0 0)
(-1.05874210353835e+19 0 0)
(-1.05227757366506e+19 0 0)
(-1.04579731043113e+19 0 0)
(-1.03930124210285e+19 0 0)
(-1.03278927076833e+19 0 0)
(-1.02626128983244e+19 0 0)
(-1.01971716724443e+19 0 0)
(-1.01315677509093e+19 0 0)
(-1.00657998425269e+19 0 0)
(-9.99986566809204e+18 0 0)
(-9.93376101850572e+18 0 0)
(-9.8674845828194e+18 0 0)
(-9.8010461470007e+18 0 0)
(-9.73444287276777e+18 0 0)
(-9.66760290963214e+18 0 0)
(-9.6004892225595e+18 0 0)
(-9.53343645973846e+18 0 0)
(-9.46675405463801e+18 0 0)
(-9.39866638514651e+18 0 0)
(-9.32603828115866e+18 0 0)
(-9.25286331015548e+18 0 0)
(-9.18303548208841e+18 0 0)
(-9.11418344471318e+18 0 0)
(-9.04522826546571e+18 0 0)
(-8.97600766129367e+18 0 0)
(-8.90645920921787e+18 0 0)
(-8.83655689543981e+18 0 0)
(-8.76628434397115e+18 0 0)
(-8.69562611027463e+18 0 0)
(-8.62456591538035e+18 0 0)
(-8.55308575528767e+18 0 0)
(-8.48116562621524e+18 0 0)
(-8.40878332774659e+18 0 0)
(-8.33591411048553e+18 0 0)
(-8.26253048928902e+18 0 0)
(-8.18860197167288e+18 0 0)
(-8.11409467155887e+18 0 0)
(-8.03897099216958e+18 0 0)
(-7.96318922473053e+18 0 0)
(-7.88670305429199e+18 0 0)
(-7.80946111174803e+18 0 0)
(-7.73140629826411e+18 0 0)
(-7.65247525011482e+18 0 0)
(-7.57259748187465e+18 0 0)
(-7.49169469168235e+18 0 0)
(-7.40967963903394e+18 0 0)
(-7.32645526530215e+18 0 0)
(-7.24191335143912e+18 0 0)
(-7.15593317869525e+18 0 0)
(-7.06837997438684e+18 0 0)
(-6.97910314511788e+18 0 0)
(-6.88793411643349e+18 0 0)
(-6.79468451534314e+18 0 0)
(-6.69914195767801e+18 0 0)
(-6.60107179529339e+18 0 0)
(-6.50020096926705e+18 0 0)
(-6.3962454829501e+18 0 0)
(-6.28883505987715e+18 0 0)
(-6.17765871945882e+18 0 0)
(-6.06215562848004e+18 0 0)
(-5.94210261927723e+18 0 0)
(-5.81646878844125e+18 0 0)
(-5.68555104766421e+18 0 0)
(-5.5470303711928e+18 0 0)
(-5.40296657698187e+18 0 0)
(-5.24763170120558e+18 0 0)
(-5.08809380610913e+18 0 0)
(-4.90925912208756e+18 0 0)
(-4.73064640421455e+18 0 0)
(-4.51121354136302e+18 0 0)
(-4.27841802353613e+18 0 0)
(-3.91982739123025e+18 0 0)
(-3.08454949723308e+18 0 0)
(-2.29582292263947e+18 0 0)
(-2.12879385945545e+18 0 0)
(-2.05416848449916e+18 0 0)
(-1.73994926941615e+18 0 0)
(-1.11316573799475e+18 0 0)
(-4.3293362722911e+17 0 0)
(1.92212433646911e+17 0 0)
(6.00860886345712e+17 0 0)
(1.39365207733436e+17 0 0)
(-4.79211865408274e+17 0 0)
(-3.59653947620721e+16 0 0)
(-1.32827652773904e+17 0 0)
(-1.76412620329006e+18 0 0)
(-2.26549523805425e+18 0 0)
(-2.45407573312379e+18 0 0)
(-4.02233097064127e+18 0 0)
(-4.3115997200751e+18 0 0)
(-3.62200414264859e+18 0 0)
(-4.12734663006303e+18 0 0)
(-2.68458431433566e+18 0 0)
(-7.37074088900559e+17 0 0)
(1.37827848055842e+18 0 0)
(4.48217247109612e+18 0 0)
(7.62523091698136e+18 0 0)
(1.0188535770538e+19 0 0)
(1.23819520846075e+19 0 0)
(1.39273141411874e+19 0 0)
(1.39483095667612e+19 0 0)
(1.46734600553187e+19 0 0)
(1.171915960374e+19 0 0)
(1.04248103480061e+19 0 0)
(8.13412840828509e+18 0 0)
(6.20185597376037e+18 0 0)
(8.01874807511414e+18 0 0)
(-4.69839282841708e+18 0 0)
(2.50389817215038e+18 0 0)
(-8.86503762180186e+17 0 0)
(-2.11853905500674e+18 0 0)
(-2.02975170222109e+18 0 0)
(-2.00775135025493e+18 0 0)
(-2.1757162655636e+18 0 0)
(-2.47829322312876e+18 0 0)
(-2.74020633242265e+18 0 0)
(-2.89572060659839e+18 0 0)
(-2.96607524512421e+18 0 0)
(-2.98467871313581e+18 0 0)
(-2.97478883712571e+18 0 0)
(-2.95037727512279e+18 0 0)
(-2.91612063596028e+18 0 0)
(-2.88178035965592e+18 0 0)
(-2.84127161204089e+18 0 0)
(-2.79671924861526e+18 0 0)
(-2.75064986861294e+18 0 0)
(-2.70450888444967e+18 0 0)
(-2.65877838582654e+18 0 0)
(-2.61172465390105e+18 0 0)
(-2.56484370844052e+18 0 0)
(-2.5178289081901e+18 0 0)
(-2.47038455680292e+18 0 0)
(-2.42293193723175e+18 0 0)
(-2.37553862372955e+18 0 0)
(-2.32833352785981e+18 0 0)
(-2.28140922234622e+18 0 0)
(-2.23485231472659e+18 0 0)
(-2.18874095054675e+18 0 0)
(-2.14314622960487e+18 0 0)
(-2.09813239919356e+18 0 0)
(-2.05375666362488e+18 0 0)
(-2.01006947974853e+18 0 0)
(-1.96711443618211e+18 0 0)
(-1.92492542477553e+18 0 0)
(-1.88352699334236e+18 0 0)
(-1.84285856641077e+18 0 0)
(-1.80331644105982e+18 0 0)
(-1.76446943854184e+18 0 0)
(-1.72652321594819e+18 0 0)
(-1.68944842205251e+18 0 0)
(-1.65325771922577e+18 0 0)
(-1.6179546880014e+18 0 0)
(-1.58353605131692e+18 0 0)
(-1.54999528968635e+18 0 0)
(-1.51732292304627e+18 0 0)
(-1.48550727202822e+18 0 0)
(-1.45453458190423e+18 0 0)
(-1.42438966566244e+18 0 0)
(-1.39505601567017e+18 0 0)
(-1.36651857070169e+18 0 0)
(-1.33875582356174e+18 0 0)
(-1.31177632510896e+18 0 0)
(-1.28545349807337e+18 0 0)
(-1.25991409285498e+18 0 0)
(-1.23510525658452e+18 0 0)
(-1.21089174650078e+18 0 0)
(-1.18736151828419e+18 0 0)
(-1.16445757723432e+18 0 0)
(-1.14216560008747e+18 0 0)
(-1.12046443545596e+18 0 0)
(-1.09933622066835e+18 0 0)
(-1.07876579763361e+18 0 0)
(-1.05873163485302e+18 0 0)
(-1.03921471870338e+18 0 0)
(-1.02019933010658e+18 0 0)
(-1.00167001441591e+18 0 0)
(-9.83601639823469e+17 0 0)
(-9.65999349955846e+17 0 0)
(-9.486816076277e+17 0 0)
(-9.32084513497509e+17 0 0)
(-9.15750253166479e+17 0 0)
(-8.99819697849061e+17 0 0)
(-8.84265313819733e+17 0 0)
(-8.69084603859111e+17 0 0)
(-8.54265149985008e+17 0 0)
(-8.39796410932364e+17 0 0)
(-8.25666894820949e+17 0 0)
(-8.11866837905485e+17 0 0)
(-7.98376812084111e+17 0 0)
(-7.85200406353398e+17 0 0)
(-7.72154494670472e+17 0 0)
(-7.59652811166194e+17 0 0)
(-7.47560333960948e+17 0 0)
(-7.35614629559101e+17 0 0)
(-7.23933357109076e+17 0 0)
(-7.12545520072639e+17 0 0)
(-7.00998101549507e+17 0 0)
(-6.90677770973188e+17 0 0)
(-6.80207895986474e+17 0 0)
(-6.69718362562851e+17 0 0)
(-6.59964908941313e+17 0 0)
(-6.5061344033366e+17 0 0)
(-6.4132661246281e+17 0 0)
(-6.33124710115539e+17 0 0)
(-6.25839952364137e+17 0 0)
(-6.19431191315735e+17 0 0)
(-6.08428098352988e+17 0 0)
)
;

boundaryField
{
    electrode
    {
        type            calculated;
        value           uniform (-1.60393151715223e+19 0 0);
    }
    ground
    {
        type            calculated;
        value           uniform (-6.05768554666103e+17 0 0);
    }
    otherfaces
    {
        type            empty;
    }
}


// ************************************************************************* //
