/*--------------------------------*- C++ -*----------------------------------*\
| =========                 |                                                 |
| \\      /  F ield         | foam-extend: Open Source CFD                    |
|  \\    /   O peration     | Version:     4.0                                |
|   \\  /    A nd           | Web:         http://www.foam-extend.org         |
|    \\/     M anipulation  |                                                 |
\*---------------------------------------------------------------------------*/
FoamFile
{
    version     2.0;
    format      ascii;
    class       volScalarField;
    location    "9e-06";
    object      N_electronMean;
}
// * * * * * * * * * * * * * * * * * * * * * * * * * * * * * * * * * * * * * //

dimensions      [0 0 0 1 0 0 0];

internalField   nonuniform List<scalar> 
300
(
6.2079501332573e+16
6.20779406066422e+16
6.20737269353172e+16
6.20664143165292e+16
6.20560470274089e+16
6.20425925344082e+16
6.20260350680064e+16
6.20063666312068e+16
6.19835788637993e+16
6.1957665479784e+16
6.19286216467078e+16
6.18964438122519e+16
6.18611296318538e+16
6.18226778508249e+16
6.17810882298225e+16
6.17363614704502e+16
6.16884991514181e+16
6.16375036738928e+16
6.15833782083485e+16
6.1526126644238e+16
6.14657535455183e+16
6.14022641085418e+16
6.1335664121431e+16
6.12659599224997e+16
6.11931583698812e+16
6.11172668176914e+16
6.10382930724899e+16
6.09562453499777e+16
6.08711322396744e+16
6.07829626573503e+16
6.06917458142323e+16
6.05974912086964e+16
6.05002085829922e+16
6.03999078536676e+16
6.02965990615783e+16
6.01902923318954e+16
6.00809978347621e+16
5.99687257492729e+16
5.98534862241011e+16
5.97352893375522e+16
5.96141450648341e+16
5.9490063244746e+16
5.93630535401e+16
5.92331254015933e+16
5.91002880367026e+16
5.89645503794131e+16
5.88259210621084e+16
5.86844083906168e+16
5.85400203251607e+16
5.83927644670039e+16
5.82426480588593e+16
5.808967798596e+16
5.79338607553828e+16
5.77752024570118e+16
5.76137087074133e+16
5.74493845921063e+16
5.72822346162332e+16
5.71122626661066e+16
5.69394719800239e+16
5.6763865120073e+16
5.65854439469512e+16
5.64042095966966e+16
5.6220162454798e+16
5.60333021512884e+16
5.58436275810756e+16
5.56511368796093e+16
5.54558273566526e+16
5.52576954573497e+16
5.50567367441825e+16
5.48529458787807e+16
5.46463166036734e+16
5.443684173512e+16
5.42245131769053e+16
5.40093219117211e+16
5.37912579667011e+16
5.35703104167836e+16
5.33464674021789e+16
5.31197161122166e+16
5.28900427373682e+16
5.26574324403789e+16
5.24218693544232e+16
5.21833365334996e+16
5.19418159047974e+16
5.1697288254114e+16
5.14497332207643e+16
5.11991293083835e+16
5.09454538646789e+16
5.06886830358594e+16
5.04287917482034e+16
5.01657537092378e+16
4.98995413917328e+16
4.96301260477186e+16
4.93574777308432e+16
4.90815652397843e+16
4.88023560652288e+16
4.85198163789307e+16
4.82339110223904e+16
4.79446034961513e+16
4.76518559494484e+16
4.73556291782697e+16
4.70558826227493e+16
4.6752574348192e+16
4.64456610504353e+16
4.61350980765036e+16
4.58208394000342e+16
4.55028376067828e+16
4.51810438973338e+16
4.48554080800976e+16
4.45258785774193e+16
4.41924024114845e+16
4.38549251829268e+16
4.35133910664728e+16
4.31677428146032e+16
4.28179217812531e+16
4.24638679453051e+16
4.21055199361798e+16
4.17428150859736e+16
4.13756894519646e+16
4.10040777893e+16
4.06279135303105e+16
4.0247128807479e+16
3.98616544907552e+16
3.94714202183253e+16
3.90763544348728e+16
3.86763843839928e+16
3.8271436068309e+16
3.78614342583534e+16
3.74463025213604e+16
3.70259632212944e+16
3.66003375263337e+16
3.6169345436851e+16
3.57329058121251e+16
3.52909363886491e+16
3.48433537957584e+16
3.43900736191402e+16
3.39310104770562e+16
3.3466078018057e+16
3.29951888834964e+16
3.25182547083344e+16
3.2035186148267e+16
3.15458928818927e+16
3.10502836064229e+16
3.05482660480241e+16
3.00397469804215e+16
2.95246322860489e+16
2.90028270036738e+16
2.8474235303943e+16
2.79387604499202e+16
2.73963047524204e+16
2.6846769572792e+16
2.62900553756966e+16
2.57260617124132e+16
2.51546872139668e+16
2.45758296344247e+16
2.39893858245208e+16
2.33952517823746e+16
2.2793322743698e+16
2.21834933492211e+16
2.1565657585947e+16
2.09397083865176e+16
2.03055355724345e+16
1.96630140657985e+16
1.90119867679477e+16
1.83522567120688e+16
1.76835859687922e+16
1.70056822601588e+16
1.63181808244503e+16
1.56206764947723e+16
1.4912787557706e+16
1.41941836358596e+16
1.34646051861824e+16
1.27239303443894e+16
1.19722939809585e+16
1.12102385633555e+16
1.04389355284286e+16
9.66042778049681e+15
8.87774196670819e+15
8.09498449492646e+15
7.31749163605283e+15
6.55179809387572e+15
5.8053943193605e+15
5.0864317147145e+15
4.40325958891036e+15
3.76378565203105e+15
3.17489647771045e+15
2.64190819159678e+15
2.1681061586663e+15
1.75458217504745e+15
1.40029110274168e+15
1.10227531925999e+15
856084820572203
656282319097042
496916764144787
371943936074395
275266796563117
201465830992524
145951165314918
104718501944259
74356273670181
51990793906421.4
35643329003567
24028239697796
15888927504752.5
10288783870869.8
6650788005488.36
4447868259708.11
3189019849316.82
2487754896889.39
2093357856591.57
1864371038312.75
1726014398801.54
1638999366495.72
1582018626585.32
1543078012095.7
1515124848336.02
1493804366041.04
1476291669377.75
1460712498621.84
1445876713221.04
1431065881705.61
1415735560076.89
1399513777222.16
1382217710952.3
1363745802475.04
1344070549517.75
1323219153595.31
1301256402489.91
1278271600314.47
1254369820720.5
1229665589979.93
1204278149373.57
1178328376973.22
1151935512006.41
1125215335037.04
1098278809002.56
1071230653711.67
1044168488721.93
1017182633297.2
990355304885.506
963758781624.417
937456306787.618
911504951824.427
885956677788.363
860857937242.64
836249183995.094
812164640753.125
788631817951.553
765672397177.645
743302763730.101
721534662536.662
700376444244.099
679833022042.58
659905784802.206
640592948007.172
621890145361.349
603791956043.056
586289333850.531
569368753714.016
553018001044.427
537225646366.235
521978337948.964
507261454916.081
493059823849.301
479357803506.719
466139574595.306
453389449179.146
441091159717.058
429228203782.354
417784414981.194
406743594806.04
396089116353.17
385803710270.574
375869999113.564
366273962647.291
357004681925.81
348052081326.796
339406808984.377
331060057186.465
323003760239.792
315230632352.938
307734088776.783
300507704549.585
293544479563.372
286829062249.584
280335483300.273
274049391572.508
267975838008.699
262125619544.421
256510504808.655
251124509697.238
245940948102.183
240965902349.815
236244672234.018
231783280708.222
227608365388.006
223803616594.244
220495308190.146
217943959320.985
216584262877.115
217182898211.949
)
;

boundaryField
{
    electrode
    {
        type            calculated;
        value           uniform 6.20795013327048e+16;
    }
    ground
    {
        type            calculated;
        value           uniform 219010494408.478;
    }
    otherfaces
    {
        type            empty;
    }
}


// ************************************************************************* //
