/*--------------------------------*- C++ -*----------------------------------*\
| =========                 |                                                 |
| \\      /  F ield         | foam-extend: Open Source CFD                    |
|  \\    /   O peration     | Version:     4.0                                |
|   \\  /    A nd           | Web:         http://www.foam-extend.org         |
|    \\/     M anipulation  |                                                 |
\*---------------------------------------------------------------------------*/
FoamFile
{
    version     2.0;
    format      ascii;
    class       volScalarField;
    location    "9e-06";
    object      Phi;
}
// * * * * * * * * * * * * * * * * * * * * * * * * * * * * * * * * * * * * * //

dimensions      [0 0 0 1 0 0 0];

internalField   nonuniform List<scalar> 
300
(
699.999929885822
699.999706487967
699.999184024802
699.998394801361
699.997347144825
699.996035645747
699.994461169167
699.992623292415
699.990521453714
699.988155168088
699.985523855135
699.982626883358
699.979463568108
699.976033168227
699.972334886941
699.968367871305
699.964131211774
699.959623941811
699.954845037436
699.949793416752
699.944467939444
699.938867406254
699.932990558419
699.926836077085
699.92040258269
699.913688634319
699.906692729013
699.899413301068
699.89184872128
699.883997296163
699.875857267137
699.86742680967
699.858704032384
699.849686976126
699.840373612999
699.830761845342
699.820849504678
699.810634350611
699.80011406968
699.789286274162
699.778148500831
699.766698209656
699.754932782458
699.742849521503
699.73044564804
699.717718300783
699.704664534325
699.691281317491
699.677565531628
699.663513968819
699.649123330026
699.634390223161
699.619311161078
699.603882559479
699.588100734736
699.571961901634
699.555462171001
699.53859754726
699.521363925871
699.503757090668
699.485772711084
699.467406339269
699.448653407071
699.429509222907
699.40996896849
699.390027695423
699.369680321647
699.348921627732
699.327746253014
699.306148691558
699.284123287955
699.261664232919
699.238765558703
699.215421134307
699.191624660465
699.167369664415
699.142649494429
699.117457314088
699.091786096298
699.065628617029
699.038977448759
699.011824953608
698.984163276151
698.955984335881
698.927279819312
698.898041171699
698.868259588345
698.83792600549
698.80703109073
698.775565232967
698.743518531841
698.710880786622
698.677641484526
698.64378978842
698.609314523885
698.574204165577
698.538446822869
698.502030224696
698.464941703589
698.427168178801
698.388696138501
698.349511620951
698.309600194614
698.26894693716
698.227536413138
698.185352650118
698.142379113743
698.098598682761
698.053993621202
698.008545540155
697.96223536027
697.915043319901
697.866948991527
697.81793105325
697.767966898753
697.717032886832
697.665104441344
697.612156002739
697.558160972098
697.503091652778
697.446919187175
697.389613488793
697.331143169257
697.271475459833
697.210576126938
697.148409381095
697.084937778695
697.020122115884
696.953921313788
696.886292294219
696.817189844898
696.746566473103
696.674372246533
696.600554620031
696.525058246607
696.447824771051
696.368792604151
696.287896675303
696.205068160991
696.120234186253
696.033317495853
695.944236091428
695.852902830292
695.759224980974
695.663103729809
695.564433632013
695.463101999637
695.358988217639
695.251962977622
695.141887417855
695.028612153781
694.911976187388
694.791805664071
694.667912481554
694.540092664657
694.408124596069
694.271766817731
694.130755845775
693.984803000396
693.833591954044
693.676773688821
693.513964535289
693.344736955586
693.168620705832
692.985083077394
692.793540379205
692.59329462432
692.383417695224
692.162835763594
691.930410813186
691.684865381935
691.424729594347
691.148219495597
690.853250919393
690.537323739701
690.197598671963
689.831118766561
689.434573034155
689.003822929462
688.534500053051
688.022255883884
687.461790183503
686.847572054638
686.174382984585
685.436119420003
684.627025858256
683.74168397246
682.774379690767
681.720088314868
680.574675063976
679.333898022013
677.994476817113
676.554298020637
675.011618938784
673.364897452696
671.613806775098
669.758541167287
667.799586111758
665.737183288025
663.57185093287
661.303980079232
658.934404360518
656.463135816103
653.88930824952
651.212188341921
648.43141543507
645.547131963795
642.559901603911
639.47062166987
636.280276114445
632.989866200914
629.600332691542
626.112552263549
622.527299188294
618.845533908833
615.068348113293
611.196752639279
607.231655584916
603.173896341494
599.024222608105
594.78332540934
590.451813398485
586.030249201557
581.519122192228
576.918884309302
572.229921151592
567.452865605878
562.588335038643
557.63692988184
552.599185967037
547.475629330518
542.266726070281
536.972938347882
531.594672060067
526.132334115309
520.586277918785
514.95686205693
509.244393765829
503.449188856653
497.571513414881
491.611644955213
485.56981242033
479.446325978015
473.241597438325
466.95605165597
460.590068051492
454.144041575669
447.618322474683
441.013278664654
434.329233875929
427.566531385073
420.725470610482
413.806372172596
406.809513056324
399.735192988385
392.583668076413
385.355218536426
378.050080873127
370.668516991279
363.210744822143
355.677009000948
348.067509889987
340.3824757497
332.62209025607
324.786566084208
316.876070993551
308.890947594804
300.831472048388
292.697982083434
284.490737348915
276.210061737304
267.85619915802
259.429460500062
250.930074691013
242.35834041394
233.71447239962
224.998757837837
216.211398043359
207.352669299398
198.422760275864
189.421936825493
180.350375627642
171.2083325753
161.995972797936
152.713542772464
143.361196533638
133.939171817385
124.447612100226
114.886746754798
105.25670913715
95.5577207140401
85.7899050858817
75.9534766257431
66.0485500107485
56.0753328353716
46.0339313835343
35.9245474726182
25.7472796988832
15.5023272009231
5.18983233924091
)
;

boundaryField
{
    electrode
    {
        type            fixedValue;
        value           uniform 700;
    }
    ground
    {
        type            fixedValue;
        value           uniform 0;
    }
    otherfaces
    {
        type            empty;
    }
}


// ************************************************************************* //
