/*--------------------------------*- C++ -*----------------------------------*\
| =========                 |                                                 |
| \\      /  F ield         | foam-extend: Open Source CFD                    |
|  \\    /   O peration     | Version:     4.0                                |
|   \\  /    A nd           | Web:         http://www.foam-extend.org         |
|    \\/     M anipulation  |                                                 |
\*---------------------------------------------------------------------------*/
FoamFile
{
    version     2.0;
    format      ascii;
    class       volScalarField;
    location    "9e-06";
    object      PhiMean;
}
// * * * * * * * * * * * * * * * * * * * * * * * * * * * * * * * * * * * * * //

dimensions      [0 0 0 1 0 0 0];

internalField   nonuniform List<scalar> 
300
(
699.991791658919
699.990895287303
699.989721319285
699.988296052901
699.986628521199
699.984712430397
699.982547697576
699.9801334345
699.977468717341
699.97455283172
699.971385099802
699.967964914796
699.964291719432
699.960364998299
699.95618427162
699.951749087985
699.94705901881
699.942113654327
699.936912598698
699.931455465436
699.925741874027
699.919771446348
699.913543803462
699.907058562208
699.900315331548
699.893313715591
699.886053306548
699.878533681326
699.870754400562
699.862715002802
699.854415000167
699.845853885177
699.837031125215
699.827946152431
699.818598360933
699.80898710355
699.799111688285
699.788971376056
699.778565377036
699.767892846304
699.756952881402
699.745744520097
699.734266735078
699.722518430954
699.710498440968
699.698205523829
699.685638360412
699.672795551133
699.65967561318
699.646276979923
699.632597999371
699.618636939282
699.604391979898
699.589861213319
699.575042631544
699.55993412087
699.544533452989
699.528838280213
699.512846131126
699.49655440569
699.479960370762
699.463061155581
699.44585374635
699.428334980819
699.41050155609
699.392350022689
699.373876766442
699.355078003528
699.335949775259
699.316487942243
699.296688178383
699.276545964086
699.256056587464
699.235215140367
699.214016502499
699.192455340163
699.170526107712
699.148223036063
699.125540123746
699.102471116537
699.079009518396
699.055148564023
699.03088120792
699.006200116793
698.981097656821
698.955565893632
698.929596577873
698.903181125838
698.876310606679
698.848975735725
698.821166858167
698.792873934039
698.764086547284
698.734793865746
698.704984623187
698.674647103764
698.643769123318
698.612338011914
698.580340592086
698.547763160992
698.514591470062
698.480810698904
698.446405428001
698.411359630859
698.37565663141
698.339279077034
698.30220891394
698.264427346115
698.225914812219
698.18665094207
698.146614514014
698.105783415552
698.064134597209
698.021644031345
697.978286666745
697.934036372699
697.888865897576
697.842746813497
697.795649438739
697.74754276468
697.698394381161
697.648170411168
697.596835415931
697.544352321149
697.490682307115
697.43578468763
697.379616792125
697.322133851147
697.263288845848
697.203032361101
697.141312423508
697.078074327692
697.013260441038
696.946809988795
696.878658827052
696.808739217407
696.736979528221
696.663303920806
696.587631997549
696.509878439781
696.429952581381
696.347757942837
696.2631917169
696.176144190013
696.086498113619
695.994128004873
695.898899316149
695.800667523197
695.699277081399
695.594560249821
695.486335802738
695.374407494638
695.258562324656
695.138568577952
695.014173516549
694.885100705252
694.7510470316
694.611678998194
694.466628795118
694.315488837637
694.157806770108
693.99307522859
693.820711334453
693.640044255738
693.450301441872
693.250589791369
693.039852452799
692.816846741514
692.580149622725
692.328108539022
692.058783373699
691.769905488907
691.458851132566
691.122575767541
690.757589700678
690.360059816026
689.92571726587
689.449742338542
688.927000703808
688.352068339926
687.719175247445
687.022447869205
686.256120144194
685.414412419322
684.491954369748
683.483912864568
682.38584935912
681.194044397941
679.905670624788
678.518425060612
677.030611568878
675.441359527208
673.750348043606
671.957639340618
670.063488047565
668.068483983789
665.973144385968
663.777894071365
661.483068959779
659.089013847185
656.596057503055
654.004427487139
651.314045797995
648.524943230393
645.637340222318
642.651774542925
639.568982029117
636.389838130105
633.115270824757
629.746176611512
626.283411521407
622.727753661355
619.079978082743
615.340908918456
611.511479775235
607.592576402995
603.58502914267
599.48958413359
595.306943275367
591.037733171052
586.682546247194
582.241907158489
577.716315356436
573.106209466654
568.412011339194
563.634152240387
558.773247129767
553.829859094192
548.804546328912
543.697810088935
538.51015253834
533.242021762287
527.893872367791
522.466108655529
516.959146046382
511.373350223326
505.709101527198
499.966731410871
494.146589318434
488.248976404189
482.274214956393
476.222579642382
470.09438920028
463.890042241656
457.60998933216
451.254629377172
444.824388039585
438.319639082542
431.74078551499
425.088177956268
418.36219867959
411.563176818964
404.691475555197
397.747403918843
390.731307404857
383.643476138016
376.484239107716
369.253868586455
361.952678060075
354.580922878924
347.138901877935
339.626854325686
332.045065183882
324.39375828107
316.673205421283
308.883617920795
301.02529289089
293.098494945148
285.103570746119
277.040815106684
268.910585413257
260.71316241461
252.448891709363
244.118039881038
235.720941452224
227.257849423286
218.72908789756
210.134896856889
201.475590585416
192.751396578464
183.962619854511
175.109475881156
166.192260943169
157.211178911063
148.166517920865
139.058470772808
129.887318039025
120.653241830767
111.356515607805
101.997311129116
92.5758951368844
83.0924295172504
73.5471750269347
63.9402841405998
54.2720119535473
44.5425021594995
34.7520051053078
24.9006562642499
14.9887024372602
5.01627677275082
)
;

boundaryField
{
    electrode
    {
        type            calculated;
        value           uniform 699.999999999408;
    }
    ground
    {
        type            calculated;
        value           uniform 0;
    }
    otherfaces
    {
        type            empty;
    }
}


// ************************************************************************* //
