/*--------------------------------*- C++ -*----------------------------------*\
| =========                 |                                                 |
| \\      /  F ield         | foam-extend: Open Source CFD                    |
|  \\    /   O peration     | Version:     4.0                                |
|   \\  /    A nd           | Web:         http://www.foam-extend.org         |
|    \\/     M anipulation  |                                                 |
\*---------------------------------------------------------------------------*/
FoamFile
{
    version     2.0;
    format      ascii;
    class       volScalarField;
    location    "9e-06";
    object      Sy_electron;
}
// * * * * * * * * * * * * * * * * * * * * * * * * * * * * * * * * * * * * * //

dimensions      [1 -3 -1 0 0 0 0];

internalField   nonuniform List<scalar> 
300
(
3.11120817018901e-09
3.11187438642617e-09
3.11210603679092e-09
3.11200187746331e-09
3.11190609769847e-09
3.1117505589842e-09
3.11154328655804e-09
3.11128910917856e-09
3.11098575666576e-09
3.11063335404106e-09
3.11023163085471e-09
3.10978022031551e-09
3.10927879811452e-09
3.10872701110879e-09
3.10812449216141e-09
3.10747086076126e-09
3.10676572147402e-09
3.10600866434242e-09
3.10519926474001e-09
3.1043370832385e-09
3.10342166554484e-09
3.10245254239651e-09
3.10142922945466e-09
3.10035122721132e-09
3.0992180208588e-09
3.09802908026009e-09
3.0967838597693e-09
3.09548179814189e-09
3.09412231844714e-09
3.09270482791533e-09
3.09122871781313e-09
3.08969336339104e-09
3.08809812373079e-09
3.08644234159391e-09
3.08472534329795e-09
3.08294643860075e-09
3.08110492055106e-09
3.07920006536626e-09
3.07723113228592e-09
3.0751973634125e-09
3.07309798357126e-09
3.07093220015286e-09
3.06869920294774e-09
3.06639816398817e-09
3.06402823737764e-09
3.06158855911197e-09
3.05907824690056e-09
3.05649639998213e-09
3.05384209891208e-09
3.05111440539524e-09
3.04831236204695e-09
3.04543499223913e-09
3.04248129981793e-09
3.03945026893214e-09
3.03634086374771e-09
3.0331520282341e-09
3.02988268587242e-09
3.02653173941491e-09
3.02309807061198e-09
3.01958053992442e-09
3.01597798623865e-09
3.01228922655197e-09
3.00851305565018e-09
3.00464824575892e-09
3.0006935462589e-09
2.99664768333188e-09
2.99250935950866e-09
2.9882772533204e-09
2.98395001890118e-09
2.97952628556026e-09
2.97500465733773e-09
2.97038371254694e-09
2.9656620033131e-09
2.96083805507436e-09
2.95591036602323e-09
2.95087740661403e-09
2.94573761898289e-09
2.94048941632742e-09
2.93513118234651e-09
2.92966127047378e-09
2.9240780033741e-09
2.91837967209617e-09
2.91256453536118e-09
2.90663081881675e-09
2.90057671418221e-09
2.89440037845448e-09
2.88809993299811e-09
2.88167346258282e-09
2.8751190144077e-09
2.86843459711969e-09
2.86161817968889e-09
2.85466769024614e-09
2.8475810150909e-09
2.84035599723015e-09
2.83299043514675e-09
2.82548208142987e-09
2.81782864132514e-09
2.81002777121751e-09
2.80207707702896e-09
2.79397411257805e-09
2.7857163777757e-09
2.77730131668413e-09
2.76872631561439e-09
2.75998870159572e-09
2.75108573980112e-09
2.74201462881892e-09
2.73277249849893e-09
2.72335642121615e-09
2.71376341459542e-09
2.70399036769398e-09
2.69403397934784e-09
2.68389112599369e-09
2.67355945152845e-09
2.66413596255323e-09
2.6556451820359e-09
2.64697399354497e-09
2.6381180705282e-09
2.62907321566482e-09
2.6198351522937e-09
2.6103994915337e-09
2.60076171628178e-09
2.59091717183674e-09
2.58086105794125e-09
2.57058842105274e-09
2.56009414610402e-09
2.54937294779685e-09
2.53841936132847e-09
2.52722773259958e-09
2.51579220755004e-09
2.50410672090543e-09
2.49216498404786e-09
2.47996047208242e-09
2.46748640991548e-09
2.4547357573014e-09
2.44170119282805e-09
2.42837509676106e-09
2.41474953240658e-09
2.40081622612741e-09
2.38656654585999e-09
2.37199147792412e-09
2.35708160190077e-09
2.34182706358784e-09
2.32621754572128e-09
2.31024223633251e-09
2.29388979451161e-09
2.27714831326133e-09
2.26000527940025e-09
2.24244752938119e-09
2.22446120350086e-09
2.20603169107462e-09
2.18714358215535e-09
2.16778059236691e-09
2.14792552529179e-09
2.12756014773263e-09
2.10666521378435e-09
2.08522019306475e-09
2.06320351417739e-09
2.04059189650528e-09
2.01736121081178e-09
1.99348478467259e-09
1.96893609702509e-09
1.94368470682024e-09
1.91770427982693e-09
1.8909701935229e-09
1.8634830072629e-09
1.83540099949327e-09
1.8087298202275e-09
1.78131041920791e-09
1.75270270227997e-09
1.72284114599658e-09
1.69183380961196e-09
1.65971869537877e-09
1.62636663708018e-09
1.59150939860643e-09
1.55447780038553e-09
1.51458622267735e-09
1.4721168129893e-09
1.42727354917267e-09
1.37890391524834e-09
1.32671749535849e-09
1.26986712126948e-09
1.20799798589432e-09
1.14330543368372e-09
1.07792602592509e-09
1.01275448103845e-09
9.49521818658346e-10
8.90583876009505e-10
8.32735300238971e-10
7.87686610924669e-10
7.57698246329927e-10
7.370975776437e-10
7.37462267703785e-10
7.61493782108989e-10
8.12137391551076e-10
9.01653459766281e-10
1.05552830661951e-09
1.28635290505645e-09
1.67713610461275e-09
2.33051475403002e-09
3.49316083482587e-09
4.84635219773768e-09
6.01991395839478e-09
7.23979640819406e-09
7.31117318875388e-09
6.43613632913573e-09
5.1422657178215e-09
3.88326554645973e-09
2.92492808243393e-09
2.27720431448501e-09
1.86848229310698e-09
1.61804227320452e-09
1.46677163432958e-09
1.37392335286056e-09
1.32203143564406e-09
1.29681159454868e-09
1.28239163749685e-09
1.27876779555682e-09
1.2812935995792e-09
1.28681528749896e-09
1.29366325628695e-09
1.30046109689358e-09
1.30487523306869e-09
1.30723083639779e-09
1.30783099895946e-09
1.30639243840568e-09
1.30278935235767e-09
1.29698737090237e-09
1.28901854528043e-09
1.27896073530376e-09
1.26692462512319e-09
1.25304383430586e-09
1.23746734113017e-09
1.22035351267296e-09
1.20186538174998e-09
1.18216689816649e-09
1.16141994490324e-09
1.13978194424109e-09
1.11740355538162e-09
1.09442578127537e-09
1.07096704988282e-09
1.04714267200011e-09
1.02307501247213e-09
9.98877163072158e-10
9.74654063513388e-10
9.50500647625846e-10
9.26501589740877e-10
9.0273161109054e-10
8.79255942601398e-10
8.56130868696007e-10
8.33404313604677e-10
8.11116452027232e-10
7.89300344846784e-10
7.6785688170201e-10
7.46959249825256e-10
7.26625921135618e-10
7.06868946580675e-10
6.8769264785117e-10
6.69093255634526e-10
6.51069811127323e-10
6.33620269698569e-10
6.16737508118819e-10
6.00412460942319e-10
5.84561742872145e-10
5.69169973873202e-10
5.54280408688485e-10
5.3988059916502e-10
5.2595792971492e-10
5.12499470083177e-10
4.99491858626979e-10
4.8692149415919e-10
4.74773900394687e-10
4.63034610540791e-10
4.51674063117026e-10
4.40663678911733e-10
4.29991564502755e-10
4.19647302693608e-10
4.09621947393223e-10
3.9990715748327e-10
3.90495264366484e-10
3.81379308814735e-10
3.72553096778477e-10
3.64011322413301e-10
3.55748730786311e-10
3.47370515281745e-10
3.38959314460439e-10
3.30750369940764e-10
3.2273505596951e-10
3.1492865115452e-10
3.07348084301281e-10
2.99945167578366e-10
2.91508301984148e-10
2.83239393272323e-10
2.75192590130171e-10
2.66643955370163e-10
2.56872304432692e-10
2.47422645742826e-10
2.35101204686508e-10
2.21591399333198e-10
2.04388982320897e-10
1.79570676696282e-10
)
;

boundaryField
{
    electrode
    {
        type            zeroGradient;
    }
    ground
    {
        type            zeroGradient;
    }
    otherfaces
    {
        type            empty;
    }
}


// ************************************************************************* //
