/*--------------------------------*- C++ -*----------------------------------*\
| =========                 |                                                 |
| \\      /  F ield         | foam-extend: Open Source CFD                    |
|  \\    /   O peration     | Version:     4.0                                |
|   \\  /    A nd           | Web:         http://www.foam-extend.org         |
|    \\/     M anipulation  |                                                 |
\*---------------------------------------------------------------------------*/
FoamFile
{
    version     2.0;
    format      ascii;
    class       volScalarField;
    location    "9e-06";
    object      Te;
}
// * * * * * * * * * * * * * * * * * * * * * * * * * * * * * * * * * * * * * //

dimensions      [0 0 0 1 0 0 0];

internalField   nonuniform List<scalar> 
300
(
40059.6157200573
40059.8971958667
40060.0661730619
40060.1663389621
40060.3253282409
40060.5181131537
40060.7478287476
40061.0163309659
40061.3228733604
40061.6676040531
40062.050533627
40062.4716480287
40062.9309593829
40063.4284797194
40063.9642265416
40064.5382230836
40065.1504977945
40065.8010845369
40066.4900225862
40067.2173566519
40067.9831369121
40068.7874190437
40069.6302642572
40070.5117393392
40071.4319166913
40072.3908743784
40073.388696178
40074.4254716296
40075.5012960955
40076.6162708181
40077.7705029842
40078.9641057924
40080.1971985246
40081.4699066235
40082.7823617685
40084.1347019606
40085.5270716123
40086.9596216391
40088.4325095549
40089.9458995752
40091.4999627245
40093.0948769451
40094.7308272151
40096.408005672
40098.1266117382
40099.886852253
40101.6889416132
40103.533101918
40105.4195631194
40107.3485631795
40109.320348235
40111.3351727672
40113.3932997839
40115.4950010023
40117.6405570432
40119.8302576335
40122.0644018153
40124.3432981667
40126.6672650274
40129.0366307374
40131.4517338852
40133.9129235639
40136.4205596422
40138.9750130419
40141.5766660296
40144.2259125215
40146.9231583995
40149.6688218405
40152.4633336621
40155.30713768
40158.2006910821
40161.1444648194
40164.1389440132
40167.184628378
40170.2820326678
40173.4316871376
40176.6341380271
40179.8899480671
40183.1996970072
40186.5639821653
40189.9834190084
40193.458641755
40196.9903040057
40200.5790794065
40204.2256623398
40207.9307686513
40211.6951364075
40215.5195266959
40219.4047244583
40223.351539369
40227.3608067572
40231.4333885706
40235.5701743939
40239.7720825172
40244.0400610567
40248.3750891423
40252.7781781561
40257.2503730449
40261.7927537057
40266.4064364462
40271.0925755128
40275.852364686
40280.6870390342
40285.597876898
40290.5862017112
40295.6533829991
40300.8008385564
40306.0300425271
40311.3425304567
40316.7398723009
40322.2236485029
40327.7956081538
40333.4579360724
40339.2128344204
40345.0619945036
40351.0070677926
40357.0500436978
40363.1930905018
40369.4384828654
40375.7885964294
40382.2459095266
40388.8130079827
40395.4925911425
40402.2874785611
40409.2006172835
40416.2350897103
40423.3941221062
40430.6810938108
40438.0995472118
40445.6531985722
40453.3459497975
40461.1819012409
40469.1653656649
40477.3008834872
40485.5932394593
40494.047480944
40502.6689379808
40511.463245358
40520.4363669434
40529.5946225566
40538.944717708
40548.4937765963
40558.249378795
40568.219600138
40578.4130584154
40588.8389645206
40599.5071800257
40610.4282816529
40621.6136350626
40633.0754761437
40644.8270083669
40656.8825035218
40669.257436957
40681.9686038631
40695.0343276503
40708.4745598977
40722.3112529947
40736.5683432867
40751.2725059541
40766.4527390963
40782.14214676
40798.3764972668
40815.1989381008
40832.6598888263
40850.8309739333
40869.880579921
40889.9668512008
40911.0439405184
40933.0466143918
40956.0921473578
40980.4115419174
41006.2302923152
41033.7190622802
41063.0074918106
41094.0184694087
41126.6640957268
41161.4530094733
41198.9008214894
41238.6669993058
41280.9236367316
41326.7253199074
41376.2237129207
41429.9901117097
41490.235090307
41558.3409397354
41636.7040735542
41730.4530222633
41845.1887430532
41989.6112082158
42176.7188977495
42423.0755388373
42751.9140681163
43197.2743742703
43804.7486736063
44646.1980468407
45813.6372688912
47431.5591008996
49724.6675019228
52998.079666911
57825.869568139
64087.0273017321
72297.1305234712
85485.9042205218
103580.10299679
128627.619995238
163445.035347703
209950.935859055
267739.782180311
333188.007653034
401066.305160773
466738.676905237
527222.775743808
581186.402386587
628476.898839433
669597.549552891
705220.201052125
736097.924074141
763056.919383747
786779.418612021
807801.374667525
826535.50120024
843342.488926686
858536.530436188
872363.606590843
885034.915160776
896726.054528524
907578.811168493
917710.534244229
927218.043246716
936181.542122537
944667.437485147
952730.609484602
960416.219868153
967761.174531033
974795.314526718
981542.392969605
988020.930734144
994244.986854293
1000225.82206876
1005965.84871865
1011465.586518
1016727.93041952
1021750.42937741
1026528.71564218
1031056.04517015
1035323.65942283
1039321.04404539
1043036.11252256
1046455.36799084
1049564.04653397
1052346.24518619
1054785.03425561
1056862.50677436
1058559.73788194
1059856.52704635
1060733.12846786
1061158.21434075
1061133.08314543
1060623.84543842
1059609.9520218
1058068.52318004
1055977.24691353
1053313.39898047
1050053.81934908
1046174.73019033
1041651.9641668
1036461.12346812
1030577.41549025
1023975.5188818
1016629.87865568
1008513.96705295
999605.825333607
989875.345337215
979290.99557728
967828.993150971
955458.613952832
942147.908474742
927862.894399201
912567.689526035
896224.224935697
878791.916696064
860227.654825222
840484.776808839
819519.940708797
797282.447639426
773708.492680739
748735.274081431
722289.600880037
694280.345218333
664624.560108715
633212.898358196
599909.234985659
564576.507945885
527026.00374242
487022.331088305
444276.557776644
398391.510992456
348798.352713661
294674.900719582
234943.20452063
)
;

boundaryField
{
    electrode
    {
        type            electronTemperature;
        seec            0.05;
        Tse             1000;
        Edepend         1;
        TFN             1000;
        field_emission  0;
        field_enhancement_factor 55;
        work_function   5;
        value           uniform 40059.6157200573;
    }
    ground
    {
        type            electronTemperature;
        seec            0.05;
        Tse             1000;
        Edepend         1;
        TFN             1000;
        field_emission  0;
        field_enhancement_factor 55;
        work_function   5;
        value           uniform 201073.907505225;
    }
    otherfaces
    {
        type            empty;
    }
}


// ************************************************************************* //
