/*--------------------------------*- C++ -*----------------------------------*\
| =========                 |                                                 |
| \\      /  F ield         | foam-extend: Open Source CFD                    |
|  \\    /   O peration     | Version:     4.0                                |
|   \\  /    A nd           | Web:         http://www.foam-extend.org         |
|    \\/     M anipulation  |                                                 |
\*---------------------------------------------------------------------------*/
FoamFile
{
    version     2.0;
    format      ascii;
    class       volScalarField;
    location    "9e-06";
    object      TeMean;
}
// * * * * * * * * * * * * * * * * * * * * * * * * * * * * * * * * * * * * * //

dimensions      [0 0 0 1 0 0 0];

internalField   nonuniform List<scalar> 
300
(
36667.7252738971
36668.0168859152
36668.1579254075
36668.1854261059
36668.2434085816
36668.3099061821
36668.387914981
36668.4799587127
36668.5858485362
36668.7060948801
36668.8411027609
36668.9912464808
36669.1569027971
36669.3384257347
36669.5361603799
36669.7504419181
36669.9815945395
36670.229934882
36670.4957717118
36670.7794057976
36671.0811319001
36671.4012372933
36671.7400034757
36672.0977056746
36672.4746125697
36672.87099414
36673.2871164906
36673.7232399973
36674.1796254365
36674.6565257556
36675.1541851788
36675.6728566682
36676.2128002265
36676.7742689747
36677.3575131827
36677.9627774554
36678.59030647
36679.2403513228
36679.9131633727
36680.6089910904
36681.3280815089
36682.0706883394
36682.8370662317
36683.6274688406
36684.4421513894
36685.2813705468
36686.1453841699
36687.0344507179
36687.9488270452
36688.8887684105
36689.8545287116
36690.8463710206
36691.8645735695
36692.9094168244
36693.9811869995
36695.0801804089
36696.2066923332
36697.3610185449
36698.543464645
36699.7543417087
36700.9939653063
36702.2626620895
36703.5607527207
36704.8885592946
36706.2464305957
36707.6347317039
36709.0538309863
36710.5041016897
36711.985924777
36713.4996926204
36715.0458034761
36716.6246554945
36718.2366654107
36719.882266119
36721.5618917217
36723.2759795757
36725.0249903947
36726.8094139097
36728.6297419117
36730.4864728511
36732.3801365842
36734.3112802821
36736.2804532524
36738.2882126563
36740.3351308835
36742.421812098
36744.5488894756
36746.7170060054
36748.9268167015
36751.1790030264
36753.4742577611
36755.8132938102
36758.1968792006
36760.6257942736
36763.1008352489
36765.6228393623
36768.1926650082
36770.8112001076
36773.4793592203
36776.1980906904
36778.968388384
36781.7912606025
36784.6677497354
36787.5989605594
36790.5860338903
36793.6301472634
36796.7325186189
36799.8944134717
36803.1171548695
36806.4021150006
36809.7507202573
36813.1644520327
36816.6448425901
36820.1934968076
36823.8120767953
36827.5023070647
36831.2659840029
36835.1049965594
36839.0213303153
36843.0170282206
36847.0942189814
36851.2551361649
36855.5021108098
36859.8375941127
36864.2641687248
36868.7845268693
36873.401472536
36878.1179615102
36882.9371079281
36887.8621665157
36892.8965569915
36898.0438927125
36903.3079894073
36908.692839868
36914.2026523387
36919.8419237565
36925.6154261399
36931.528204734
36937.5856122043
36943.7933433084
36950.1574646737
36956.684440721
36963.3811686503
36970.2550137673
36977.3138857411
36984.5663152413
36992.0214978112
36999.6893686742
37007.5806341393
37015.7068928819
37024.0808118304
37032.7161863477
37041.6280920121
37050.833129948
37060.3495242213
37070.1974332402
37080.3992056037
37090.9799609918
37101.9681889437
37113.397511146
37125.3149446057
37137.7795192307
37150.8492464036
37164.5832324044
37179.061248118
37194.3825644252
37210.6207736864
37227.8359627287
37246.1411342108
37265.6828720423
37286.5846624083
37308.9575391061
37332.9277671059
37358.5440655021
37385.8152393495
37414.9687315173
37446.2837322502
37479.917342354
37516.3733314072
37556.645338135
37602.070464682
37654.9581055081
37719.1198650411
37800.0353874549
37906.1190288939
38050.0841667418
38250.131760376
38533.1295248537
38939.2503566855
39528.4611089381
40392.1891660016
41673.9118150751
43603.7341228562
46617.4347894662
51161.7894802404
57559.5008071648
66841.1529938658
79555.8470895749
96708.1934645594
118669.780383096
145509.048688717
177093.07025869
213045.705767584
252710.215906656
296065.12901261
343039.855510749
393027.736180046
444500.256963589
495301.162835787
543404.689845942
587460.054221328
626896.577446389
661723.370492647
692303.848789953
719147.293949989
742759.325456241
763648.667477234
782279.885918039
799029.651908841
814202.600176565
828039.231107456
840740.339102772
852483.510101676
863414.159300096
873653.009216657
883298.390152513
892431.281915193
901118.303407167
909414.108647552
917363.432003058
925002.649137816
932361.044131358
939461.834491709
946322.957161889
952957.792299975
959375.780428045
965582.881156256
971581.953858983
977373.466114074
982954.890157808
988320.935189712
993464.979962413
998378.910002582
1003053.20808808
1007477.0015287
1011638.15899962
1015523.26155674
1019117.89052874
1022406.83625756
1025373.93763607
1028002.6639791
1030276.02697333
1032176.29888195
1033685.28674946
1034784.04347401
1035453.46225481
1035667.93725734
1035420.18010756
1034687.25329068
1033447.29796322
1031679.75706685
1029364.0763566
1026479.56053433
1023005.26128959
1018919.93637034
1014202.30246037
1008830.51401385
1002782.22644616
996035.207581284
988566.723104138
980353.632480548
971372.062920221
961596.518453575
951001.465745016
939560.777887256
927246.033088506
914027.391835658
899873.311327704
884750.41689912
868623.226914972
851453.97456483
833202.457755053
813828.413639146
793288.540685378
771529.221777844
748493.927385313
724121.364246765
698336.52213604
671060.762376722
642208.891781881
611672.49594538
579326.365690759
545034.392203491
508612.449290654
469836.620530164
428426.391036033
383988.84920421
335978.380216141
283600.12904752
225807.247625557
)
;

boundaryField
{
    electrode
    {
        type            calculated;
        value           uniform 36667.7252738984;
    }
    ground
    {
        type            calculated;
        value           uniform 193033.934680336;
    }
    otherfaces
    {
        type            empty;
    }
}


// ************************************************************************* //
