/*--------------------------------*- C++ -*----------------------------------*\
| =========                 |                                                 |
| \\      /  F ield         | foam-extend: Open Source CFD                    |
|  \\    /   O peration     | Version:     4.0                                |
|   \\  /    A nd           | Web:         http://www.foam-extend.org         |
|    \\/     M anipulation  |                                                 |
\*---------------------------------------------------------------------------*/
FoamFile
{
    version     2.0;
    format      ascii;
    class       volVectorField;
    location    "2e-10";
    object      E;
}
// * * * * * * * * * * * * * * * * * * * * * * * * * * * * * * * * * * * * * //

dimensions      [0 0 0 1 0 0 0];

internalField   nonuniform List<vector> 
249
(
(-0 4530.91222680696 -0)
(-0 3020.60423563248 -0)
(-0 3020.6044135835 -0)
(-0 3020.60484683144 -0)
(-0 3020.60487694764 -0)
(-0 3020.6046901493 -0)
(-0 3020.60455314341 -0)
(-0 3020.60447346558 -0)
(-0 3020.60434212991 -0)
(-0 3020.60455861807 -0)
(-0 3020.60485116166 -0)
(-0 3020.60489027317 -0)
(-0 3020.60482064449 -0)
(-0 3020.60461463888 -0)
(-0 3020.60448295669 -0)
(-0 3020.60444042254 -0)
(-0 3020.60431347979 -0)
(-0 3020.60427846316 -0)
(-0 3020.60455632009 -0)
(-0 3020.60465257455 -0)
(-0 3020.6046414631 -0)
(-0 3020.60462362251 -0)
(-0 3020.60444770504 -0)
(-0 3020.60428984303 -0)
(-0 3020.60403420049 -0)
(-0 3020.60410246177 -0)
(-0 3020.60413999561 -0)
(-0 3020.60389493925 -0)
(-0 3020.60368144556 -0)
(-0 3020.60350670351 -0)
(-0 3020.60350738732 -0)
(-0 3020.60359483561 -0)
(-0 3020.60358858371 -0)
(-0 3020.60357859309 -0)
(-0 3020.60365571938 -0)
(-0 3020.60378787227 -0)
(-0 3020.60388030922 -0)
(-0 3020.60370390723 -0)
(-0 3020.60348788695 -0)
(-0 3020.60352360536 -0)
(-0 3020.60356867806 -0)
(-0 3020.60354872812 -0)
(-0 3020.60333525934 -0)
(-0 3020.60318135604 -0)
(-0 3020.60334317249 -0)
(-0 3020.60364277238 -0)
(-0 3020.60389313017 -0)
(-0 3020.6040148811 -0)
(-0 3020.60409682678 -0)
(-0 3020.6040453678 -0)
(-0 3020.60387277064 -0)
(-0 3020.60379102055 -0)
(-0 3020.60396626862 -0)
(-0 3020.60405652978 -0)
(-0 3020.60397555779 -0)
(-0 3020.60397692519 -0)
(-0 3020.60402058426 -0)
(-0 3020.60415640677 -0)
(-0 3020.60429204433 -0)
(-0 3020.60420430673 -0)
(-0 3020.60420549125 -0)
(-0 3020.60430082202 -0)
(-0 3020.60434825642 -0)
(-0 3020.60436010785 -0)
(-0 3020.60428759527 -0)
(-0 3020.60419872705 -0)
(-0 3020.60418429841 -0)
(-0 3020.6042306829 -0)
(-0 3020.60423996931 -0)
(-0 3020.60432464517 -0)
(-0 3020.60445952835 -0)
(-0 3020.60450082741 -0)
(-0 3020.60452301928 -0)
(-0 3020.60455108152 -0)
(-0 3020.6046379785 -0)
(-0 3020.60463887117 -0)
(-0 3020.60447733017 -0)
(-0 3020.60444689227 -0)
(-0 3020.60442186412 -0)
(-0 3020.60426012233 -0)
(-0 3020.60412889405 -0)
(-0 3020.60413389891 -0)
(-0 3020.60422525384 -0)
(-0 3020.60414938876 -0)
(-0 3020.60415935078 -0)
(-0 3020.60432449235 -0)
(-0 3020.60440520174 -0)
(-0 3020.60436562639 -0)
(-0 3020.60428154555 -0)
(-0 3020.6042425355 -0)
(-0 3020.60420885616 -0)
(-0 3020.60405128418 -0)
(-0 3020.60399779185 -0)
(-0 3020.60416024978 -0)
(-0 3020.6040797689 -0)
(-0 3020.60382001454 -0)
(-0 3020.60355987224 -0)
(-0 3020.60376766228 -0)
(-0 3020.60394065366 -0)
(-0 3020.60389901174 -0)
(-0 3020.60394403497 -0)
(-0 3020.60402849156 -0)
(-0 3020.60426911137 -0)
(-0 3020.60438134806 -0)
(-0 3020.60436676783 -0)
(-0 3020.60441318479 -0)
(-0 3020.60452222919 -0)
(-0 3020.60452505394 -0)
(-0 3020.60443197034 -0)
(-0 3020.60439474128 -0)
(-0 3020.60427458772 -0)
(-0 3020.60402562683 -0)
(-0 3020.60398629625 -0)
(-0 3020.60390729637 -0)
(-0 3020.60365203194 -0)
(-0 3020.60360185048 -0)
(-0 3020.60364445476 -0)
(-0 3020.60377197892 -0)
(-0 3020.60390706179 -0)
(-0 3020.6038342741 -0)
(-0 3020.60362480612 -0)
(-0 3020.60336397932 -0)
(-0 3020.60335506335 -0)
(-0 3020.60339219528 -0)
(-0 3020.6033563614 -0)
(-0 3020.60330801414 -0)
(-0 3020.60329320782 -0)
(-0 3020.60330386232 -0)
(-0 3020.60313804555 -0)
(-0 3020.60292963747 -0)
(-0 3020.60289169152 -0)
(-0 3020.60292557456 -0)
(-0 3020.60298772099 -0)
(-0 3020.60296556978 -0)
(-0 3020.60294115127 -0)
(-0 3020.6029623943 -0)
(-0 3020.60299153939 -0)
(-0 3020.60303416132 -0)
(-0 3020.60290365 -0)
(-0 3020.60275838454 -0)
(-0 3020.60275372765 -0)
(-0 3020.60282514105 -0)
(-0 3020.6028136968 -0)
(-0 3020.60281199543 -0)
(-0 3020.60291434586 -0)
(-0 3020.60293623658 -0)
(-0 3020.60289823487 -0)
(-0 3020.60285130974 -0)
(-0 3020.60280171964 -0)
(-0 3020.6027125626 -0)
(-0 3020.602608298 -0)
(-0 3020.6027461544 -0)
(-0 3020.60276643108 -0)
(-0 3020.602646262 -0)
(-0 3020.6026821107 -0)
(-0 3020.60268807626 -0)
(-0 3020.60265564458 -0)
(-0 3020.60255299256 -0)
(-0 3020.60259414852 -0)
(-0 3020.60269876481 -0)
(-0 3020.60272104079 -0)
(-0 3020.60274181956 -0)
(-0 3020.60269924092 -0)
(-0 3020.60270041276 -0)
(-0 3020.60267853687 -0)
(-0 3020.6027234942 -0)
(-0 3020.60278901022 -0)
(-0 3020.60283118002 -0)
(-0 3020.60289216115 -0)
(-0 3020.60291239696 -0)
(-0 3020.60291625113 -0)
(-0 3020.60295839406 -0)
(-0 3020.60301793597 -0)
(-0 3020.60302246333 -0)
(-0 3020.60307287944 -0)
(-0 3020.60307076592 -0)
(-0 3020.60302726201 -0)
(-0 3020.60307263473 -0)
(-0 3020.60307156326 -0)
(-0 3020.60309048198 -0)
(-0 3020.60313261932 -0)
(-0 3020.60321913159 -0)
(-0 3020.60327922812 -0)
(-0 3020.60323348138 -0)
(-0 3020.6031895667 -0)
(-0 3020.60322674627 -0)
(-0 3020.60324431131 -0)
(-0 3020.60316274655 -0)
(-0 3020.6031493547 -0)
(-0 3020.6030647488 -0)
(-0 3020.60285237577 -0)
(-0 3020.60274920939 -0)
(-0 3020.6027938679 -0)
(-0 3020.60276963785 -0)
(-0 3020.60271986964 -0)
(-0 3020.6026730974 -0)
(-0 3020.60267341462 -0)
(-0 3020.60268771664 -0)
(-0 3020.60266981018 -0)
(-0 3020.60264020042 -0)
(-0 3020.60257781198 -0)
(-0 3020.60255800755 -0)
(-0 3020.60251871165 -0)
(-0 3020.60246928995 -0)
(-0 3020.60244045285 -0)
(-0 3020.60246393699 -0)
(-0 3020.60252865815 -0)
(-0 3020.60253742723 -0)
(-0 3020.60250470659 -0)
(-0 3020.6024842513 -0)
(-0 3020.60247153092 -0)
(-0 3020.60245789126 -0)
(-0 3020.60239556865 -0)
(-0 3020.60235637918 -0)
(-0 3020.60235691078 -0)
(-0 3020.60236794916 -0)
(-0 3020.6024010075 -0)
(-0 3020.60246486157 -0)
(-0 3020.60251950753 -0)
(-0 3020.60253373042 -0)
(-0 3020.60251515043 -0)
(-0 3020.60246424891 -0)
(-0 3020.60246555275 -0)
(-0 3020.60245392066 -0)
(-0 3020.60243150089 -0)
(-0 3020.60241054145 -0)
(-0 3020.60241587911 -0)
(-0 3020.6024550084 -0)
(-0 3020.60247642535 -0)
(-0 3020.60247627735 -0)
(-0 3020.60245984134 -0)
(-0 3020.60244803472 -0)
(-0 3020.60244469394 -0)
(-0 3020.60245504232 -0)
(-0 3020.60249223966 -0)
(-0 3020.60251015536 -0)
(-0 3020.60251081421 -0)
(-0 3020.60253883323 -0)
(-0 3020.60255071678 -0)
(-0 3020.60254611153 -0)
(-0 3020.60255201704 -0)
(-0 3020.60256297284 -0)
(-0 3020.60255206653 -0)
(-0 3020.60254001665 -0)
(-0 3020.60254172202 -0)
(-0 3020.60254034917 -0)
(-0 3020.60254205544 -0)
(-0 3020.6025550925 -0)
(-0 4530.97995267275 -0)
)
;

boundaryField
{
    dielectric_2
    {
        type            calculated;
        value           nonuniform 0();
    }
    dielectric_1
    {
        type            calculated;
        value           nonuniform 0();
    }
    otherfaces
    {
        type            empty;
    }
    procBoundary0to1
    {
        type            processor;
        value           uniform (-0 4530.91861002363 -0);
    }
    procBoundary0to2
    {
        type            processor;
        value           uniform (-0 4531.05384680065 -0);
    }
}


// ************************************************************************* //
