/*--------------------------------*- C++ -*----------------------------------*\
| =========                 |                                                 |
| \\      /  F ield         | foam-extend: Open Source CFD                    |
|  \\    /   O peration     | Version:     4.0                                |
|   \\  /    A nd           | Web:         http://www.foam-extend.org         |
|    \\/     M anipulation  |                                                 |
\*---------------------------------------------------------------------------*/
FoamFile
{
    version     2.0;
    format      ascii;
    class       regIOobject;
    location    "2.3e-06/uniform";
    object      profilingInfo;
}
// * * * * * * * * * * * * * * * * * * * * * * * * * * * * * * * * * * * * * //

profilingInfo
(

    {
        id              20;
        parentId        16;
        description     "Foam::Time::writeObject - outputTime";
        calls           23;
        totalTime       0.105382;
        childTime       0;
        onStack         1;
    }

    {
        id              16;
        parentId        1;
        description     "Foam::Time::writeObject";
        calls           23000;
        totalTime       0.138899000000024;
        childTime       0.105382;
        onStack         1;
    }

    {
        id              1;
        description     "application::main";
        calls           1;
        totalTime       475.926808;
        childTime       7.37093300000295;
        onStack         1;
    }

    {
        id              18;
        parentId        17;
        description     "FO::dumpObjects::execute";
        calls           22999;
        totalTime       0.0965200000000261;
        childTime       0;
        onStack         0;
    }

    {
        id              4;
        parentId        3;
        description     "FO::dumpObjects::start";
        calls           1;
        totalTime       2.5e-05;
        childTime       0;
        onStack         0;
    }

    {
        id              19;
        parentId        17;
        description     "FO::fieldAverage1::execute";
        calls           22999;
        totalTime       1.27651300000002;
        childTime       0;
        onStack         0;
    }

    {
        id              5;
        parentId        3;
        description     "FO::fieldAverage1::start";
        calls           1;
        totalTime       0.00045;
        childTime       0;
        onStack         0;
    }

    {
        id              3;
        parentId        2;
        description     "functionObjectList::read";
        calls           1;
        totalTime       0.007644;
        childTime       0.000475;
        onStack         0;
    }

    {
        id              17;
        parentId        1;
        description     "functionObjects_.execute()";
        calls           22999;
        totalTime       1.41794700000015;
        childTime       1.37303299999979;
        onStack         0;
    }

    {
        id              2;
        parentId        1;
        description     "functionObjects_.start()";
        calls           1;
        totalTime       0.007656;
        childTime       0.007644;
        onStack         0;
    }

    {
        id              12;
        parentId        1;
        description     "fvMatrix::solve_N_Arm";
        calls           23133;
        totalTime       1.05544899999991;
        childTime       0.540912999999988;
        onStack         0;
    }

    {
        id              10;
        parentId        1;
        description     "fvMatrix::solve_N_Arp1";
        calls           23828;
        totalTime       1.14149700000006;
        childTime       0.566188000000092;
        onStack         0;
    }

    {
        id              8;
        parentId        1;
        description     "fvMatrix::solve_N_electron";
        calls           23721;
        totalTime       1.18128699999992;
        childTime       0.586010000000194;
        onStack         0;
    }

    {
        id              6;
        parentId        1;
        description     "fvMatrix::solve_Phi";
        calls           23000;
        totalTime       1.18920500000038;
        childTime       0.593001000000179;
        onStack         0;
    }

    {
        id              14;
        parentId        1;
        description     "fvMatrix::solve_Te";
        calls           24002;
        totalTime       1.23899300000042;
        childTime       0.593640000000197;
        onStack         0;
    }

    {
        id              13;
        parentId        12;
        description     "lduMatrix::solver_N_Arm";
        calls           23133;
        totalTime       0.540912999999988;
        childTime       0;
        onStack         0;
    }

    {
        id              11;
        parentId        10;
        description     "lduMatrix::solver_N_Arp1";
        calls           23828;
        totalTime       0.566188000000092;
        childTime       0;
        onStack         0;
    }

    {
        id              9;
        parentId        8;
        description     "lduMatrix::solver_N_electron";
        calls           23721;
        totalTime       0.586010000000194;
        childTime       0;
        onStack         0;
    }

    {
        id              7;
        parentId        6;
        description     "lduMatrix::solver_Phi";
        calls           23000;
        totalTime       0.593001000000179;
        childTime       0;
        onStack         0;
    }

    {
        id              15;
        parentId        14;
        description     "lduMatrix::solver_Te";
        calls           24002;
        totalTime       0.593640000000197;
        childTime       0;
        onStack         0;
    }
);


// ************************************************************************* //
