/*--------------------------------*- C++ -*----------------------------------*\
| =========                 |                                                 |
| \\      /  F ield         | foam-extend: Open Source CFD                    |
|  \\    /   O peration     | Version:     4.0                                |
|   \\  /    A nd           | Web:         http://www.foam-extend.org         |
|    \\/     M anipulation  |                                                 |
\*---------------------------------------------------------------------------*/
FoamFile
{
    version     2.0;
    format      ascii;
    class       volScalarField;
    location    "9.2e-06";
    object      Ar;
}
// * * * * * * * * * * * * * * * * * * * * * * * * * * * * * * * * * * * * * //

dimensions      [0 0 0 1 0 0 0];

internalField   nonuniform List<scalar> 
300
(
3.21880170356916e+22
3.21880169931616e+22
3.21880170233223e+22
3.2188017036172e+22
3.21880170576113e+22
3.21880170872155e+22
3.21880171232088e+22
3.21880171662777e+22
3.21880172162974e+22
3.21880172732325e+22
3.21880173370887e+22
3.21880174078539e+22
3.21880174855224e+22
3.21880175700908e+22
3.21880176615563e+22
3.2188017759918e+22
3.21880178651786e+22
3.21880179773376e+22
3.2188018096395e+22
3.21880182223532e+22
3.21880183552149e+22
3.21880184949837e+22
3.21880186416634e+22
3.21880187952588e+22
3.21880189557907e+22
3.21880191232522e+22
3.21880192976505e+22
3.21880194789948e+22
3.21880196672832e+22
3.21880198625227e+22
3.21880200647392e+22
3.21880202739337e+22
3.21880204901009e+22
3.21880207132486e+22
3.21880209433848e+22
3.21880211805184e+22
3.2188021424663e+22
3.21880216758263e+22
3.21880219340155e+22
3.21880221992418e+22
3.21880224715163e+22
3.2188022750849e+22
3.21880230372513e+22
3.2188023330735e+22
3.21880236313123e+22
3.21880239389961e+22
3.21880242538015e+22
3.21880245757434e+22
3.21880249048461e+22
3.21880252411278e+22
3.2188025584618e+22
3.21880259353213e+22
3.21880262932603e+22
3.21880266584346e+22
3.21880270308537e+22
3.21880274105188e+22
3.21880277974445e+22
3.21880281916458e+22
3.21880285931381e+22
3.21880290019392e+22
3.21880294180629e+22
3.21880298415254e+22
3.21880302723486e+22
3.21880307105687e+22
3.21880311562004e+22
3.21880316092366e+22
3.21880320696939e+22
3.21880325375891e+22
3.21880330129393e+22
3.21880334957618e+22
3.21880339860762e+22
3.21880344839084e+22
3.21880349892785e+22
3.21880355021978e+22
3.21880360226985e+22
3.21880365507981e+22
3.21880370865089e+22
3.21880376298535e+22
3.21880381808305e+22
3.21880387394886e+22
3.21880393058117e+22
3.21880398798159e+22
3.21880404615224e+22
3.21880410509469e+22
3.2188041648122e+22
3.2188042253058e+22
3.21880428657607e+22
3.21880434862473e+22
3.2188044114547e+22
3.21880447506695e+22
3.21880453946377e+22
3.21880460465134e+22
3.21880467062583e+22
3.21880473738873e+22
3.21880480494165e+22
3.21880487328622e+22
3.21880494242405e+22
3.21880501235676e+22
3.218805083087e+22
3.21880515461629e+22
3.21880522694554e+22
3.2188053000761e+22
3.2188053740126e+22
3.21880544875357e+22
3.21880552430134e+22
3.21880560065824e+22
3.21880567782415e+22
3.21880575580234e+22
3.21880583459313e+22
3.21880591419729e+22
3.21880599461624e+22
3.21880607585123e+22
3.21880615790443e+22
3.21880624077862e+22
3.21880632447491e+22
3.21880640899006e+22
3.2188064943318e+22
3.21880658050139e+22
3.21880666750016e+22
3.21880675533089e+22
3.21880684399822e+22
3.21880693350284e+22
3.21880702384959e+22
3.21880711503936e+22
3.21880720707291e+22
3.21880729995231e+22
3.21880739368221e+22
3.21880748826268e+22
3.2188075836966e+22
3.21880767998593e+22
3.21880777713399e+22
3.21880787514289e+22
3.21880797401485e+22
3.2188080737542e+22
3.21880817436623e+22
3.21880827585077e+22
3.21880837820909e+22
3.21880848144535e+22
3.21880858556307e+22
3.21880869056301e+22
3.21880879644839e+22
3.21880890322249e+22
3.21880901089012e+22
3.21880911945609e+22
3.21880922892438e+22
3.21880933929456e+22
3.21880945056954e+22
3.21880956275236e+22
3.21880967584735e+22
3.21880978986053e+22
3.21880990479172e+22
3.21881002064403e+22
3.21881013742441e+22
3.21881025513259e+22
3.21881037377104e+22
3.21881049334188e+22
3.21881061385117e+22
3.21881073528997e+22
3.21881085766746e+22
3.21881098096293e+22
3.21881110520619e+22
3.21881123033314e+22
3.21881135642506e+22
3.21881148333086e+22
3.21881161124427e+22
3.21881173996227e+22
3.21881186846277e+22
3.21881199750831e+22
3.21881212803069e+22
3.21881225938745e+22
3.21881239156281e+22
3.21881252370057e+22
3.2188126562693e+22
3.21881278846307e+22
3.21881292069052e+22
3.21881305456278e+22
3.2188131890551e+22
3.21881331966659e+22
3.21881345028685e+22
3.21881358337785e+22
3.21881370986892e+22
3.21881383406452e+22
3.21881395943514e+22
3.21881407532966e+22
3.21881418842471e+22
3.21881429767868e+22
3.21881439687281e+22
3.21881449027047e+22
3.21881457849312e+22
3.21881465436674e+22
3.21881472316276e+22
3.21881478652864e+22
3.21881483998134e+22
3.21881488289169e+22
3.21881491895707e+22
3.21881494524706e+22
3.21881496399522e+22
3.21881497751155e+22
3.21881498676996e+22
3.21881499409126e+22
3.2188149959753e+22
3.21881499304907e+22
3.21881498785841e+22
3.21881498557515e+22
3.21881498917119e+22
3.21881499744928e+22
3.21881500765612e+22
3.21881501820788e+22
3.21881502744651e+22
3.21881503534178e+22
3.21881504191119e+22
3.21881504741999e+22
3.21881505201404e+22
3.2188150571152e+22
3.21881506277518e+22
3.21881506799953e+22
3.2188150726376e+22
3.21881507690727e+22
3.2188150807427e+22
3.2188150843319e+22
3.21881508757694e+22
3.21881509071176e+22
3.21881509360537e+22
3.21881509639596e+22
3.21881509894601e+22
3.21881510277668e+22
3.21881510661242e+22
3.21881511041413e+22
3.21881511395666e+22
3.21881511748816e+22
3.21881512077359e+22
3.21881512406671e+22
3.21881512711972e+22
3.21881513019337e+22
3.21881513303155e+22
3.21881513589887e+22
3.21881513853232e+22
3.21881514120275e+22
3.21881514363845e+22
3.21881514611839e+22
3.21881514836176e+22
3.21881515100018e+22
3.21881515413618e+22
3.21881515731521e+22
3.21881516026338e+22
3.21881516326041e+22
3.2188151660275e+22
3.21881516885151e+22
3.21881517144558e+22
3.21881517410415e+22
3.21881517653356e+22
3.21881517903419e+22
3.21881518130839e+22
3.21881518366161e+22
3.21881518578635e+22
3.21881518799547e+22
3.21881518997487e+22
3.21881519204591e+22
3.21881519388712e+22
3.21881519582597e+22
3.21881519753503e+22
3.21881519934943e+22
3.21881520093584e+22
3.21881520263522e+22
3.21881520410372e+22
3.21881520643399e+22
3.21881520839454e+22
3.2188152106542e+22
3.21881521249983e+22
3.21881521465731e+22
3.21881521639451e+22
3.21881521845558e+22
3.2188152200906e+22
3.21881522206211e+22
3.21881522360101e+22
3.21881522548901e+22
3.21881522693751e+22
3.21881522874616e+22
3.21881523010775e+22
3.21881523184095e+22
3.21881523312016e+22
3.21881523478599e+22
3.21881523600828e+22
3.21881523764906e+22
3.21881523882634e+22
3.21881524041136e+22
3.2188152415199e+22
3.21881524304566e+22
3.21881524408641e+22
3.21881524559623e+22
3.21881524665325e+22
3.21881524815007e+22
3.21881524914107e+22
3.21881525065268e+22
3.21881525168706e+22
3.21881525320182e+22
3.21881525430153e+22
3.21881525596189e+22
3.2188152574495e+22
3.21881526024634e+22
)
;

boundaryField
{
    electrode
    {
        type            zeroGradient;
    }
    ground
    {
        type            zeroGradient;
    }
    otherfaces
    {
        type            empty;
    }
}


// ************************************************************************* //
