/*--------------------------------*- C++ -*----------------------------------*\
| =========                 |                                                 |
| \\      /  F ield         | foam-extend: Open Source CFD                    |
|  \\    /   O peration     | Version:     4.0                                |
|   \\  /    A nd           | Web:         http://www.foam-extend.org         |
|    \\/     M anipulation  |                                                 |
\*---------------------------------------------------------------------------*/
FoamFile
{
    version     2.0;
    format      ascii;
    class       volVectorField;
    location    "9.2e-06";
    object      E;
}
// * * * * * * * * * * * * * * * * * * * * * * * * * * * * * * * * * * * * * //

dimensions      [0 0 0 1 0 0 0];

internalField   nonuniform List<vector> 
300
(
(5.45861431472395 -0 -0)
(11.2215430947415 -0 -0)
(19.7283080705102 -0 -0)
(27.6269886925754 -0 -0)
(35.4820699779982 -0 -0)
(43.4053923012439 -0 -0)
(51.3220570458334 -0 -0)
(59.2534419488465 -0 -0)
(67.2004908761078 -0 -0)
(75.1634706100409 -0 -0)
(83.1445722895824 -0 -0)
(91.1453524654613 -0 -0)
(99.1674486028337 -0 -0)
(107.212535233046 -0 -0)
(115.282281695773 -0 -0)
(123.378372152151 -0 -0)
(131.502502986877 -0 -0)
(139.656383216226 -0 -0)
(147.841735716194 -0 -0)
(156.060297909485 -0 -0)
(164.313822627328 -0 -0)
(172.604078925444 -0 -0)
(180.932853041656 -0 -0)
(189.301949220235 -0 -0)
(197.713190694396 -0 -0)
(206.168420560644 -0 -0)
(214.669502815459 -0 -0)
(223.218323304466 -0 -0)
(231.816790792478 -0 -0)
(240.46683799184 -0 -0)
(249.170422653181 -0 -0)
(257.929528722726 -0 -0)
(266.746167446067 -0 -0)
(275.622378574676 -0 -0)
(284.56023163642 -0 -0)
(293.561827184627 -0 -0)
(302.629298108733 -0 -0)
(311.764810992313 -0 -0)
(320.970567557788 -0 -0)
(330.248806110245 -0 -0)
(339.601803028764 -0 -0)
(349.031874352682 -0 -0)
(358.541377433498 -0 -0)
(368.132712588659 -0 -0)
(377.808324862652 -0 -0)
(387.570705895387 -0 -0)
(397.422395705036 -0 -0)
(407.365984811432 -0 -0)
(417.404116145923 -0 -0)
(427.53948724236 -0 -0)
(437.774852460372 -0 -0)
(448.113025269857 -0 -0)
(458.556880700198 -0 -0)
(469.109357809131 -0 -0)
(479.773462321078 -0 -0)
(490.552269347037 -0 -0)
(501.448926215668 -0 -0)
(512.466655527895 -0 -0)
(523.608758155777 -0 -0)
(534.878616569086 -0 -0)
(546.279698214522 -0 -0)
(557.815559039275 -0 -0)
(569.489847246426 -0 -0)
(581.306307131991 -0 -0)
(593.268783237335 -0 -0)
(605.38122450832 -0 -0)
(617.647688860927 -0 -0)
(630.072347829064 -0 -0)
(642.659491460811 -0 -0)
(655.413533533272 -0 -0)
(668.33901688338 -0 -0)
(681.440619165827 -0 -0)
(694.72315881315 -0 -0)
(708.191601274245 -0 -0)
(721.851065654884 -0 -0)
(735.706831651929 -0 -0)
(749.764346874432 -0 -0)
(764.029234524914 -0 -0)
(778.507301511875 -0 -0)
(793.204547011431 -0 -0)
(808.127171447826 -0 -0)
(823.281586041863 -0 -0)
(838.674422825981 -0 -0)
(854.312545235741 -0 -0)
(870.203059336135 -0 -0)
(886.353325618522 -0 -0)
(902.770971574029 -0 -0)
(919.463904926288 -0 -0)
(936.440327643595 -0 -0)
(953.708750831099 -0 -0)
(971.27801050738 -0 -0)
(989.157284301909 -0 -0)
(1007.3561091951 -0 -0)
(1025.88440038391 -0 -0)
(1044.75247133508 -0 -0)
(1063.97105500571 -0 -0)
(1083.55132660566 -0 -0)
(1103.50492764343 -0 -0)
(1123.84399169341 -0 -0)
(1144.58117177901 -0 -0)
(1165.72966960248 -0 -0)
(1187.30326680318 -0 -0)
(1209.31635844851 -0 -0)
(1231.78398867943 -0 -0)
(1254.72188807636 -0 -0)
(1278.1465144608 -0 -0)
(1302.07510118917 -0 -0)
(1326.52570634674 -0 -0)
(1351.51724112589 -0 -0)
(1377.06949989269 -0 -0)
(1403.20333055096 -0 -0)
(1429.94088121618 -0 -0)
(1457.30512204731 -0 -0)
(1485.31869186161 -0 -0)
(1514.00646649662 -0 -0)
(1543.40266455941 -0 -0)
(1573.54576218616 -0 -0)
(1604.46952935392 -0 -0)
(1636.20607883769 -0 -0)
(1668.78916383079 -0 -0)
(1702.25452798147 -0 -0)
(1736.64000771116 -0 -0)
(1771.98570089645 -0 -0)
(1808.33413953468 -0 -0)
(1845.73047733967 -0 -0)
(1884.22269501602 -0 -0)
(1923.86182511927 -0 -0)
(1964.70219883078 -0 -0)
(2006.80171717364 -0 -0)
(2050.22214956075 -0 -0)
(2095.02946281567 -0 -0)
(2141.29418450328 -0 -0)
(2189.09180465269 -0 -0)
(2238.50322084395 -0 -0)
(2289.61523193486 -0 -0)
(2342.52108709411 -0 -0)
(2397.32109704828 -0 -0)
(2454.12331620231 -0 -0)
(2513.04430516935 -0 -0)
(2574.20998501044 -0 -0)
(2637.75659605109 -0 -0)
(2703.83177669478 -0 -0)
(2772.5957794733 -0 -0)
(2844.22284541512 -0 -0)
(2918.90276056277 -0 -0)
(2996.84262366285 -0 -0)
(3078.26885712795 -0 -0)
(3163.42950504063 -0 -0)
(3252.59685423569 -0 -0)
(3346.07046165756 -0 -0)
(3444.18059151124 -0 -0)
(3547.29227998932 -0 -0)
(3655.80983170167 -0 -0)
(3770.18246260945 -0 -0)
(3890.91001917677 -0 -0)
(4018.55131315395 -0 -0)
(4153.73075250032 -0 -0)
(4297.15192096558 -0 -0)
(4449.60305847665 -0 -0)
(4611.98251385848 -0 -0)
(4785.29556869376 -0 -0)
(4970.70812427497 -0 -0)
(5169.5182481262 -0 -0)
(5383.27646608825 -0 -0)
(5613.69558610753 -0 -0)
(5863.17395263929 -0 -0)
(6136.67406447486 -0 -0)
(6439.94230723692 -0 -0)
(6776.27751950945 -0 -0)
(7148.64259793308 -0 -0)
(7561.90948917658 -0 -0)
(8023.52889303316 -0 -0)
(8542.68488694986 -0 -0)
(9130.03903091579 -0 -0)
(9796.92297659826 -0 -0)
(10550.6734111505 -0 -0)
(11397.9723704525 -0 -0)
(12356.0672314337 -0 -0)
(13441.8574865655 -0 -0)
(14658.088833716 -0 -0)
(16017.9965414512 -0 -0)
(17540.7390916783 -0 -0)
(19224.9197567455 -0 -0)
(21078.141440608 -0 -0)
(23110.1067049458 -0 -0)
(25310.604787848 -0 -0)
(27677.9485706034 -0 -0)
(30207.8073550141 -0 -0)
(32876.5726887651 -0 -0)
(35671.4571882925 -0 -0)
(38580.9258935848 -0 -0)
(41572.8920217279 -0 -0)
(44623.3279772435 -0 -0)
(47723.6207947329 -0 -0)
(50853.2140514241 -0 -0)
(53985.7786555556 -0 -0)
(57108.3302565576 -0 -0)
(60219.9499964781 -0 -0)
(63319.7519334894 -0 -0)
(66405.9093015847 -0 -0)
(69473.7567674411 -0 -0)
(72527.7770108171 -0 -0)
(75593.5928467649 -0 -0)
(78683.3184794864 -0 -0)
(81789.6730823955 -0 -0)
(84899.9639323981 -0 -0)
(88000.036179979 -0 -0)
(91078.4375246631 -0 -0)
(94128.6817138119 -0 -0)
(97149.11517845 -0 -0)
(100140.331528237 -0 -0)
(103104.184607277 -0 -0)
(106043.157914184 -0 -0)
(108956.129889101 -0 -0)
(111838.316795867 -0 -0)
(114688.836625312 -0 -0)
(117510.450232719 -0 -0)
(120305.745652927 -0 -0)
(123077.140391079 -0 -0)
(125826.876159802 -0 -0)
(128557.049821204 -0 -0)
(131269.597899611 -0 -0)
(133966.317603332 -0 -0)
(136648.874658761 -0 -0)
(139318.83102792 -0 -0)
(141973.506531697 -0 -0)
(144609.41927454 -0 -0)
(147227.026594398 -0 -0)
(149827.555204849 -0 -0)
(152412.125792932 -0 -0)
(154981.786295855 -0 -0)
(157537.49619782 -0 -0)
(160080.158719247 -0 -0)
(162610.6037057 -0 -0)
(165129.61743844 -0 -0)
(167637.926186254 -0 -0)
(170136.223280445 -0 -0)
(172625.151395133 -0 -0)
(175105.329548077 -0 -0)
(177577.333385131 -0 -0)
(180041.72160724 -0 -0)
(182497.980069701 -0 -0)
(184943.362664368 -0 -0)
(187376.170184711 -0 -0)
(189796.889650037 -0 -0)
(192205.972644249 -0 -0)
(194603.857778659 -0 -0)
(196990.953040964 -0 -0)
(199367.656662801 -0 -0)
(201734.340228522 -0 -0)
(204091.368916453 -0 -0)
(206439.0835019 -0 -0)
(208777.821311428 -0 -0)
(211107.896870781 -0 -0)
(213429.624264995 -0 -0)
(215743.297409812 -0 -0)
(218049.210860461 -0 -0)
(220347.640891314 -0 -0)
(222638.866070476 -0 -0)
(224923.147135226 -0 -0)
(227200.748040611 -0 -0)
(229471.916096478 -0 -0)
(231736.904049425 -0 -0)
(233995.9448875 -0 -0)
(236249.279564237 -0 -0)
(238494.889940469 -0 -0)
(240731.182605244 -0 -0)
(242958.266943892 -0 -0)
(245176.389302942 -0 -0)
(247385.761120076 -0 -0)
(249586.61456874 -0 -0)
(251779.148132432 -0 -0)
(253963.582303103 -0 -0)
(256140.103605674 -0 -0)
(258308.921619926 -0 -0)
(260470.2128288 -0 -0)
(262624.176175977 -0 -0)
(264770.978569406 -0 -0)
(266910.809788511 -0 -0)
(269043.827049836 -0 -0)
(271170.211341275 -0 -0)
(273290.111520405 -0 -0)
(275403.700692635 -0 -0)
(277511.119632931 -0 -0)
(279612.533305261 -0 -0)
(281708.072474893 -0 -0)
(283797.894356618 -0 -0)
(285882.123875425 -0 -0)
(287960.912942309 -0 -0)
(290034.380991693 -0 -0)
(292102.674892208 -0 -0)
(294165.903105631 -0 -0)
(296224.201241353 -0 -0)
(298277.673075845 -0 -0)
(300326.446277347 -0 -0)
(302370.609425926 -0 -0)
(304410.279701773 -0 -0)
(306445.473071232 -0 -0)
(308475.507458206 -0 -0)
(310497.781395374 -0 -0)
)
;

boundaryField
{
    electrode
    {
        type            calculated;
        value           uniform (4.19070745465434 -0 -0);
    }
    ground
    {
        type            calculated;
        value           uniform (311506.116271918 -0 -0);
    }
    otherfaces
    {
        type            empty;
    }
}


// ************************************************************************* //
