/*--------------------------------*- C++ -*----------------------------------*\
| =========                 |                                                 |
| \\      /  F ield         | foam-extend: Open Source CFD                    |
|  \\    /   O peration     | Version:     4.0                                |
|   \\  /    A nd           | Web:         http://www.foam-extend.org         |
|    \\/     M anipulation  |                                                 |
\*---------------------------------------------------------------------------*/
FoamFile
{
    version     2.0;
    format      ascii;
    class       volVectorField;
    location    "9.2e-06";
    object      J_Arp1;
}
// * * * * * * * * * * * * * * * * * * * * * * * * * * * * * * * * * * * * * //

dimensions      [1 -1 -1 0 0 0 0];

internalField   nonuniform List<vector> 
300
(
(2.15099003002794e+16 -0 -0)
(7.63603528782419e+16 -0 -0)
(1.35787837878896e+17 -0 -0)
(1.88918065901949e+17 -0 -0)
(2.42725882184189e+17 -0 -0)
(2.9686033001476e+17 -0 -0)
(3.5085300306936e+17 -0 -0)
(4.04901966780208e+17 -0 -0)
(4.58977627951586e+17 -0 -0)
(5.13078524028535e+17 -0 -0)
(5.67211870148838e+17 -0 -0)
(6.21379445227698e+17 -0 -0)
(6.75584245750306e+17 -0 -0)
(7.29829249596024e+17 -0 -0)
(7.84117308713423e+17 -0 -0)
(8.38451287018354e+17 -0 -0)
(8.92834017551212e+17 -0 -0)
(9.47268304274785e+17 -0 -0)
(1.00175692283666e+18 -0 -0)
(1.0563026179357e+18 -0 -0)
(1.11090810209575e+18 -0 -0)
(1.16557605384528e+18 -0 -0)
(1.22030911677809e+18 -0 -0)
(1.27510989752581e+18 -0 -0)
(1.32998096464316e+18 -0 -0)
(1.38492484666043e+18 -0 -0)
(1.43994403098382e+18 -0 -0)
(1.49504096205e+18 -0 -0)
(1.55021804014026e+18 -0 -0)
(1.60547761967441e+18 -0 -0)
(1.66082200769767e+18 -0 -0)
(1.71625346264977e+18 -0 -0)
(1.77177419251036e+18 -0 -0)
(1.82738635335774e+18 -0 -0)
(1.88309204816521e+18 -0 -0)
(1.93889332513399e+18 -0 -0)
(1.99479217614932e+18 -0 -0)
(2.05079053531653e+18 -0 -0)
(2.1068902776899e+18 -0 -0)
(2.16309321768357e+18 -0 -0)
(2.2194011075148e+18 -0 -0)
(2.27581563583758e+18 -0 -0)
(2.33233842645005e+18 -0 -0)
(2.38897103667193e+18 -0 -0)
(2.44571495594297e+18 -0 -0)
(2.50257160469944e+18 -0 -0)
(2.55954233230812e+18 -0 -0)
(2.61662841662916e+18 -0 -0)
(2.67383106175117e+18 -0 -0)
(2.73115139705474e+18 -0 -0)
(2.78859047584192e+18 -0 -0)
(2.84614927383299e+18 -0 -0)
(2.9038286881321e+18 -0 -0)
(2.96162953562677e+18 -0 -0)
(3.01955255180754e+18 -0 -0)
(3.07759838944498e+18 -0 -0)
(3.13576761719015e+18 -0 -0)
(3.19406071877484e+18 -0 -0)
(3.25247809114171e+18 -0 -0)
(3.31102004366921e+18 -0 -0)
(3.36968679684533e+18 -0 -0)
(3.42847848094881e+18 -0 -0)
(3.4873951350752e+18 -0 -0)
(3.54643670565406e+18 -0 -0)
(3.60560304582734e+18 -0 -0)
(3.66489391363996e+18 -0 -0)
(3.72430897149419e+18 -0 -0)
(3.78384778485975e+18 -0 -0)
(3.84350982104112e+18 -0 -0)
(3.90329444843983e+18 -0 -0)
(3.9632009350594e+18 -0 -0)
(4.02322844785551e+18 -0 -0)
(4.08337605162808e+18 -0 -0)
(4.14364270782754e+18 -0 -0)
(4.20402727373578e+18 -0 -0)
(4.26452850142944e+18 -0 -0)
(4.32514503689935e+18 -0 -0)
(4.38587541897438e+18 -0 -0)
(4.44671807838024e+18 -0 -0)
(4.50767133692151e+18 -0 -0)
(4.5687334063558e+18 -0 -0)
(4.62990238766642e+18 -0 -0)
(4.69117627007153e+18 -0 -0)
(4.75255293004707e+18 -0 -0)
(4.81403013054166e+18 -0 -0)
(4.8756055198786e+18 -0 -0)
(4.93727663109117e+18 -0 -0)
(4.99904088087999e+18 -0 -0)
(5.06089556861661e+18 -0 -0)
(5.12283787550731e+18 -0 -0)
(5.18486486371659e+18 -0 -0)
(5.2469734753225e+18 -0 -0)
(5.30916053131003e+18 -0 -0)
(5.37142273063487e+18 -0 -0)
(5.43375664939157e+18 -0 -0)
(5.49615873934876e+18 -0 -0)
(5.55862532737152e+18 -0 -0)
(5.62115261393157e+18 -0 -0)
(5.68373667222318e+18 -0 -0)
(5.74637344681129e+18 -0 -0)
(5.80905875230178e+18 -0 -0)
(5.87178827215179e+18 -0 -0)
(5.93455755802862e+18 -0 -0)
(5.99736202843547e+18 -0 -0)
(6.06019696218318e+18 -0 -0)
(6.12305749515079e+18 -0 -0)
(6.18593864491062e+18 -0 -0)
(6.24883532608994e+18 -0 -0)
(6.31174222516545e+18 -0 -0)
(6.3746536286941e+18 -0 -0)
(6.43756403561938e+18 -0 -0)
(6.50046935468684e+18 -0 -0)
(6.5633639843167e+18 -0 -0)
(6.62623317928014e+18 -0 -0)
(6.68906604353665e+18 -0 -0)
(6.75189862179634e+18 -0 -0)
(6.81476310845944e+18 -0 -0)
(6.87766207820032e+18 -0 -0)
(6.94058822260577e+18 -0 -0)
(7.00353337155847e+18 -0 -0)
(7.06648902878505e+18 -0 -0)
(7.12944647156016e+18 -0 -0)
(7.19239681959438e+18 -0 -0)
(7.25533104127158e+18 -0 -0)
(7.31823995054372e+18 -0 -0)
(7.3811142012375e+18 -0 -0)
(7.4439442803066e+18 -0 -0)
(7.50672050076537e+18 -0 -0)
(7.5694329941607e+18 -0 -0)
(7.63207170288144e+18 -0 -0)
(7.69462637182665e+18 -0 -0)
(7.75708653982209e+18 -0 -0)
(7.81944153037898e+18 -0 -0)
(7.8816804423056e+18 -0 -0)
(7.94379213920764e+18 -0 -0)
(8.00576523911315e+18 -0 -0)
(8.06758810293525e+18 -0 -0)
(8.12924882254894e+18 -0 -0)
(8.19073520810798e+18 -0 -0)
(8.25203477475667e+18 -0 -0)
(8.31313472825649e+18 -0 -0)
(8.37402195032889e+18 -0 -0)
(8.4346829825155e+18 -0 -0)
(8.49510400979544e+18 -0 -0)
(8.55527084171846e+18 -0 -0)
(8.61516889797381e+18 -0 -0)
(8.67478317552498e+18 -0 -0)
(8.73409826505494e+18 -0 -0)
(8.79309823268315e+18 -0 -0)
(8.85176682986124e+18 -0 -0)
(8.91008694071338e+18 -0 -0)
(8.96804170689966e+18 -0 -0)
(9.02561208154638e+18 -0 -0)
(9.08278177254116e+18 -0 -0)
(9.13952725450577e+18 -0 -0)
(9.19583722234046e+18 -0 -0)
(9.25167537627331e+18 -0 -0)
(9.30704994892685e+18 -0 -0)
(9.36188578538989e+18 -0 -0)
(9.41625573083252e+18 -0 -0)
(9.46997042532934e+18 -0 -0)
(9.52328608745254e+18 -0 -0)
(9.57572281665256e+18 -0 -0)
(9.62797011993693e+18 -0 -0)
(9.67893922586654e+18 -0 -0)
(9.72960841846766e+18 -0 -0)
(9.78041212056165e+18 -0 -0)
(9.82941807187672e+18 -0 -0)
(9.87797003452362e+18 -0 -0)
(9.92639541262273e+18 -0 -0)
(9.97306623144208e+18 -0 -0)
(1.00208620269013e+19 -0 -0)
(1.00653591272381e+19 -0 -0)
(1.01123686604829e+19 -0 -0)
(1.01554913932766e+19 -0 -0)
(1.01988958911264e+19 -0 -0)
(1.02392845648024e+19 -0 -0)
(1.02861469751276e+19 -0 -0)
(1.03206941508252e+19 -0 -0)
(1.03593183442341e+19 -0 -0)
(1.04027394295648e+19 -0 -0)
(1.04333960780329e+19 -0 -0)
(1.0466347803593e+19 -0 -0)
(1.05070037999916e+19 -0 -0)
(1.05279532152296e+19 -0 -0)
(1.05632761749308e+19 -0 -0)
(1.05888660012137e+19 -0 -0)
(1.06154623329946e+19 -0 -0)
(1.06352203458485e+19 -0 -0)
(1.06675269845806e+19 -0 -0)
(1.06810886072228e+19 -0 -0)
(1.07091264647587e+19 -0 -0)
(1.07293293274405e+19 -0 -0)
(1.07598666992481e+19 -0 -0)
(1.07798462211842e+19 -0 -0)
(1.08186492277327e+19 -0 -0)
(1.0851470066321e+19 -0 -0)
(1.09073504219917e+19 -0 -0)
(1.09687213461519e+19 -0 -0)
(1.10686353256686e+19 -0 -0)
(1.12175319404299e+19 -0 -0)
(1.14163263687984e+19 -0 -0)
(1.16703453911543e+19 -0 -0)
(1.19516879351815e+19 -0 -0)
(1.21795405083112e+19 -0 -0)
(1.23940838262813e+19 -0 -0)
(1.25725351226789e+19 -0 -0)
(1.26934622585015e+19 -0 -0)
(1.27865535780143e+19 -0 -0)
(1.28591417316411e+19 -0 -0)
(1.2921950144752e+19 -0 -0)
(1.29758874194068e+19 -0 -0)
(1.30276645832142e+19 -0 -0)
(1.30740718271221e+19 -0 -0)
(1.31219149271388e+19 -0 -0)
(1.31671108385541e+19 -0 -0)
(1.32138818817375e+19 -0 -0)
(1.32588000791355e+19 -0 -0)
(1.33058767578345e+19 -0 -0)
(1.335119999371e+19 -0 -0)
(1.33988921130072e+19 -0 -0)
(1.34447000080655e+19 -0 -0)
(1.34928093282906e+19 -0 -0)
(1.35387713809563e+19 -0 -0)
(1.3587126166541e+19 -0 -0)
(1.36323374842708e+19 -0 -0)
(1.36810363804483e+19 -0 -0)
(1.37258113150646e+19 -0 -0)
(1.37740513617947e+19 -0 -0)
(1.38180258330023e+19 -0 -0)
(1.38655095854605e+19 -0 -0)
(1.39083786376993e+19 -0 -0)
(1.39548272641963e+19 -0 -0)
(1.3996342669608e+19 -0 -0)
(1.40415279380348e+19 -0 -0)
(1.40815047179699e+19 -0 -0)
(1.41252654165571e+19 -0 -0)
(1.41635655479458e+19 -0 -0)
(1.42057913974184e+19 -0 -0)
(1.42423211731707e+19 -0 -0)
(1.42829620293088e+19 -0 -0)
(1.43175800822662e+19 -0 -0)
(1.43564259891605e+19 -0 -0)
(1.4389475607925e+19 -0 -0)
(1.44266056547085e+19 -0 -0)
(1.44578052316676e+19 -0 -0)
(1.44932884527118e+19 -0 -0)
(1.45226686985701e+19 -0 -0)
(1.45565364535657e+19 -0 -0)
(1.45841427584806e+19 -0 -0)
(1.46164493026494e+19 -0 -0)
(1.46423349619585e+19 -0 -0)
(1.4673142951406e+19 -0 -0)
(1.46973661550372e+19 -0 -0)
(1.47267489370544e+19 -0 -0)
(1.47493927236652e+19 -0 -0)
(1.47774318792727e+19 -0 -0)
(1.47985842339897e+19 -0 -0)
(1.48253629189902e+19 -0 -0)
(1.48451067209881e+19 -0 -0)
(1.48707034060343e+19 -0 -0)
(1.48891147005794e+19 -0 -0)
(1.49136235940615e+19 -0 -0)
(1.49307430243116e+19 -0 -0)
(1.49543436420119e+19 -0 -0)
(1.49684367951257e+19 -0 -0)
(1.49945556625823e+19 -0 -0)
(1.50057807206799e+19 -0 -0)
(1.50312010267967e+19 -0 -0)
(1.50412191887234e+19 -0 -0)
(1.50659873301877e+19 -0 -0)
(1.50748547105706e+19 -0 -0)
(1.50990344435519e+19 -0 -0)
(1.510680112408e+19 -0 -0)
(1.51304496378145e+19 -0 -0)
(1.51371718356915e+19 -0 -0)
(1.51603318927776e+19 -0 -0)
(1.51660580040949e+19 -0 -0)
(1.51887768156902e+19 -0 -0)
(1.51935380491022e+19 -0 -0)
(1.52158537412342e+19 -0 -0)
(1.52196862260961e+19 -0 -0)
(1.52416369731182e+19 -0 -0)
(1.52445692422596e+19 -0 -0)
(1.52661758465947e+19 -0 -0)
(1.52681954556419e+19 -0 -0)
(1.52894750444884e+19 -0 -0)
(1.52906181641932e+19 -0 -0)
(1.53116127075883e+19 -0 -0)
(1.53119156259162e+19 -0 -0)
(1.53326593632951e+19 -0 -0)
(1.53320664572637e+19 -0 -0)
(1.53524967231528e+19 -0 -0)
(1.53510331872671e+19 -0 -0)
(1.53711271672409e+19 -0 -0)
(1.5368659184352e+19 -0 -0)
(1.53883474823755e+19 -0 -0)
(1.5383888158317e+19 -0 -0)
(1.54044714547779e+19 -0 -0)
(1.53782224460234e+19 -0 -0)
)
;

boundaryField
{
    electrode
    {
        type            calculated;
        value           uniform (-13869212909.0466 -0 -0);
    }
    ground
    {
        type            calculated;
        value           uniform (1.54072282634642e+19 -0 -0);
    }
    otherfaces
    {
        type            empty;
    }
}


// ************************************************************************* //
