/*--------------------------------*- C++ -*----------------------------------*\
| =========                 |                                                 |
| \\      /  F ield         | foam-extend: Open Source CFD                    |
|  \\    /   O peration     | Version:     4.0                                |
|   \\  /    A nd           | Web:         http://www.foam-extend.org         |
|    \\/     M anipulation  |                                                 |
\*---------------------------------------------------------------------------*/
FoamFile
{
    version     2.0;
    format      ascii;
    class       volVectorField;
    location    "9.2e-06";
    object      J_electron;
}
// * * * * * * * * * * * * * * * * * * * * * * * * * * * * * * * * * * * * * //

dimensions      [1 -1 -1 0 0 0 0];

internalField   nonuniform List<vector> 
300
(
(-1.34214917810576e+19 0 0)
(-1.37770604414985e+19 0 0)
(-1.62901982370234e+19 0 0)
(-1.57813756133404e+19 0 0)
(-1.57746640817681e+19 0 0)
(-1.57599130852624e+19 0 0)
(-1.56909863991698e+19 0 0)
(-1.56389408637948e+19 0 0)
(-1.55844647576624e+19 0 0)
(-1.55292629226417e+19 0 0)
(-1.54744413089053e+19 0 0)
(-1.54194847478885e+19 0 0)
(-1.53644891615982e+19 0 0)
(-1.53094598427128e+19 0 0)
(-1.52543829864069e+19 0 0)
(-1.5199258977186e+19 0 0)
(-1.51440846503922e+19 0 0)
(-1.5088856956151e+19 0 0)
(-1.50335731452156e+19 0 0)
(-1.4978230365903e+19 0 0)
(-1.4922825875226e+19 0 0)
(-1.48673568254784e+19 0 0)
(-1.4811820542638e+19 0 0)
(-1.4756214277427e+19 0 0)
(-1.47005354197498e+19 0 0)
(-1.46447812653559e+19 0 0)
(-1.4588949260094e+19 0 0)
(-1.45330367941196e+19 0 0)
(-1.44770413564596e+19 0 0)
(-1.44209604460822e+19 0 0)
(-1.43647915816729e+19 0 0)
(-1.43085323842708e+19 0 0)
(-1.42521804640611e+19 0 0)
(-1.41957334667027e+19 0 0)
(-1.41391891165881e+19 0 0)
(-1.40825451565357e+19 0 0)
(-1.40257993948396e+19 0 0)
(-1.3968949645793e+19 0 0)
(-1.39119937969158e+19 0 0)
(-1.38549298030977e+19 0 0)
(-1.37977556383155e+19 0 0)
(-1.37404693118863e+19 0 0)
(-1.36830689310306e+19 0 0)
(-1.36255526085544e+19 0 0)
(-1.35679184829489e+19 0 0)
(-1.35101648961381e+19 0 0)
(-1.34522899915056e+19 0 0)
(-1.33942922259928e+19 0 0)
(-1.33361699322709e+19 0 0)
(-1.32779215488166e+19 0 0)
(-1.32195455937591e+19 0 0)
(-1.31610405786689e+19 0 0)
(-1.31024051439379e+19 0 0)
(-1.30436379309315e+19 0 0)
(-1.29847376608591e+19 0 0)
(-1.29257031219423e+19 0 0)
(-1.28665330611084e+19 0 0)
(-1.28072264477599e+19 0 0)
(-1.27477821514064e+19 0 0)
(-1.26881991659647e+19 0 0)
(-1.26284765524111e+19 0 0)
(-1.25686133684101e+19 0 0)
(-1.25086088043144e+19 0 0)
(-1.24484619883672e+19 0 0)
(-1.2388172252738e+19 0 0)
(-1.23277388160767e+19 0 0)
(-1.22671610611431e+19 0 0)
(-1.22064383889601e+19 0 0)
(-1.21455701964069e+19 0 0)
(-1.20845560430796e+19 0 0)
(-1.20233953913442e+19 0 0)
(-1.19620878256099e+19 0 0)
(-1.19006329826194e+19 0 0)
(-1.18390304774116e+19 0 0)
(-1.17772800108769e+19 0 0)
(-1.17153812821831e+19 0 0)
(-1.16533340468433e+19 0 0)
(-1.15911380784251e+19 0 0)
(-1.15287931572165e+19 0 0)
(-1.14662991180663e+19 0 0)
(-1.14036557521176e+19 0 0)
(-1.13408629163405e+19 0 0)
(-1.12779204635184e+19 0 0)
(-1.12148282139078e+19 0 0)
(-1.11515860420065e+19 0 0)
(-1.10881937385262e+19 0 0)
(-1.1024651131719e+19 0 0)
(-1.0960958026382e+19 0 0)
(-1.08971141623222e+19 0 0)
(-1.08331192464971e+19 0 0)
(-1.07689729664966e+19 0 0)
(-1.07046749409614e+19 0 0)
(-1.06402247009748e+19 0 0)
(-1.05756216907048e+19 0 0)
(-1.05108653457314e+19 0 0)
(-1.0445954867319e+19 0 0)
(-1.03808894653647e+19 0 0)
(-1.03156681234842e+19 0 0)
(-1.02502897381225e+19 0 0)
(-1.01847530229989e+19 0 0)
(-1.01190564859924e+19 0 0)
(-1.00531983906735e+19 0 0)
(-9.98717684908451e+18 0 0)
(-9.92099008467383e+18 0 0)
(-9.85463566165239e+18 0 0)
(-9.78810871615429e+18 0 0)
(-9.72140547293158e+18 0 0)
(-9.65453267261194e+18 0 0)
(-9.58749598975263e+18 0 0)
(-9.52023928540129e+18 0 0)
(-9.45268055841702e+18 0 0)
(-9.38505893061224e+18 0 0)
(-9.31785297208698e+18 0 0)
(-9.24980035171805e+18 0 0)
(-9.17729321417703e+18 0 0)
(-9.10319211345714e+18 0 0)
(-9.03221134352397e+18 0 0)
(-8.96273215394415e+18 0 0)
(-8.89320292640673e+18 0 0)
(-8.82339947583164e+18 0 0)
(-8.75324620536807e+18 0 0)
(-8.68271059801473e+18 0 0)
(-8.61177253538143e+18 0 0)
(-8.54041308574043e+18 0 0)
(-8.46861206240625e+18 0 0)
(-8.3963472476525e+18 0 0)
(-8.32359398006325e+18 0 0)
(-8.25032485999215e+18 0 0)
(-8.17650944386269e+18 0 0)
(-8.10211397768839e+18 0 0)
(-8.02710095643175e+18 0 0)
(-7.95142879347684e+18 0 0)
(-7.87505128848438e+18 0 0)
(-7.79791723333157e+18 0 0)
(-7.71996965432145e+18 0 0)
(-7.64114536277895e+18 0 0)
(-7.56137407844922e+18 0 0)
(-7.480577659015e+18 0 0)
(-7.3986691253844e+18 0 0)
(-7.31555166146055e+18 0 0)
(-7.23111727012931e+18 0 0)
(-7.14524559489368e+18 0 0)
(-7.057802150773e+18 0 0)
(-6.96863675701527e+18 0 0)
(-6.87758115399533e+18 0 0)
(-6.78444760528585e+18 0 0)
(-6.68902394024061e+18 0 0)
(-6.59107636599849e+18 0 0)
(-6.49033249930399e+18 0 0)
(-6.38650756758713e+18 0 0)
(-6.2792366016126e+18 0 0)
(-6.1681991006573e+18 0 0)
(-6.05285532273056e+18 0 0)
(-5.93294291287251e+18 0 0)
(-5.80751534314331e+18 0 0)
(-5.67669866905993e+18 0 0)
(-5.53849855982698e+18 0 0)
(-5.39442601397217e+18 0 0)
(-5.23964690589129e+18 0 0)
(-5.0796962847916e+18 0 0)
(-4.90246757502943e+18 0 0)
(-4.72169333677936e+18 0 0)
(-4.50735012304021e+18 0 0)
(-4.27092561393353e+18 0 0)
(-3.92539596762959e+18 0 0)
(-3.12453731452453e+18 0 0)
(-2.30248394722692e+18 0 0)
(-2.10079139375455e+18 0 0)
(-2.03985517949223e+18 0 0)
(-1.73624954023156e+18 0 0)
(-1.12481699141622e+18 0 0)
(-4.34534748911567e+17 0 0)
(1.97224575226872e+17 0 0)
(6.20622107609399e+17 0 0)
(2.35692275127026e+17 0 0)
(-4.28623776837534e+17 0 0)
(-3.15656753203118e+16 0 0)
(1.4508517794775e+15 0 0)
(-1.68647289275312e+18 0 0)
(-2.26353300152254e+18 0 0)
(-2.32850582904871e+18 0 0)
(-3.95901970016738e+18 0 0)
(-4.33328064307292e+18 0 0)
(-3.71730878280132e+18 0 0)
(-3.99025165241732e+18 0 0)
(-2.78381545520313e+18 0 0)
(-7.83741998264746e+17 0 0)
(1.29467183034008e+18 0 0)
(4.36907333381679e+18 0 0)
(7.56608812396839e+18 0 0)
(1.01527828628048e+19 0 0)
(1.23851199925956e+19 0 0)
(1.3982258685049e+19 0 0)
(1.40872897851558e+19 0 0)
(1.47101855887036e+19 0 0)
(1.20265239900705e+19 0 0)
(1.04928126323005e+19 0 0)
(8.35758003234741e+18 0 0)
(6.12208520001172e+18 0 0)
(8.62189302768035e+18 0 0)
(-4.8678913179707e+18 0 0)
(2.53082525377195e+18 0 0)
(-7.33875357320266e+17 0 0)
(-2.11364358696292e+18 0 0)
(-2.02924480295674e+18 0 0)
(-1.99768884704228e+18 0 0)
(-2.16144579727702e+18 0 0)
(-2.464617945189e+18 0 0)
(-2.73041156147101e+18 0 0)
(-2.89066014665531e+18 0 0)
(-2.96355813948914e+18 0 0)
(-2.98410778002348e+18 0 0)
(-2.97468569665223e+18 0 0)
(-2.95096225253985e+18 0 0)
(-2.91679628770742e+18 0 0)
(-2.88271863068383e+18 0 0)
(-2.84238179517431e+18 0 0)
(-2.79792101510496e+18 0 0)
(-2.75186933954602e+18 0 0)
(-2.70578802863838e+18 0 0)
(-2.66014137161393e+18 0 0)
(-2.61310866234309e+18 0 0)
(-2.56622247428997e+18 0 0)
(-2.51928019166723e+18 0 0)
(-2.47186268130529e+18 0 0)
(-2.42443688696475e+18 0 0)
(-2.37706334203415e+18 0 0)
(-2.32987374618895e+18 0 0)
(-2.28296061470991e+18 0 0)
(-2.23641097907708e+18 0 0)
(-2.19030322363069e+18 0 0)
(-2.14470872502157e+18 0 0)
(-2.09969200057494e+18 0 0)
(-2.05531048159087e+18 0 0)
(-2.01161505236535e+18 0 0)
(-1.96864861467934e+18 0 0)
(-1.92644857696242e+18 0 0)
(-1.88502188225099e+18 0 0)
(-1.84436321598083e+18 0 0)
(-1.80478935041569e+18 0 0)
(-1.76592555253362e+18 0 0)
(-1.72795902110457e+18 0 0)
(-1.69086405490266e+18 0 0)
(-1.65465250314359e+18 0 0)
(-1.6193282303529e+18 0 0)
(-1.58488804141011e+18 0 0)
(-1.55132553211509e+18 0 0)
(-1.51863133209718e+18 0 0)
(-1.48679385123878e+18 0 0)
(-1.45579943089911e+18 0 0)
(-1.42563303829713e+18 0 0)
(-1.39627839653703e+18 0 0)
(-1.36772058809476e+18 0 0)
(-1.33993794792763e+18 0 0)
(-1.31293887866978e+18 0 0)
(-1.28659685304021e+18 0 0)
(-1.26103864801776e+18 0 0)
(-1.23621137048411e+18 0 0)
(-1.2119798126066e+18 0 0)
(-1.1884319440706e+18 0 0)
(-1.16551076200995e+18 0 0)
(-1.14320187238571e+18 0 0)
(-1.12148400439768e+18 0 0)
(-1.1003392132815e+18 0 0)
(-1.07975264207246e+18 0 0)
(-1.0597026074207e+18 0 0)
(-1.04017024657486e+18 0 0)
(-1.02113989756113e+18 0 0)
(-1.00259597627296e+18 0 0)
(-9.84513777265675e+17 0 0)
(-9.66897137790074e+17 0 0)
(-9.49572355161985e+17 0 0)
(-9.32949123561293e+17 0 0)
(-9.16609352531131e+17 0 0)
(-9.00665868633448e+17 0 0)
(-8.85099785744953e+17 0 0)
(-8.69907208814276e+17 0 0)
(-8.55076232834586e+17 0 0)
(-8.40596227534239e+17 0 0)
(-8.26455741687892e+17 0 0)
(-8.1264495756019e+17 0 0)
(-7.99144726189688e+17 0 0)
(-7.85957795765131e+17 0 0)
(-7.72906464958436e+17 0 0)
(-7.60384366120637e+17 0 0)
(-7.48287980126566e+17 0 0)
(-7.36332513184488e+17 0 0)
(-7.24642425354676e+17 0 0)
(-7.13245269202911e+17 0 0)
(-7.01692351243028e+17 0 0)
(-6.913546668022e+17 0 0)
(-6.8088099997765e+17 0 0)
(-6.70386223403879e+17 0 0)
(-6.60616663366922e+17 0 0)
(-6.51264724871397e+17 0 0)
(-6.41962637196359e+17 0 0)
(-6.33760043444981e+17 0 0)
(-6.26464956949464e+17 0 0)
(-6.20052445523945e+17 0 0)
(-6.090352103342e+17 0 0)
)
;

boundaryField
{
    electrode
    {
        type            calculated;
        value           uniform (-1.60524866927407e+19 0 0);
    }
    ground
    {
        type            calculated;
        value           uniform (-6.06374169232625e+17 0 0);
    }
    otherfaces
    {
        type            empty;
    }
}


// ************************************************************************* //
