/*--------------------------------*- C++ -*----------------------------------*\
| =========                 |                                                 |
| \\      /  F ield         | foam-extend: Open Source CFD                    |
|  \\    /   O peration     | Version:     4.0                                |
|   \\  /    A nd           | Web:         http://www.foam-extend.org         |
|    \\/     M anipulation  |                                                 |
\*---------------------------------------------------------------------------*/
FoamFile
{
    version     2.0;
    format      ascii;
    class       volScalarField;
    location    "9.2e-06";
    object      N_electronMean;
}
// * * * * * * * * * * * * * * * * * * * * * * * * * * * * * * * * * * * * * //

dimensions      [0 0 0 1 0 0 0];

internalField   nonuniform List<scalar> 
300
(
6.22092341397273e+16
6.22076660678487e+16
6.22034390157359e+16
6.21961081620923e+16
6.21857181853078e+16
6.21722367228698e+16
6.21556482197503e+16
6.21359448411898e+16
6.21131183403354e+16
6.20871625103252e+16
6.20580725626429e+16
6.20258449561799e+16
6.1990477327902e+16
6.19519683770818e+16
6.19103177924434e+16
6.18655261794228e+16
6.18175949977246e+16
6.17665265078859e+16
6.17123237193073e+16
6.16549903410424e+16
6.15945307383241e+16
6.15309498913967e+16
6.14642533558075e+16
6.13944472217684e+16
6.1321538084479e+16
6.12455330208446e+16
6.11664395469268e+16
6.10842655756224e+16
6.09990193821528e+16
6.09107095575765e+16
6.08193449787095e+16
6.07249348000508e+16
6.06274884114949e+16
6.05270153703266e+16
6.04235253523673e+16
6.03170281129096e+16
6.02075334482892e+16
6.00950511607043e+16
5.99795910197613e+16
5.98611627234611e+16
5.97397758662429e+16
5.96154399064648e+16
5.94881641277544e+16
5.93579576037348e+16
5.92248291676661e+16
5.90887873829051e+16
5.89498405154806e+16
5.8807996509757e+16
5.8663262969874e+16
5.85156471467626e+16
5.83651559386249e+16
5.8211795892059e+16
5.80555731819163e+16
5.78964935731965e+16
5.7734562366226e+16
5.75697843402679e+16
5.74021637053528e+16
5.72317040647469e+16
5.70584083864906e+16
5.68822789759046e+16
5.67033174510462e+16
5.65215247200368e+16
5.63369009558263e+16
5.61494455914841e+16
5.59591573401777e+16
5.57660341714655e+16
5.55700732465975e+16
5.53712708805223e+16
5.51696225243308e+16
5.49651227475536e+16
5.47577652204031e+16
5.45475427068528e+16
5.43344470782252e+16
5.41184693048548e+16
5.38995994224625e+16
5.36778265355374e+16
5.34531388345151e+16
5.32255235800666e+16
5.29949670562533e+16
5.27614545423724e+16
5.25249703112443e+16
5.22854975807647e+16
5.20430184673958e+16
5.17975139719809e+16
5.15489639748464e+16
5.12973472464457e+16
5.10426414276305e+16
5.07848229851435e+16
5.05238671936583e+16
5.02597481370011e+16
4.99924386925593e+16
4.97219105450561e+16
4.94481342084787e+16
4.91710789707791e+16
4.88907128420526e+16
4.8607002543882e+16
4.83199134983061e+16
4.80294098173809e+16
4.77354542930886e+16
4.74380083954635e+16
4.71370322700622e+16
4.68324847194119e+16
4.65243232082597e+16
4.62125038837796e+16
4.58969815515177e+16
4.55777096611884e+16
4.52546403092886e+16
4.49277242322537e+16
4.45969108124234e+16
4.42621480639835e+16
4.39233826116224e+16
4.35805596870803e+16
4.32336231346513e+16
4.28825154290416e+16
4.25271776789125e+16
4.2167549635008e+16
4.18035697478294e+16
4.14351752088567e+16
4.1062301934573e+16
4.06848845484304e+16
4.03028564035258e+16
3.9916149618888e+16
3.95246951092097e+16
3.91284226218467e+16
3.87272607289207e+16
3.83211367877843e+16
3.79099769491477e+16
3.74937061846313e+16
3.70722482861314e+16
3.66455258724158e+16
3.62134604157125e+16
3.57759722669841e+16
3.53329806729075e+16
3.48844037901484e+16
3.44301587463838e+16
3.39701617136642e+16
3.35043279048631e+16
3.30325715355734e+16
3.25548058233265e+16
3.20709430124244e+16
3.15808943741933e+16
3.10845702007478e+16
3.05818798128823e+16
3.00727315758363e+16
2.95570329564604e+16
2.90346905669036e+16
2.85056101375288e+16
2.79696964748579e+16
2.74268534141312e+16
2.68769838179395e+16
2.63199896234684e+16
2.57557718213442e+16
2.51842304438886e+16
2.46052646018044e+16
2.40187724529313e+16
2.34246512451142e+16
2.28227973993203e+16
2.22131066650685e+16
2.15954740600261e+16
2.09697934663945e+16
2.03359556223142e+16
1.9693836568503e+16
1.90432809073489e+16
1.83840940583847e+16
1.77160410673174e+16
1.70388330373094e+16
1.63521068539944e+16
1.56554548363557e+16
1.49484907001495e+16
1.4230880681028e+16
1.35023623752407e+16
1.27628080238196e+16
1.20123399262028e+16
1.12514788821912e+16
1.0481363088796e+16
9.70399151800397e+15
8.92233965177253e+15
8.1404502058883e+15
7.36357861038986e+15
6.59817361016034e+15
5.85164245974203e+15
5.13205589512929e+15
4.4477009301643e+15
3.8064548904216e+15
3.21520634880845e+15
2.67931683497647e+15
2.20216304550652e+15
1.78496231843919e+15
1.42681991053748e+15
1.12493762423365e+15
875015037108464
671742145114053
509263358345624
381591394047489
282656648717151
207025246237515
150067939935223
107730314119275
76541834698072.9
53570243406694
36751087837647.7
24781597642383.9
16391916667143.6
10607360885895.9
6837521070659.66
4548525526865.73
3238952366816.06
2510050731198.98
2101092438153.84
1864422118318.8
1721949303359.08
1632713269193.22
1574561124853.85
1535057430710.18
1506909558587.99
1485624917729.66
1468294272150.71
1452989149872.5
1438481256873.72
1424033643801.38
1409086088797.47
1393254819319.73
1376349350419.83
1358263903616.72
1338965952663.01
1318479513704.35
1296867124593.73
1274216575851.93
1250631960977.53
1226227248676.67
1201121460085.1
1175435513639.37
1149288907595.09
1122797850477.9
1096073860872
1069222316738.64
1042341571096.83
1015522714706.33
988848723897.588
962392461224.77
936217902885.51
910383096239.497
884940924941.174
859938733120.976
835417813628.833
811413175812.393
787953080385.603
765059912141.445
742750710947.75
721037824202.734
699930137109.051
679433042238.817
659548367325.464
640274735609.074
621608145367.801
603543514487.787
586072073368.805
569180523465.59
552856899286.296
537089983479.872
521866585636.894
507172238298.645
492991901117.961
479310056253.185
466110997643.318
453379139453.003
441098326404.018
429252168302.818
417824596602.893
406799507517.911
396160363570.861
385889995908.821
375970865332.426
366388728116.885
357132668799.286
348192635238.951
339559311087.813
331223925171.37
323178445781.98
315415618598.266
307928890751.73
300711883614.818
293757659197.245
287051108480.148
280566373542.822
274288722514.412
268222943653.773
262379911978.647
256771507393.603
251392268125.367
246215379510.284
241246360833.283
236530694331.553
232074905275.604
227905498764.08
224106329917.065
220803850325.658
218258908852.001
216907753430.148
217518585750.663
)
;

boundaryField
{
    electrode
    {
        type            calculated;
        value           uniform 6.22092341398563e+16;
    }
    ground
    {
        type            calculated;
        value           uniform 219355342352.594;
    }
    otherfaces
    {
        type            empty;
    }
}


// ************************************************************************* //
