/*--------------------------------*- C++ -*----------------------------------*\
| =========                 |                                                 |
| \\      /  F ield         | foam-extend: Open Source CFD                    |
|  \\    /   O peration     | Version:     4.0                                |
|   \\  /    A nd           | Web:         http://www.foam-extend.org         |
|    \\/     M anipulation  |                                                 |
\*---------------------------------------------------------------------------*/
FoamFile
{
    version     2.0;
    format      ascii;
    class       volScalarField;
    location    "9.2e-06";
    object      PhiMean;
}
// * * * * * * * * * * * * * * * * * * * * * * * * * * * * * * * * * * * * * //

dimensions      [0 0 0 1 0 0 0];

internalField   nonuniform List<scalar> 
300
(
699.991968577867
699.99108682703
699.989927006506
699.988515543979
699.986861457083
699.984958471211
699.982806524037
699.980404737475
699.977752195584
699.974848188979
699.97169204197
699.968283147244
699.96462094479
699.960704914314
699.956534569182
699.952109449285
699.947429115619
699.942493146353
699.937301132027
699.931852671089
699.926147366548
699.920184822486
699.913964640881
699.907486418294
699.900749742259
699.893754194215
699.886499342632
699.878984739651
699.87120992011
699.863174395839
699.854877651418
699.846319150802
699.837498331925
699.828414596775
699.819067308635
699.809455788882
699.799579313522
699.789437110931
699.779028358262
699.768352177149
699.757407631313
699.746193724331
699.734709394415
699.722953511454
699.710924873769
699.698622204968
699.686044150701
699.673189276037
699.660056062731
699.6466429086
699.632948125992
699.618969946713
699.604706514908
699.590155886365
699.575316016813
699.560184756354
699.54475984074
699.529038886603
699.513019387196
699.4966987075
699.480074079808
699.463142599247
699.445901218407
699.428346741955
699.410475834235
699.392285013357
699.37377063342
699.354928879591
699.33575576288
699.316247114387
699.296398579299
699.276205610191
699.255663468067
699.234767218401
699.213511715467
699.191891601009
699.169901305554
699.147535037022
699.124786771859
699.101650234975
699.078118910313
699.054186013813
699.029844482602
699.005086967366
698.979905819744
698.954293092111
698.928240523277
698.901739519342
698.874781140961
698.84735609662
698.819454726426
698.791066987158
698.762182460918
698.732790315703
698.702879287521
698.672437664944
698.641453270459
698.609913443088
698.577805016708
698.545114302289
698.511827067576
698.477928511115
698.44340323518
698.40823523757
698.372407869494
698.335903808655
698.298705034616
698.260792788081
698.222147547672
698.182748986741
698.14257593081
698.101606318367
698.05981715565
698.017184475787
697.973683289979
697.929287527686
697.883969996742
697.837702332136
697.790454919758
697.742196823625
697.692895711473
697.642517789401
697.591027707458
697.538388485753
697.484561405136
697.42950588679
697.373179374761
697.315537221643
697.256532538859
697.196116050245
697.134235930695
697.070837633022
697.005863693507
696.93925351793
696.870943155337
696.800865073189
696.72894786017
696.65511591387
696.579289090628
696.501382344837
696.421305304683
696.338961808443
696.254249392656
696.167058716469
696.077272935939
695.984767008025
695.889406864912
695.791048507132
695.68953696593
695.584705134251
695.476372485226
695.36434354695
695.248406177704
695.128329619753
695.003862205217
694.874728701692
694.74062734957
694.601226187213
694.456159140937
694.305020626782
694.147360556503
693.98267427573
693.810382312183
693.629818215634
693.440214699003
693.240685398528
693.030181375182
692.807466944577
692.571126691465
692.319519295749
692.050719141932
691.762475086053
691.452181835555
691.116815882625
690.752909308575
690.356650751309
689.923799788932
689.449569944554
688.928848792125
688.356234933068
687.725989821579
687.032252582877
686.269261778867
685.431250298275
684.512832114373
683.509153171636
682.415753819498
681.228871156227
679.945629084581
678.563684669925
677.081286225437
675.497509675645
673.811995061555
672.024765008737
670.136035028211
668.146374141646
666.056292718507
663.866216611073
661.576479983532
659.187431430902
656.699401047583
654.11262952744
651.427041731672
648.642648801092
645.759650643468
642.778565140427
639.700115104834
636.52516906139
633.254654296515
629.889469193851
626.430472984926
622.878447333269
619.234169553198
615.498462724064
611.672260990802
607.756454629033
603.751877947894
599.659280652473
595.479367660305
591.212768243043
586.86007698511
582.421820394684
577.898499302727
573.290553458952
568.598405371632
563.822485331355
558.963408669831
554.021739677451
548.998037473666
543.89280408916
538.706542210589
533.439700338714
528.092733247431
522.666045295946
517.160051720574
511.575117961057
505.911623883293
500.169900435311
494.350296326643
488.45311196872
482.478668672136
476.427240128473
470.299144903153
464.094781914983
457.814601168583
451.459001164998
445.028406894694
438.523191628118
431.943757605067
425.290454878329
418.563664866054
411.763716073868
404.890970749572
397.945737243524
390.928360046883
383.839128560796
376.678370704518
369.446357988814
362.143402767204
354.769759593153
347.325726110809
339.811540759236
332.227487252592
324.573788561124
316.850715186165
309.058477508972
301.197373670775
293.26766851576
285.269708527255
277.203787736264
269.070262813952
260.869413695455
252.601585235199
244.267043190914
235.866121312724
227.399071766804
218.866217856363
210.267798723476
201.604127825313
192.875431813897
184.082014854692
175.224091570542
166.301957367394
157.315815270947
148.265952510501
139.152561042383
129.975920505755
120.736212172085
111.433708541328
102.068580538157
92.6410939180896
83.151409735653
73.5997877350099
63.9863795683512
54.3114392923052
44.5751097849201
34.7776403301098
24.919165595055
14.9999313540082
5.02007096989623
)
;

boundaryField
{
    electrode
    {
        type            calculated;
        value           uniform 699.999999999386;
    }
    ground
    {
        type            calculated;
        value           uniform 0;
    }
    otherfaces
    {
        type            empty;
    }
}


// ************************************************************************* //
