/*--------------------------------*- C++ -*----------------------------------*\
| =========                 |                                                 |
| \\      /  F ield         | foam-extend: Open Source CFD                    |
|  \\    /   O peration     | Version:     4.0                                |
|   \\  /    A nd           | Web:         http://www.foam-extend.org         |
|    \\/     M anipulation  |                                                 |
\*---------------------------------------------------------------------------*/
FoamFile
{
    version     2.0;
    format      ascii;
    class       volScalarField;
    location    "9.2e-06";
    object      Te;
}
// * * * * * * * * * * * * * * * * * * * * * * * * * * * * * * * * * * * * * //

dimensions      [0 0 0 1 0 0 0];

internalField   nonuniform List<scalar> 
300
(
40048.5248480878
40048.805255966
40048.9734622735
40049.0730480162
40049.2312275856
40049.4230164641
40049.651529132
40049.9186283966
40050.2235670695
40050.5664928247
40050.9474162759
40051.3663231158
40051.8232252437
40052.3181344353
40052.8510679082
40053.4220485868
40054.0311045824
40054.6782693892
40055.3635818883
40056.0870863667
40056.8488325485
40057.6488756299
40058.4872763132
40059.3641008448
40060.279421057
40061.2333144136
40062.2258640606
40063.257158876
40064.3272935281
40065.4363685327
40066.5844903185
40067.7717712927
40068.9983299102
40070.2642907523
40071.569784604
40072.9149485359
40074.2999259918
40075.7248668824
40077.1899276807
40078.6952715214
40080.2410683071
40081.827494821
40083.454734841
40085.1229792599
40086.8324262152
40088.5832812158
40090.3757572843
40092.2100750997
40094.0864631439
40096.0051578636
40097.9664038304
40099.9704539117
40102.0175694475
40104.1080204338
40106.2420857166
40108.4200531901
40110.6422200098
40112.9088928055
40115.2203879084
40117.5770315901
40119.9791603046
40122.427120946
40124.9212711145
40127.4619793955
40130.0496256475
40132.6846013039
40135.3673096898
40138.0981663462
40140.8775993741
40143.7060497893
40146.5839718938
40149.5118336665
40152.4901171634
40155.5193189412
40158.599950499
40161.732538737
40164.9176264372
40168.1557727644
40171.447553792
40174.7935630489
40178.1944120941
40181.6507311166
40185.1631695606
40188.7323967844
40192.3591027472
40196.04399873
40199.7878180919
40203.5913170584
40207.4552755539
40211.3804980738
40215.3678145973
40219.418081547
40223.5321827995
40227.7110307482
40231.9555674145
40236.2667656249
40240.6456302476
40245.0931994923
40249.6105462854
40254.1987797144
40258.8590465576
40263.5925329014
40268.4004658414
40273.2841152534
40278.2447956999
40283.2838686218
40288.4027445321
40293.602884405
40298.8858013096
40304.2530674306
40309.7063233003
40315.2472590809
40320.8775749713
40326.5990954736
40332.4140874356
40338.3249633998
40344.3336472203
40350.441911707
40356.6518558582
40362.965808792
40369.3862213242
40375.9156568102
40382.556792814
40389.312426466
40396.185481387
40403.1790154089
40410.2962289846
40417.5404743057
40424.9152651878
40432.4242877939
40440.07141229
40447.8607055305
40455.796444889
40463.8831333566
40472.1255160629
40480.5285983777
40489.0976657797
40497.8383057172
40506.7564316997
40515.8583099022
40525.1505886175
40534.6403309195
40544.3350509815
40554.2427545511
40564.3719841872
40574.73186987
40585.3321860067
40596.1834152205
40607.2968213314
40618.6845299967
40630.3596245081
40642.3362465105
40654.6297279175
40667.2567096013
40680.2353395223
40693.5853886788
40707.3285879353
40721.4886619114
40736.0919980127
40751.1673737657
40766.7474118886
40782.8678014434
40799.5707071168
40816.906267525
40834.9440510902
40853.8439191357
40873.7709121677
40894.6930876633
40916.5365057048
40939.4075314381
40963.5342410426
40989.1441503181
41016.411299051
41045.4649024393
41076.2471419369
41108.6556499075
41143.15542254
41180.310678555
41219.7849483781
41261.6678058294
41307.0683595668
41356.1496113782
41409.3664631727
41468.8724527827
41536.2109785883
41613.6722990323
41706.1118168779
41819.1976755622
41961.3665453999
42145.4682111302
42387.8674457869
42711.3681697397
43149.5176864241
43747.3861557139
44575.0809389648
45724.2252811137
47317.6507770417
49574.0114375419
52793.6505343766
57562.3530343282
63761.6223249299
71824.2542479907
84831.9030867142
102737.496196705
127491.954753812
161947.499679746
208078.478356175
265592.880049724
330960.669234984
398953.051809922
464863.302571675
525637.587310198
579895.63286216
627460.474656881
668820.804530267
704648.376640607
735694.891185954
762792.680281502
786630.317272093
807748.152862488
826561.306892928
843433.663947908
858682.872151301
872556.105103288
885265.574536374
896988.653948024
907868.140972249
918022.265756745
927548.543718144
936527.753975283
945026.778394547
953100.893942639
960795.595552794
968148.071281571
975188.400469178
981940.550974303
988423.196237321
994650.740763665
1000634.13844429
1006375.91993131
1011877.18846585
1017140.69223086
1022164.07992089
1026943.02989398
1031470.85056101
1035738.82659404
1039736.48098558
1043451.75832012
1046871.18712472
1049980.02342072
1052762.3772811
1055201.3219646
1057278.90762314
1058976.19515702
1060272.98106159
1061149.5105682
1061574.46647891
1061549.12292622
1061039.58724374
1060025.2972431
1058483.3598949
1056391.4500091
1053726.83445358
1050466.39010837
1046586.32654003
1042062.45791724
1036870.36774923
1030985.23723373
1024381.72007938
1017034.22502646
1008916.21759913
1000005.49423365
990272.261911888
979684.972475437
968219.447405556
955845.217837765
942530.290998522
928240.677647861
912940.469055098
896591.570455081
879153.371061173
860582.722225674
840832.946115995
819860.471001115
797614.821776851
774032.19549813
749049.544952194
722593.899461771
694574.073572497
664906.905946101
633483.143149625
600166.652490966
564820.057003876
527254.864892291
487235.52093351
444472.992991342
398570.114627958
348957.815547341
294813.693027143
235059.475627912
)
;

boundaryField
{
    electrode
    {
        type            electronTemperature;
        seec            0.05;
        Tse             1000;
        Edepend         1;
        TFN             1000;
        field_emission  0;
        field_enhancement_factor 55;
        work_function   5;
        value           uniform 40048.5248480878;
    }
    ground
    {
        type            electronTemperature;
        seec            0.05;
        Tse             1000;
        Edepend         1;
        TFN             1000;
        field_emission  0;
        field_enhancement_factor 55;
        work_function   5;
        value           uniform 201177.801487477;
    }
    otherfaces
    {
        type            empty;
    }
}


// ************************************************************************* //
