/*--------------------------------*- C++ -*----------------------------------*\
| =========                 |                                                 |
| \\      /  F ield         | foam-extend: Open Source CFD                    |
|  \\    /   O peration     | Version:     4.0                                |
|   \\  /    A nd           | Web:         http://www.foam-extend.org         |
|    \\/     M anipulation  |                                                 |
\*---------------------------------------------------------------------------*/
FoamFile
{
    version     2.0;
    format      ascii;
    class       volScalarField;
    location    "9.2e-06";
    object      TeMean;
}
// * * * * * * * * * * * * * * * * * * * * * * * * * * * * * * * * * * * * * //

dimensions      [0 0 0 1 0 0 0];

internalField   nonuniform List<scalar> 
300
(
36741.3404263071
36741.6318063477
36741.7734447878
36741.8025188438
36741.8626882979
36741.9319204224
36742.013214089
36742.1090785893
36742.2193129526
36742.3444197262
36742.484795353
36742.6408056899
36742.8128195649
36743.0011835648
36743.2062356525
36743.4283042282
36743.6677070495
36743.924754603
36744.1997497917
36744.4929878138
36744.8047581085
36745.1353429088
36745.4850189197
36745.8540568309
36746.2427210498
36746.6512773758
36747.0799879443
36747.5291094097
36747.9988989455
36748.4896061924
36749.001472388
36749.5347474477
36750.0896883048
36750.6665452973
36751.2655661055
36751.8869930081
36752.5310684911
36753.1980414627
36753.8881612301
36754.6016744206
36755.3388264032
36756.0998692287
36756.8850560197
36757.6946390799
36758.5288724056
36759.3880115674
36760.2723134635
36761.182035747
36762.1174346709
36763.0787651018
36764.0662807518
36765.0802444888
36766.1209341958
36767.1886301291
36768.2836183629
36769.406195048
36770.5566555259
36771.735295827
36772.9424218061
36774.1783448925
36775.4433811326
36776.7378576431
36778.0620959134
36779.4164190746
36780.8011766119
36782.216734206
36783.6634610114
36785.1417312228
36786.6519268573
36788.1944413755
36789.769674283
36791.37802528
36793.0199125554
36794.6957704212
36796.4060346985
36798.1511447258
36799.9315630399
36801.7477809187
36803.6002920258
36805.4895969194
36807.416227275
36809.3807321114
36811.3836629585
36813.4255794628
36815.5070566179
36817.6287009663
36819.791147912
36821.9950429595
36824.2410438923
36826.529834903
36828.8621118139
36831.2385907097
36833.6600421967
36836.127249552
36838.6410122304
36841.2021704835
36843.8115859608
36846.4701499233
36849.1787804492
36851.9384294557
36854.7500942136
36857.6147869731
36860.5335542256
36863.5075044271
36866.5377822682
36869.6255693773
36872.7720879618
36875.9786078827
36879.2464565363
36882.5770106631
36885.9717008916
36889.4320125977
36892.9594848199
36896.5557341718
36900.2224342827
36903.9613135907
36907.7741682665
36911.6628897555
36915.6294689879
36919.6759557856
36923.8044861977
36928.0173012145
36932.3167396464
36936.705260453
36941.1854539509
36945.7600205769
36950.4317732188
36955.2036765724
36960.0788537719
36965.0605692483
36970.1522528559
36975.3575281722
36980.6802213442
36986.1243366611
36991.6940944663
36997.3940032041
37003.2288465376
37009.2036820107
37015.3238750259
37021.5951333434
37028.0235368539
37034.6155636542
37041.3781250636
37048.3186010683
37055.4449159098
37062.7656141607
37070.2899048916
37078.0277362428
37085.9898277441
37094.1877907191
37102.6343024465
37111.343167224
37120.3294677535
37129.6098076894
37139.2024113407
37149.1274306492
37159.4072031642
37170.0668205404
37181.1347297481
37192.6444494568
37204.6426890814
37217.187972017
37230.3379752706
37244.1516141988
37258.7084590638
37274.1091879429
37290.4293103841
37307.7267638346
37326.1105783367
37345.7265806335
37366.7005623383
37389.1460678988
37413.1903647776
37438.8839262444
37466.2339019995
37495.4607216415
37526.8480825638
37560.5614135592
37597.0861757649
37637.3972412057
37682.8261668576
37735.6355712142
37799.5653022677
37880.0234082629
37985.2731014951
38127.8021908465
38325.5246127581
38604.8464507005
39005.2535205675
39585.690004878
40435.9536536349
41696.9030676287
43594.3756539777
46555.6621656244
51019.3687798479
57303.1789281264
66417.9609130074
78905.69818217
95755.7350283571
117344.21587924
143735.480052313
174809.709529828
210265.500754403
249459.020278771
292412.718250504
339119.172463517
389027.246746515
440634.086069803
491752.532097445
540287.200310768
584815.109087022
624712.370428544
659958.409471419
690905.156648929
718061.603419187
741936.981983044
763045.31334657
781859.092236746
798761.701918287
814062.853968823
828006.818909062
840797.902151451
852616.697214345
863610.818572928
873902.966704977
883593.171110142
892763.744561565
901482.418447346
909804.771053171
917776.314126546
925434.081385634
932807.917694903
939921.521262403
946793.244492281
953436.827999783
959862.025805019
966075.07226158
972079.074003986
977874.729879115
983459.620816542
988828.588733805
993975.217649429
998891.517305246
1003568.08293283
1007994.13217363
1012157.60750173
1016045.15352897
1019642.40262799
1022934.18265771
1025904.36310745
1028536.42708828
1030813.38760584
1032717.51262327
1034230.59306167
1035333.65453145
1036007.57623702
1036226.62808571
1035983.70809384
1035255.64063684
1034020.59520121
1032257.9640938
1029947.15471542
1027067.42756592
1023597.78666105
1019516.93448405
1014803.52482422
1009435.65645186
1003390.93126948
996647.049669891
989181.215618235
980970.214868
971990.213549685
962215.618877873
951620.766935649
940179.57743095
927863.581314703
914642.89272593
900485.915752672
885359.220924392
869227.270077063
852052.234863351
833793.849550447
814411.712002979
793862.517289649
772092.714187996
749045.615029206
724659.891066156
698860.574036358
671568.753129643
642699.281635713
612143.725897123
579776.639353218
545461.889009071
509015.251377827
470212.558782962
428773.112252224
384303.907612198
336258.82263001
283842.405769292
226007.12928138
)
;

boundaryField
{
    electrode
    {
        type            calculated;
        value           uniform 36741.3404263084;
    }
    ground
    {
        type            calculated;
        value           uniform 193209.85482826;
    }
    otherfaces
    {
        type            empty;
    }
}


// ************************************************************************* //
