/*--------------------------------*- C++ -*----------------------------------*\
| =========                 |                                                 |
| \\      /  F ield         | foam-extend: Open Source CFD                    |
|  \\    /   O peration     | Version:     4.0                                |
|   \\  /    A nd           | Web:         http://www.foam-extend.org         |
|    \\/     M anipulation  |                                                 |
\*---------------------------------------------------------------------------*/
FoamFile
{
    version     2.0;
    format      ascii;
    class       volScalarField;
    location    "1e-09";
    object      Phi;
}
// * * * * * * * * * * * * * * * * * * * * * * * * * * * * * * * * * * * * * //

dimensions      [0 0 0 1 0 0 0];

internalField   nonuniform List<scalar> 2(3.09023091536181 3.08419045427955);

boundaryField
{
    electrode
    {
        type            plasmaPotential;
        model           sinFrequencyModulated;
        amplitude       nonuniform 0();
        frequency       1000000;
        bias            0;
        value           nonuniform 0();
    }
    plasma_1
    {
        type            coupledPotential;
        surfaceCharge   false;
        remoteField     Phi;
        value           uniform 3.08117014534654;
    }
    otherfaces
    {
        type            empty;
    }
    procBoundary0to1
    {
        type            processor;
        value           uniform 3.09627126533153;
    }
}


// ************************************************************************* //
