/*--------------------------------*- C++ -*----------------------------------*\
| =========                 |                                                 |
| \\      /  F ield         | foam-extend: Open Source CFD                    |
|  \\    /   O peration     | Version:     4.0                                |
|   \\  /    A nd           | Web:         http://www.foam-extend.org         |
|    \\/     M anipulation  |                                                 |
\*---------------------------------------------------------------------------*/
FoamFile
{
    version     2.0;
    format      ascii;
    class       volVectorField;
    location    "1e-09";
    object      E;
}
// * * * * * * * * * * * * * * * * * * * * * * * * * * * * * * * * * * * * * //

dimensions      [0 0 0 1 0 0 0];

internalField   nonuniform List<vector> 
252
(
(-0 15101.7655567682 -0)
(-0 15101.9776682509 -0)
(-0 15101.9675746688 -0)
(-0 15101.976195608 -0)
(-0 15101.9634007915 -0)
(-0 15101.9349532661 -0)
(-0 15101.9327156664 -0)
(-0 15101.9462829505 -0)
(-0 15101.9498581773 -0)
(-0 15101.9402271314 -0)
(-0 15101.9462491055 -0)
(-0 15101.9646610475 -0)
(-0 15101.9626755659 -0)
(-0 15101.9614051852 -0)
(-0 15101.9672246258 -0)
(-0 15101.9558085209 -0)
(-0 15101.9312373887 -0)
(-0 15101.9391441039 -0)
(-0 15101.9510245615 -0)
(-0 15101.9357811184 -0)
(-0 15101.9405253962 -0)
(-0 15101.9433834309 -0)
(-0 15101.9282940089 -0)
(-0 15101.93094862 -0)
(-0 15101.9307478037 -0)
(-0 15101.9217798027 -0)
(-0 15101.9308594466 -0)
(-0 15101.9302492686 -0)
(-0 15101.9125114457 -0)
(-0 15101.8996680374 -0)
(-0 15101.9056874671 -0)
(-0 15101.9122174459 -0)
(-0 15101.9054912764 -0)
(-0 15101.8998836404 -0)
(-0 15101.9056974529 -0)
(-0 15101.9113125103 -0)
(-0 15101.8985729065 -0)
(-0 15101.9005143077 -0)
(-0 15101.8912398329 -0)
(-0 15101.8821720657 -0)
(-0 15101.9016532907 -0)
(-0 15101.9121607229 -0)
(-0 15101.9121705414 -0)
(-0 15101.9023871902 -0)
(-0 15101.8910716605 -0)
(-0 15101.8905642431 -0)
(-0 15101.8960749881 -0)
(-0 15101.8906726617 -0)
(-0 15101.8941382722 -0)
(-0 15101.9112744599 -0)
(-0 15101.9128085112 -0)
(-0 15101.9059800574 -0)
(-0 15101.9028227537 -0)
(-0 15101.9174088381 -0)
(-0 15101.9365849344 -0)
(-0 15101.9432164811 -0)
(-0 15101.9490350118 -0)
(-0 15101.9571989783 -0)
(-0 15101.9595482905 -0)
(-0 15101.9557822 -0)
(-0 15101.951604253 -0)
(-0 15101.9610893891 -0)
(-0 15101.9698639689 -0)
(-0 15101.9703771253 -0)
(-0 15101.9701785837 -0)
(-0 15101.9708970909 -0)
(-0 15101.9679414705 -0)
(-0 15101.963867773 -0)
(-0 15101.9678526246 -0)
(-0 15101.9755065815 -0)
(-0 15101.9777502592 -0)
(-0 15101.9773411291 -0)
(-0 15101.9739784148 -0)
(-0 15101.9653151058 -0)
(-0 15101.9554296522 -0)
(-0 15101.939931972 -0)
(-0 15101.9475827589 -0)
(-0 15101.9620708555 -0)
(-0 15101.9673840979 -0)
(-0 15101.9618815173 -0)
(-0 15101.9431156641 -0)
(-0 15101.9408728933 -0)
(-0 15101.9525017636 -0)
(-0 15101.95312118 -0)
(-0 15101.9402798823 -0)
(-0 15101.9313069529 -0)
(-0 15101.936408037 -0)
(-0 15101.9402851746 -0)
(-0 15101.9362062117 -0)
(-0 15101.9347809675 -0)
(-0 15101.9266192478 -0)
(-0 15101.9125483562 -0)
(-0 15101.9164348013 -0)
(-0 15101.9243919846 -0)
(-0 15101.9252002043 -0)
(-0 15101.9333545759 -0)
(-0 15101.9366208521 -0)
(-0 15101.9329519061 -0)
(-0 15101.9258141923 -0)
(-0 15101.9205146596 -0)
(-0 15101.9235805851 -0)
(-0 15101.9303151567 -0)
(-0 15101.9362310534 -0)
(-0 15101.9372470693 -0)
(-0 15101.9452014929 -0)
(-0 15101.9545915992 -0)
(-0 15101.9564272092 -0)
(-0 15101.9674419557 -0)
(-0 15101.9678619038 -0)
(-0 15101.9519625299 -0)
(-0 15101.9472713385 -0)
(-0 15101.9450216706 -0)
(-0 15101.9303335153 -0)
(-0 15101.9213571383 -0)
(-0 15101.9225798336 -0)
(-0 15101.9148373749 -0)
(-0 15101.9156539365 -0)
(-0 15101.9309456967 -0)
(-0 15101.9366594189 -0)
(-0 15101.9429823625 -0)
(-0 15101.9609305292 -0)
(-0 15101.9633772036 -0)
(-0 15101.9495091267 -0)
(-0 15101.944418125 -0)
(-0 15101.9444173785 -0)
(-0 15101.9440004466 -0)
(-0 15101.9460350327 -0)
(-0 15101.9462477691 -0)
(-0 15101.9440112642 -0)
(-0 15101.938715818 -0)
(-0 15101.9323990133 -0)
(-0 15101.9383157635 -0)
(-0 15101.9501483028 -0)
(-0 15101.9489208657 -0)
(-0 15101.9474944278 -0)
(-0 15101.9591266283 -0)
(-0 15101.9630089612 -0)
(-0 15101.9630118294 -0)
(-0 15101.9660750449 -0)
(-0 15101.9611925322 -0)
(-0 15101.9510008014 -0)
(-0 15101.9522203753 -0)
(-0 15101.9528311223 -0)
(-0 15101.950586897 -0)
(-0 15101.9583327899 -0)
(-0 15101.9664962006 -0)
(-0 15101.9728277669 -0)
(-0 15101.972624833 -0)
(-0 15101.9703852052 -0)
(-0 15101.9738618368 -0)
(-0 15101.9765174957 -0)
(-0 15101.9740738168 -0)
(-0 15101.9704116535 -0)
(-0 15101.9683809943 -0)
(-0 15101.9704356185 -0)
(-0 15101.9714661533 -0)
(-0 15101.9633102768 -0)
(-0 15101.9586222581 -0)
(-0 15101.9645386001 -0)
(-0 15101.9653515383 -0)
(-0 15101.9618924723 -0)
(-0 15101.9614942043 -0)
(-0 15101.962105427 -0)
(-0 15101.9625135493 -0)
(-0 15101.9580281687 -0)
(-0 15101.9576230755 -0)
(-0 15101.964354981 -0)
(-0 15101.9604816266 -0)
(-0 15101.9555896272 -0)
(-0 15101.9568223366 -0)
(-0 15101.9611185937 -0)
(-0 15101.9705073843 -0)
(-0 15101.9815285226 -0)
(-0 15101.9843963859 -0)
(-0 15101.9837900576 -0)
(-0 15101.9917445352 -0)
(-0 15101.9982715317 -0)
(-0 15102.0015387447 -0)
(-0 15102.0101097447 -0)
(-0 15102.0170429134 -0)
(-0 15102.015408449 -0)
(-0 15102.0160233554 -0)
(-0 15102.0176609558 -0)
(-0 15102.0119544078 -0)
(-0 15102.008901557 -0)
(-0 15102.0113523882 -0)
(-0 15102.0127791613 -0)
(-0 15102.0109402511 -0)
(-0 15102.0040061185 -0)
(-0 15101.9974845648 -0)
(-0 15101.9999431099 -0)
(-0 15102.0072869649 -0)
(-0 15102.0097192228 -0)
(-0 15102.0101247255 -0)
(-0 15102.0085002685 -0)
(-0 15102.0093281855 -0)
(-0 15102.012609506 -0)
(-0 15102.0113971839 -0)
(-0 15102.0105837131 -0)
(-0 15102.0109896697 -0)
(-0 15102.0122215754 -0)
(-0 15102.0126493107 -0)
(-0 15102.0106214458 -0)
(-0 15102.0094014068 -0)
(-0 15102.0089991328 -0)
(-0 15102.0081929393 -0)
(-0 15102.0049361739 -0)
(-0 15102.003307268 -0)
(-0 15102.0024925002 -0)
(-0 15102.0020952087 -0)
(-0 15102.0045493109 -0)
(-0 15102.0053619702 -0)
(-0 15102.0057711598 -0)
(-0 15102.0074075432 -0)
(-0 15102.0045515972 -0)
(-0 15102.0037318484 -0)
(-0 15102.0074080377 -0)
(-0 15102.0078222479 -0)
(-0 15102.0086408147 -0)
(-0 15102.0074222106 -0)
(-0 15102.0041627815 -0)
(-0 15102.0045660828 -0)
(-0 15102.0062033601 -0)
(-0 15102.0033506289 -0)
(-0 15102.0013047365 -0)
(-0 15102.002530822 -0)
(-0 15102.0033525695 -0)
(-0 15102.0037690783 -0)
(-0 15102.0021375816 -0)
(-0 15102.0021334742 -0)
(-0 15102.0021383675 -0)
(-0 15102.0013291069 -0)
(-0 15102.0025588783 -0)
(-0 15102.0054269451 -0)
(-0 15102.0078870383 -0)
(-0 15102.0082999759 -0)
(-0 15102.009114556 -0)
(-0 15102.0086988696 -0)
(-0 15102.0070628516 -0)
(-0 15102.0066544249 -0)
(-0 15102.0066494403 -0)
(-0 15102.0062400866 -0)
(-0 15102.0066557809 -0)
(-0 15102.0074840177 -0)
(-0 15102.008310457 -0)
(-0 15102.0091359114 -0)
(-0 15102.0087359557 -0)
(-0 15102.0075130183 -0)
(-0 15102.0062959329 -0)
(-0 15102.0067042291 -0)
(-0 15102.0089159532 -0)
(-0 22653.4382871167 -0)
)
;

boundaryField
{
    dielectric_2
    {
        type            calculated;
        value           nonuniform 0();
    }
    dielectric_1
    {
        type            calculated;
        value           uniform (-0 15101.5371303753 -0);
    }
    otherfaces
    {
        type            empty;
    }
    procBoundary1to0
    {
        type            processor;
        value           uniform (-0 22653.7983654219 -0);
    }
}


// ************************************************************************* //
