/*--------------------------------*- C++ -*----------------------------------*\
| =========                 |                                                 |
| \\      /  F ield         | foam-extend: Open Source CFD                    |
|  \\    /   O peration     | Version:     4.0                                |
|   \\  /    A nd           | Web:         http://www.foam-extend.org         |
|    \\/     M anipulation  |                                                 |
\*---------------------------------------------------------------------------*/
FoamFile
{
    version     2.0;
    format      ascii;
    class       volScalarField;
    location    "1e-09";
    object      N_Arp1;
}
// * * * * * * * * * * * * * * * * * * * * * * * * * * * * * * * * * * * * * //

dimensions      [0 0 0 1 0 0 0];

internalField   nonuniform List<scalar> 
252
(
9676171418.57651
9948965315.45942
10008681255.2591
10020147008.4767
10022137970.4366
10022457150.9709
10022504985.0808
10022511740.5225
10022512609.2948
10022512569.3516
10022512470.2459
10022512561.7073
10022512823.588
10022512930.6906
10022512967.6703
10022513144.1036
10022513028.386
10022512731.2036
10022512696.1827
10022512742.8661
10022512834.0821
10022512938.0172
10022512807.5226
10022512611.1059
10022512561.2678
10022512576.4639
10022512655.0571
10022512774.0083
10022512860.6011
10022512755.3384
10022512639.8566
10022512679.609
10022512661.2368
10022512701.542
10022512715.6193
10022512558.9939
10022512535.1297
10022512869.4715
10022513164.6151
10022513024.4264
10022512754.9491
10022512709.6922
10022512841.0145
10022512756.398
10022512474.641
10022512411.8627
10022512478.8365
10022512478.7928
10022512512.5421
10022512633.5587
10022512697.3526
10022512664.8578
10022512653.4729
10022512633.091
10022512684.6722
10022512801.7853
10022512722.9995
10022512590.9302
10022512621.66
10022512787.2096
10022512901.0399
10022512745.5085
10022512611.248
10022512666.1154
10022512647.2366
10022512620.022
10022512724.0876
10022512826.6562
10022512724.7932
10022512644.3116
10022512782.9265
10022512904.0451
10022512914.5728
10022512873.5377
10022512899.4743
10022512879.6864
10022512768.3322
10022512786.8185
10022512838.7989
10022512736.1868
10022512619.9538
10022512618.1486
10022512694.1138
10022512849.4266
10022512857.301
10022512665.8401
10022512564.7338
10022512604.329
10022512730.7522
10022512941.7198
10022513018.32
10022512793.6834
10022512549.1815
10022512612.9676
10022512735.8571
10022512650.3302
10022512592.8711
10022512731.8532
10022512847.0022
10022512831.3149
10022512818.1291
10022512848.0049
10022512869.2852
10022512802.6083
10022512715.3298
10022512789.0499
10022512852.5531
10022512774.6505
10022512771.307
10022512788.3454
10022512770.5909
10022512831.9803
10022512859.2574
10022512804.4195
10022512766.9943
10022512739.5365
10022512671.64
10022512654.7276
10022512734.1642
10022512771.427
10022512793.2419
10022512921.3289
10022512995.4936
10022512915.0479
10022512802.3584
10022512750.3825
10022512739.1594
10022512739.7806
10022512780.5121
10022512850.423
10022512879.4657
10022512863.2399
10022512860.4779
10022512793.0851
10022512630.2978
10022512598.4864
10022512684.1754
10022512660.9153
10022512632.4453
10022512661.6646
10022512633.5717
10022512618.4907
10022512676.5744
10022512732.285
10022512739.7391
10022512734.7666
10022512731.2061
10022512661.5554
10022512617.1169
10022512682.598
10022512748.7531
10022512846.8642
10022512892.2226
10022512826.5067
10022512775.8931
10022512768.6316
10022512807.9719
10022512868.9828
10022512858.6493
10022512743.507
10022512690.9417
10022512774.0375
10022512843.6993
10022512819.6338
10022512713.0425
10022512634.7691
10022512665.9832
10022512670.4959
10022512632.2792
10022512668.2494
10022512730.827
10022512767.6815
10022512761.7289
10022512726.8143
10022512704.0779
10022512697.7922
10022512725.4818
10022512736.3072
10022512735.1771
10022512761.8268
10022512743.4297
10022512698.0627
10022512723.7441
10022512760.3737
10022512735.4011
10022512714.4154
10022512740.2364
10022512775.3533
10022512758.8677
10022512713.2574
10022512689.7032
10022512692.442
10022512719.1421
10022512765.0429
10022512805.6039
10022512786.3632
10022512738.0097
10022512712.2838
10022512694.1918
10022512710.6737
10022512761.8685
10022512784.0945
10022512784.1538
10022512775.5273
10022512743.0302
10022512735.168
10022512764.0833
10022512783.6576
10022512781.4109
10022512765.5915
10022512748.1689
10022512761.397
10022512785.7012
10022512776.7558
10022512767.7631
10022512776.1771
10022512769.1241
10022512742.642
10022512737.9259
10022512748.38
10022512751.6469
10022512758.4619
10022512761.9893
10022512760.1047
10022512752.7456
10022512748.8627
10022512756.7537
10022512770.3596
10022512772.4142
10022512757.7629
10022512745.8378
10022512738.9677
10022512728.8036
10022512729.1916
10022512737.9711
10022512738.6591
10022512732.2232
10022512726.3492
10022512725.2523
10022512733.8032
10022512748.1827
10022512748.2515
10022512723.7948
10022512562.9497
10022511354.0388
10022502528.0283
10022440942.1498
10022037195.617
10019584987.6783
10006037775.3765
9939696138.81653
9950871097.40869
)
;

boundaryField
{
    dielectric_2
    {
        type            driftDiffusionPositiveIonDensity;
        seec            0;
        value           nonuniform 0();
    }
    dielectric_1
    {
        type            driftDiffusionPositiveIonDensity;
        seec            0;
        value           uniform 9154929751.52225;
    }
    otherfaces
    {
        type            empty;
    }
    procBoundary1to0
    {
        type            processor;
        value           uniform 10089934755.9151;
    }
}


// ************************************************************************* //
