/*--------------------------------*- C++ -*----------------------------------*\
| =========                 |                                                 |
| \\      /  F ield         | foam-extend: Open Source CFD                    |
|  \\    /   O peration     | Version:     4.0                                |
|   \\  /    A nd           | Web:         http://www.foam-extend.org         |
|    \\/     M anipulation  |                                                 |
\*---------------------------------------------------------------------------*/
FoamFile
{
    version     2.0;
    format      ascii;
    class       volScalarField;
    location    "1e-09";
    object      N_electron;
}
// * * * * * * * * * * * * * * * * * * * * * * * * * * * * * * * * * * * * * //

dimensions      [0 0 0 1 0 0 0];

internalField   nonuniform List<scalar> 
252
(
9007934775.65882
9007944623.37491
9007964502.11936
9007994323.25977
9008033806.05293
9008082701.55075
9008140718.54635
9008207538.34715
9008282877.96189
9008366483.03712
9008458076.27121
9008557360.89853
9008664080.1804
9008777995.70632
9008898846.692
9009026388.04902
9009160393.83584
9009300592.14039
9009446697.26781
9009598483.05541
9009755712.59259
9009918129.13846
9010085512.35117
9010257622.42482
9010434205.45643
9010615036.26617
9010799876.63302
9010988495.33956
9011180696.35123
9011376270.69592
9011574975.91628
9011776575.07072
9011980864.50395
9012187642.08098
9012396685.59233
9012607775.11743
9012820718.7148
9013035315.91163
9013251367.05826
9013468687.82432
9013687054.34142
9013906249.11024
9014126091.68029
9014346404.90048
9014567003.59834
9014787686.84015
9015008253.60571
9015228527.95402
9015448331.71394
9015667463.42816
9015885745.196
9016103021.39448
9016319120.70932
9016533851.09949
9016747022.54255
9016958474.19113
9017168050.54346
9017375581.02734
9017580901.03708
9017783858.04758
9017984298.13305
9018182049.77942
9018376939.4714
9018568814.78926
9018757528.21108
9018942927.20583
9019124864.64804
9019303196.53913
9019477767.66581
9019648418.11617
9019815003.02859
9019977386.1054
9020135431.22711
9020289003.87578
9020437967.90664
9020582190.33564
9020721517.13431
9020855784.26501
9020984859.25453
9021108624.9306
9021226966.63731
9021339746.89331
9021446808.45519
9021548023.3945
9021643289.87367
9021732490.95498
9021815483.30137
9021892130.2001
9021962318.44562
9022025935.47845
9022082866.08044
9022133000.32824
9022176207.42371
9022212347.89996
9022241310.58109
9022262983.33786
9022277249.77266
9022284006.80975
9022283149.12493
9022274574.66433
9022258174.51566
9022233822.9168
9022201410.20956
9022160835.63593
9022111991.39896
9022054764.97158
9021989059.822
9021914773.07809
9021831803.60761
9021740074.64931
9021639491.19211
9021529942.70266
9021411342.50153
9021283600.92163
9021146606.86358
9021000264.20687
9020844480.26781
9020679140.80729
9020504148.44007
9020319420.80241
9020124858.2277
9019920377.26136
9019705920.83403
9019481408.88856
9019246740.88486
9019001824.53332
9018746570.25322
9018480891.44353
9018204708.94684
9017917947.11502
9017620529.31435
9017312363.87505
9016993352.3263
9016663417.41099
9016322481.75593
9015970437.22748
9015607184.12889
9015232646.67962
9014846744.23757
9014449402.39071
9014040556.3198
9013620125.37939
9013188027.20718
9012744194.53841
9012288550.3397
9011821013.81872
9011341514.2924
9010849987.61275
9010346370.68444
9009830590.57455
9009302575.37212
9008762264.70793
9008209599.96379
9007644515.40897
9007066938.75541
9006476800.86542
9005874046.6975
9005258618.07662
9004630438.08482
9003989437.42866
9003335560.94203
9002668747.84344
9001988935.18674
9001296063.52712
9000590077.0559
8999870914.24827
8999138503.13877
8998392788.02314
8997633722.20881
8996861243.92599
8996075288.91449
8995275794.79617
8994462700.17781
8993635955.14214
8992795514.32134
8991941317.64325
8991073304.58266
8990191427.09665
8989295631.10017
8988385861.19897
8987462075.42101
8986524227.5919
8985572262.51451
8984606135.26299
8983625800.23221
8982631199.83111
8981622280.56781
8980598997.83524
8979561310.755
8978509174.87819
8977442532.96011
8976361324.384
8975265502.75464
8974155029.31275
8973029863.16492
8971889958.75167
8970735265.38214
8969565738.96514
8968381338.03067
8967182016.4947
8965967729.04446
8964738433.21531
8963494089.67241
8962234657.24844
8960960091.71018
8959670350.41596
8958365394.5592
8957045184.0149
8955709675.6787
8954358827.4771
8952992595.5445
8951610938.58704
8950213819.32683
8948801198.23892
8947373039.63541
8945929307.13228
8944469956.12062
8942994947.33919
8941504245.49822
8939997814.4144
8938475620.71571
8936937626.2511
8935383790.49241
8933814080.92136
8932228465.18546
8930626903.48444
8929009357.67611
8927375793.69771
8925726179.36026
8924059586.7049
8922373673.03509
8920666998.94585
8918939539.29979
8917191262.68959
8915422138.88886
8913632144.12557
8911821258.06674
8909989462.53102
8908136742.04554
8906263079.12124
8904368455.07399
8902452852.05571
8900516251.97827
8898558606.42079
8896579776.49593
8894578907.22147
8892554301.56359
8890487171.71201
8888337025.99215
8885676282.50874
8881493233.57939
8866331812.16623
)
;

boundaryField
{
    dielectric_2
    {
        type            driftDiffusionElectronDensity;
        seec            0.05;
        Edepend         1;
        field_emission  0;
        field_enhancement_factor 1;
        work_function   1;
        value           nonuniform 0();
    }
    dielectric_1
    {
        type            driftDiffusionElectronDensity;
        seec            0.05;
        Edepend         1;
        field_emission  0;
        field_enhancement_factor 1;
        work_function   1;
        value           uniform 9007934775.65882;
    }
    otherfaces
    {
        type            empty;
    }
    procBoundary1to0
    {
        type            processor;
        value           uniform 8841351995.80322;
    }
}


// ************************************************************************* //
