/*--------------------------------*- C++ -*----------------------------------*\
| =========                 |                                                 |
| \\      /  F ield         | foam-extend: Open Source CFD                    |
|  \\    /   O peration     | Version:     4.0                                |
|   \\  /    A nd           | Web:         http://www.foam-extend.org         |
|    \\/     M anipulation  |                                                 |
\*---------------------------------------------------------------------------*/
FoamFile
{
    version     2.0;
    format      ascii;
    class       volScalarField;
    location    "1e-09";
    object      Phi;
}
// * * * * * * * * * * * * * * * * * * * * * * * * * * * * * * * * * * * * * //

dimensions      [0 0 0 1 0 0 0];

internalField   nonuniform List<scalar> 
252
(
3.0796599916335
3.07663959283687
3.0736192005662
3.070598805807
3.06757841008796
3.06455802044668
3.06153763610665
3.05851724736042
3.05549685759347
3.05247646741715
3.04945608150262
3.04643568891751
3.0434152956382
3.04039490384728
3.03737451107613
3.03435411695743
3.03133372875272
3.02831334446247
3.02529295309507
3.02227256405265
3.01925217878263
3.01623178784249
3.01321140142925
3.01019101652489
3.00717062904981
3.00415024422577
3.00112986033788
2.99810947188199
2.99508908823818
2.99206870687741
2.98904832837096
2.98602794460242
2.98300756348398
2.97998718240591
2.97696680353053
2.97394642012693
2.97092603900552
2.96790566069777
2.9648852787998
2.96186490420184
2.95884452593097
2.95582414354052
2.95280376106669
2.9497833786723
2.94676300011181
2.94374262224364
2.94072224388611
2.93770186381364
2.93468148761705
2.93166110615833
2.92864072310726
2.92562034103493
2.92259996071524
2.91957957990583
2.91655919375171
2.91353880527185
2.91051841646511
2.90749802565785
2.90447763358552
2.90145724183853
2.89843685127264
2.89541646119683
2.89239606683689
2.88937567325124
2.88635527868604
2.88333488517981
2.8803144903272
2.87729409800322
2.87427370478009
2.87125331086217
2.86823291457746
2.86521251976207
2.86219212364101
2.8591717301707
2.85615133751496
2.85313094799884
2.85011056154218
2.84709016896574
2.84406977671383
2.8410493820121
2.83802899196123
2.83500860476583
2.83198821561207
2.82896782376513
2.8259474343636
2.82292704765317
2.81990666184082
2.81688627308996
2.81386588572675
2.81084549860747
2.80782511181436
2.80480472795977
2.80178434679502
2.79876396138585
2.79574357703822
2.79272319130577
2.78970280369639
2.78668241665743
2.78366203051563
2.78064164633176
2.77762126230977
2.77460087689952
2.7715804901837
2.7685601024071
2.76553971528488
2.7625193243265
2.75949893344824
2.75647854175562
2.75345814647145
2.75043775461086
2.74741736568644
2.74439697570232
2.74137658767777
2.73835620356892
2.73533581913492
2.73231543453698
2.72929505319997
2.72627466827541
2.72325428082169
2.72023389361164
2.71721350362874
2.71419310923943
2.71117271827786
2.70815232943578
2.70513194051061
2.70211155166883
2.69909116291043
2.69607077325482
2.69305038441133
2.69002999565031
2.687009608925
2.68398922269071
2.68096883359869
2.67794844263138
2.67492805403035
2.67190766363361
2.66888727037969
2.66586687843003
2.66284648517496
2.65982609200001
2.65680570069795
2.65378531159969
2.6507649198098
2.64774453046724
2.64472413957504
2.64170374713412
2.63868335297656
2.63566295800302
2.63264256392663
2.62962216984894
2.62660177438189
2.62358137924194
2.62056098475237
2.61754059107728
2.61452019739997
2.61149980290303
2.60847940881351
2.60545901757892
2.6024386253646
2.59941823176348
2.59639783922399
2.59337744700649
2.59035705462631
2.58733666216432
2.58431626962089
2.58129587895305
2.57827548657166
2.57525509321106
2.57223470237901
2.56921431097521
2.56619391965007
2.56317352652777
2.56015313144712
2.55713273391636
2.55411233768856
2.55109194040034
2.54807154099075
2.54505114109173
2.54203074037525
2.53901033704783
2.53598993355809
2.53296953088445
2.52994912714874
2.52692872382007
2.52390832236698
2.52088792025945
2.51786751782602
2.51484711514778
2.51182671344992
2.50880631354533
2.5057859144561
2.50276551356809
2.49974511154131
2.4967247096804
2.49370430749142
2.49068390628029
2.48766350376015
2.48464310123649
2.48162269920127
2.478602297003
2.47558189480541
2.47256149211437
2.46954108974568
2.4665206878658
2.46350028598512
2.46047988426614
2.45745948270794
2.45443908229167
2.45141868138504
2.44839828129467
2.44537788054695
2.44235747947495
2.43933707840217
2.43631667716649
2.43329627543915
2.43027587534585
2.42725547394641
2.42423507238263
2.42121467081751
2.4181942689263
2.41517386784863
2.41215346726119
2.40913306602219
2.40611266477985
2.40309226468194
2.40007186425795
2.39705146366961
2.39403106291692
2.39101066216198
2.38799026206189
2.38496986130859
2.38194946120655
2.37892906077695
2.37590866018299
2.37288825860617
2.36986785702818
2.36684745528618
2.36382705338236
2.36080665180663
2.35778625055721
2.35476584914486
2.35174544789744
2.34872504664883
2.34570464523513
2.34268424365522
2.33966384191094
2.33664344000086
2.33362303841656
2.33060263699565
2.32758223589819
2.32456183431396
2.32154143233181
)
;

boundaryField
{
    dielectric_2
    {
        type            coupledPotential;
        surfaceCharge   true;
        remoteField     Phi;
        value           nonuniform 0();
    }
    dielectric_1
    {
        type            coupledPotential;
        surfaceCharge   true;
        remoteField     Phi;
        value           uniform 3.08117014534654;
    }
    otherfaces
    {
        type            empty;
    }
    procBoundary1to0
    {
        type            processor;
        value           uniform 2.31852094566546;
    }
}


// ************************************************************************* //
