/*--------------------------------*- C++ -*----------------------------------*\
| =========                 |                                                 |
| \\      /  F ield         | foam-extend: Open Source CFD                    |
|  \\    /   O peration     | Version:     4.0                                |
|   \\  /    A nd           | Web:         http://www.foam-extend.org         |
|    \\/     M anipulation  |                                                 |
\*---------------------------------------------------------------------------*/
FoamFile
{
    version     2.0;
    format      ascii;
    class       volScalarField;
    location    "1e-09";
    object      Te;
}
// * * * * * * * * * * * * * * * * * * * * * * * * * * * * * * * * * * * * * //

dimensions      [0 0 0 1 0 0 0];

internalField   nonuniform List<scalar> 
252
(
9139.42784435834
9139.39606111479
9139.33279345994
9139.23818841
9139.11232590467
9138.95535145484
9138.76738307691
9138.54852258279
9138.29889195836
9138.01862700465
9137.70784676871
9137.36665305249
9136.99516963845
9136.59352531536
9136.16182744333
9135.70019310408
9135.20875570463
9134.68761971388
9134.13687806961
9133.55666234877
9132.94708776583
9132.30825064791
9131.640276149
9130.94327352861
9130.21734107602
9129.46259769892
9128.67914495229
9127.86708234804
9127.02653056587
9126.15760135345
9125.26038753533
9124.33498416014
9123.38150327875
9122.40005436058
9121.39073249515
9120.35363162915
9119.28886387377
9118.19652792246
9117.076717999
9115.92954481004
9114.75509195989
9113.553447747
9112.32472009575
9111.06901096253
9109.78641959232
9108.47703666829
9107.14094862604
9105.77825551433
9104.38905484339
9102.97342484137
9101.53145698994
9100.06325425793
9098.56890922947
9097.04850319518
9095.50211563871
9093.9298412146
9092.33177438409
9090.70799848768
9089.05860034886
9087.38367131173
9085.68330115462
9083.95756884541
9082.20655212729
9080.43034048434
9078.62902118577
9076.80267554111
9074.95138757103
9073.07524265249
9071.17431915313
9069.24869186963
9067.298442711
9065.32365537615
9063.32440921792
9061.3007853469
9059.25286271972
9057.18072491388
9055.08444394938
9052.96408310802
9050.8197224827
9048.65144434437
9046.45933432206
9044.24346650343
9042.0038996694
9039.74070778365
9037.45397715326
9035.14378516887
9032.81019517405
9030.45327399236
9028.07310006995
9025.66974504079
9023.24327870509
9020.79377966374
9018.32131199133
9015.82593490914
9013.30772470401
9010.7667506553
9008.20307725389
9005.61677775573
9003.00792410385
9000.37658253918
8997.72281332397
8995.0466790371
8992.34824628326
8989.62758481243
8986.88475918821
8984.119828716
8981.33286304909
8978.52392404077
8975.69307138557
8972.8403820503
8969.96591938797
8967.06973568232
8964.15190018682
8961.21247940921
8958.25152476065
8955.26909967404
8952.26527004019
8949.24008439902
8946.19360214678
8943.12589061786
8940.03699985223
8936.92698748063
8933.79592778387
8930.64388001039
8927.47089423498
8924.27702875102
8921.06234065757
8917.8268860981
8914.57072346736
8911.29391101224
8907.99650824153
8904.67856714199
8901.34013431759
8897.98127141753
8894.60204588729
8891.20251087664
8887.7827263047
8884.34275998067
8880.88266593268
8877.40249842987
8873.90231809161
8870.38217385537
8866.8421128456
8863.28219266215
8859.70246250334
8856.10296915403
8852.48376490847
8848.84490364311
8845.186440223
8841.50842237604
8837.81089714983
8834.09391742413
8830.35753559841
8826.6018007859
8822.82675944126
8819.03245791239
8815.21895009145
8811.38628844137
8807.53451305443
8803.6636694684
8799.77381138894
8795.86498608875
8791.93723873499
8787.99061591822
8784.02516721973
8780.04094051039
8776.03797489458
8772.01631833354
8767.97602347163
8763.91713243892
8759.83968769766
8755.74373257436
8751.62930829625
8747.49646191137
8743.34524371146
8739.17569413074
8734.98785315953
8730.7817688377
8726.55748331797
8722.31503632442
8718.05447611477
8713.77584765052
8709.47918931121
8705.1645466991
8700.83196493858
8696.48148138252
8692.11313601156
8687.72697206405
8683.32303382192
8678.90136514095
8674.46200339011
8670.00498323595
8665.53034640291
8661.03813633041
8656.52839424032
8652.0011599217
8647.45646991792
8642.89436499778
8638.31488675303
8633.71807306023
8629.10396203065
8624.47259218085
8619.82400355879
8615.15823509697
8610.47532380156
8605.77530729152
8601.05822502481
8596.32411504167
8591.57301343052
8586.80495769168
8582.01998344737
8577.21812714908
8572.39942711623
8567.56391853114
8562.71163932121
8557.84262768524
8552.95691580353
8548.05453964872
8543.1355365475
8538.19994163883
8533.24779247398
8528.27912348274
8523.2939667605
8518.29235931501
8513.27433805726
8508.23993499215
8503.18918345286
8498.12211824285
8493.03894452422
8487.93977425002
8482.8241482375
8477.69197373728
8472.54355983044
8467.37894487043
8462.19816861552
8457.00127193711
8451.78829387836
8446.55927224732
8441.31424586709
8436.05325193694
8430.77632712836
8425.48350891606
8420.17484128112
8414.85037023496
8409.51025890911
8404.15458553542
8398.78724579559
8393.40874715189
8388.10071524913
8382.89230170549
8379.55214634294
8379.14033626352
)
;

boundaryField
{
    dielectric_2
    {
        type            electronTemperature;
        seec            0.05;
        Tse             1000;
        Edepend         1;
        TFN             1000;
        field_emission  0;
        field_enhancement_factor 1;
        work_function   1;
        value           nonuniform 0();
    }
    dielectric_1
    {
        type            electronTemperature;
        seec            0.05;
        Tse             1000;
        Edepend         1;
        TFN             1000;
        field_emission  0;
        field_enhancement_factor 1;
        work_function   1;
        value           uniform 9139.42784435834;
    }
    otherfaces
    {
        type            empty;
    }
    procBoundary1to0
    {
        type            processor;
        value           uniform 8379.83400379642;
    }
}


// ************************************************************************* //
