/*--------------------------------*- C++ -*----------------------------------*\
| =========                 |                                                 |
| \\      /  F ield         | foam-extend: Open Source CFD                    |
|  \\    /   O peration     | Version:     4.0                                |
|   \\  /    A nd           | Web:         http://www.foam-extend.org         |
|    \\/     M anipulation  |                                                 |
\*---------------------------------------------------------------------------*/
FoamFile
{
    version     2.0;
    format      ascii;
    class       volScalarField;
    location    "6.7e-06";
    object      Ar;
}
// * * * * * * * * * * * * * * * * * * * * * * * * * * * * * * * * * * * * * //

dimensions      [0 0 0 1 0 0 0];

internalField   nonuniform List<scalar> 
300
(
3.21880249205584e+22
3.21880248777255e+22
3.21880249063051e+22
3.21880249174206e+22
3.21880249365674e+22
3.21880249631682e+22
3.21880249955944e+22
3.21880250344882e+22
3.21880250797276e+22
3.21880251312801e+22
3.21880251891503e+22
3.21880252533266e+22
3.21880253238041e+22
3.21880254005793e+22
3.21880254836504e+22
3.21880255730167e+22
3.21880256686819e+22
3.21880257706461e+22
3.21880258789104e+22
3.21880259934778e+22
3.21880261143523e+22
3.21880262415385e+22
3.21880263750416e+22
3.21880265148676e+22
3.21880266610388e+22
3.21880268135499e+22
3.21880269724098e+22
3.21880271376295e+22
3.21880273092091e+22
3.21880274871574e+22
3.21880276715027e+22
3.21880278622485e+22
3.21880280593917e+22
3.21880282629428e+22
3.21880284729127e+22
3.21880286893131e+22
3.21880289121608e+22
3.21880291414666e+22
3.21880293772412e+22
3.21880296194993e+22
3.2188029868256e+22
3.2188030123525e+22
3.21880303853219e+22
3.21880306536627e+22
3.21880309285642e+22
3.21880312100438e+22
3.21880314981215e+22
3.21880317928173e+22
3.21880320941606e+22
3.21880324021751e+22
3.21880327168957e+22
3.21880330383328e+22
3.21880333665151e+22
3.21880337014483e+22
3.21880340431481e+22
3.21880343916224e+22
3.21880347468924e+22
3.21880351089799e+22
3.21880354779074e+22
3.21880358536998e+22
3.21880362363785e+22
3.21880366259672e+22
3.21880370224953e+22
3.21880374260071e+22
3.21880378365252e+22
3.21880382540508e+22
3.21880386786086e+22
3.21880391102238e+22
3.21880395489222e+22
3.21880399947297e+22
3.21880404476746e+22
3.21880409077917e+22
3.218804137511e+22
3.218804184965e+22
3.21880423314529e+22
3.21880428205449e+22
3.21880433169474e+22
3.2188043820693e+22
3.21880443317931e+22
3.21880448503076e+22
3.21880453762159e+22
3.21880459095254e+22
3.21880464503037e+22
3.21880469985806e+22
3.21880475544029e+22
3.21880481177963e+22
3.21880486887822e+22
3.21880492673933e+22
3.21880498536737e+22
3.21880504476478e+22
3.21880510493533e+22
3.21880516588663e+22
3.21880522761622e+22
3.21880529012698e+22
3.21880535342188e+22
3.21880541750384e+22
3.21880548237576e+22
3.21880554804052e+22
3.21880561450199e+22
3.21880568176291e+22
3.21880574982531e+22
3.2188058186917e+22
3.21880588836781e+22
3.21880595885323e+22
3.21880603015134e+22
3.21880610226545e+22
3.21880617519642e+22
3.21880624894847e+22
3.21880632352279e+22
3.21880639892099e+22
3.21880647514536e+22
3.21880655219816e+22
3.21880663008216e+22
3.21880670879949e+22
3.21880678835224e+22
3.21880686874397e+22
3.21880694997832e+22
3.21880703205448e+22
3.218807114974e+22
3.21880719873925e+22
3.21880728335438e+22
3.21880736881956e+22
3.21880745513907e+22
3.21880754231324e+22
3.21880763034221e+22
3.21880771922745e+22
3.21880780897298e+22
3.21880789957819e+22
3.21880799104529e+22
3.21880808337554e+22
3.21880817657153e+22
3.21880827063463e+22
3.21880836556629e+22
3.21880846137003e+22
3.21880855805038e+22
3.2188086556063e+22
3.21880875403822e+22
3.21880885334941e+22
3.21880895354253e+22
3.21880905461739e+22
3.21880915657627e+22
3.21880925942148e+22
3.21880936315685e+22
3.21880946778613e+22
3.21880957331228e+22
3.21880967973375e+22
3.21880978705233e+22
3.2188098952698e+22
3.21881000438931e+22
3.21881011441584e+22
3.2188102253472e+22
3.21881033718465e+22
3.21881044993677e+22
3.2188105636001e+22
3.2188106781637e+22
3.21881079364329e+22
3.21881091002912e+22
3.21881102733781e+22
3.2188111455273e+22
3.21881126465525e+22
3.2188113846201e+22
3.21881150555244e+22
3.21881162723592e+22
3.21881174994523e+22
3.21881187338808e+22
3.21881199653963e+22
3.21881212032591e+22
3.21881224553076e+22
3.21881237151668e+22
3.21881249829401e+22
3.21881262497696e+22
3.21881275207432e+22
3.21881287880554e+22
3.21881300550475e+22
3.21881313385438e+22
3.21881326289449e+22
3.2188133879339e+22
3.21881351311029e+22
3.21881364080503e+22
3.21881376216258e+22
3.21881388071242e+22
3.2188140015261e+22
3.2188141126854e+22
3.21881422073207e+22
3.21881432617778e+22
3.21881442204523e+22
3.21881451089089e+22
3.21881459686429e+22
3.21881467041549e+22
3.21881473613857e+22
3.21881479817508e+22
3.21881485093392e+22
3.21881489393945e+22
3.21881493100156e+22
3.2188149613455e+22
3.2188149812855e+22
3.21881499398892e+22
3.21881500309498e+22
3.2188150109529e+22
3.21881501639726e+22
3.21881501850518e+22
3.21881501739722e+22
3.21881501756165e+22
3.21881501797611e+22
3.21881502352047e+22
3.21881503058865e+22
3.21881503893002e+22
3.21881504675818e+22
3.21881505377126e+22
3.21881505988949e+22
3.21881506524003e+22
3.21881506991717e+22
3.21881507391533e+22
3.21881507947073e+22
3.21881508481703e+22
3.21881508979446e+22
3.2188150942358e+22
3.21881509841498e+22
3.21881510214999e+22
3.21881510570875e+22
3.21881510888472e+22
3.2188151119714e+22
3.21881511474776e+22
3.21881511747107e+22
3.21881511988979e+22
3.21881512383025e+22
3.21881512745123e+22
3.2188151311049e+22
3.21881513441171e+22
3.2188151377788e+22
3.21881514080905e+22
3.21881514392078e+22
3.21881514669914e+22
3.21881514957751e+22
3.21881515212672e+22
3.2188151547909e+22
3.21881515712498e+22
3.21881515958759e+22
3.21881516171638e+22
3.21881516398677e+22
3.2188151659198e+22
3.21881516820429e+22
3.21881517100067e+22
3.21881517394181e+22
3.2188151765563e+22
3.21881517932441e+22
3.21881518176583e+22
3.21881518437061e+22
3.2188151866482e+22
3.21881518909837e+22
3.21881519122272e+22
3.21881519352806e+22
3.21881519550857e+22
3.21881519767834e+22
3.21881519952315e+22
3.21881520156528e+22
3.21881520328164e+22
3.21881520520299e+22
3.2188152067975e+22
3.21881520860322e+22
3.21881521007959e+22
3.21881521177377e+22
3.2188152131373e+22
3.21881521472473e+22
3.21881521598078e+22
3.21881521778992e+22
3.21881521961117e+22
3.21881522166973e+22
3.2188152233902e+22
3.21881522535513e+22
3.2188152269811e+22
3.21881522885866e+22
3.21881523039624e+22
3.21881523219267e+22
3.21881523364751e+22
3.21881523536806e+22
3.21881523674464e+22
3.21881523839261e+22
3.21881523969364e+22
3.21881524127153e+22
3.21881524250053e+22
3.21881524401531e+22
3.21881524519696e+22
3.21881524667877e+22
3.21881524780895e+22
3.21881524923257e+22
3.21881525030228e+22
3.21881525166837e+22
3.21881525267894e+22
3.21881525402833e+22
3.21881525503783e+22
3.21881525635332e+22
3.21881525730654e+22
3.21881525862711e+22
3.21881525960025e+22
3.21881526090969e+22
3.21881526191986e+22
3.21881526330642e+22
3.21881526440641e+22
3.21881526666368e+22
)
;

boundaryField
{
    electrode
    {
        type            zeroGradient;
    }
    ground
    {
        type            zeroGradient;
    }
    otherfaces
    {
        type            empty;
    }
}


// ************************************************************************* //
