/*--------------------------------*- C++ -*----------------------------------*\
| =========                 |                                                 |
| \\      /  F ield         | foam-extend: Open Source CFD                    |
|  \\    /   O peration     | Version:     4.0                                |
|   \\  /    A nd           | Web:         http://www.foam-extend.org         |
|    \\/     M anipulation  |                                                 |
\*---------------------------------------------------------------------------*/
FoamFile
{
    version     2.0;
    format      ascii;
    class       volScalarField;
    location    "6.7e-06";
    object      Arp1;
}
// * * * * * * * * * * * * * * * * * * * * * * * * * * * * * * * * * * * * * //

dimensions      [0 0 0 1 0 0 0];

internalField   nonuniform List<scalar> 
300
(
6.42364673109924e+16
6.42790545749464e+16
6.42528000502438e+16
6.4247681730604e+16
6.42379925657342e+16
6.42242814542075e+16
6.42081379898423e+16
6.41888894366134e+16
6.41666352841392e+16
6.41413887330308e+16
6.41131322656457e+16
6.40818665621572e+16
6.4047588071369e+16
6.40102929871168e+16
6.39699776446619e+16
6.3926638050315e+16
6.38802700152743e+16
6.38308691451172e+16
6.37784308321406e+16
6.37229502583326e+16
6.36644223938329e+16
6.36028419969005e+16
6.35382036134826e+16
6.34705015765239e+16
6.33997300059651e+16
6.3325882808596e+16
6.32489536773084e+16
6.31689360914685e+16
6.308582331683e+16
6.29996084052734e+16
6.29102841950225e+16
6.28178433112598e+16
6.27222781659354e+16
6.26235809583797e+16
6.25217436762305e+16
6.24167580955936e+16
6.23086157822169e+16
6.21973080926786e+16
6.20828261750044e+16
6.19651609703905e+16
6.18443032148456e+16
6.17202434403279e+16
6.15929719770379e+16
6.14624789555385e+16
6.13287543085892e+16
6.11917877739487e+16
6.10515688972142e+16
6.09080870341811e+16
6.07613313544271e+16
6.06112908447864e+16
6.04579543123617e+16
6.03013103889423e+16
6.01413475350338e+16
5.99780540438788e+16
5.98114180462817e+16
5.96414275156731e+16
5.94680702729177e+16
5.92913339917171e+16
5.91112062047057e+16
5.89276743088058e+16
5.87407255717096e+16
5.85503471385662e+16
5.83565260383253e+16
5.81592491908621e+16
5.79585034146747e+16
5.7754275433742e+16
5.75465518854757e+16
5.73353193292467e+16
5.71205642542833e+16
5.69022730905221e+16
5.6680432218521e+16
5.6455027967181e+16
5.6226046609105e+16
5.59934743766786e+16
5.57572975757499e+16
5.55175027799881e+16
5.5274076599902e+16
5.50270043059283e+16
5.47762685435934e+16
5.45218537936653e+16
5.42637601032502e+16
5.40019930369601e+16
5.37365044241743e+16
5.34672793540807e+16
5.31943029427203e+16
5.29175588855725e+16
5.26370308902099e+16
5.2352702805654e+16
5.20645586788418e+16
5.17725827754934e+16
5.1476759589908e+16
5.11770738519941e+16
5.08735105333482e+16
5.05660548532725e+16
5.02546922854551e+16
4.99394085638696e+16
4.96201896893105e+16
4.92970219360854e+16
4.89698918581829e+16
4.86387862959223e+16
4.83036923826931e+16
4.79645975512195e+16
4.76214895399275e+16
4.72743563997119e+16
4.69231864999839e+16
4.65679685347782e+16
4.62086915291995e+16
4.5845344845213e+16
4.54779181873345e+16
4.51064016087757e+16
4.47307855167243e+16
4.43510606777614e+16
4.39672182235557e+16
4.35792496558321e+16
4.31871468514774e+16
4.27909020679881e+16
4.23905079483338e+16
4.19859575260445e+16
4.15772442307964e+16
4.11643618934936e+16
4.07473047521474e+16
4.03260674580662e+16
3.9900645082283e+16
3.94710331229057e+16
3.90372275135053e+16
3.8599224632161e+16
3.81570213121563e+16
3.77106148545874e+16
3.72600030424937e+16
3.6805184158006e+16
3.63461570025013e+16
3.58829209201632e+16
3.54154758263151e+16
3.49438222411458e+16
3.44679613294865e+16
3.39878949488274e+16
3.35036257059482e+16
3.30151570259286e+16
3.25224932322457e+16
3.20256396409622e+16
3.1524602692681e+16
3.10193900650642e+16
3.05100108397678e+16
2.99964757751515e+16
2.94787974585274e+16
2.89569905022398e+16
2.8431072001202e+16
2.79010629234023e+16
2.7366985948931e+16
2.68288662557972e+16
2.62867415905571e+16
2.57406549910001e+16
2.51906161429117e+16
2.46366973093622e+16
2.4079066820092e+16
2.35176631047873e+16
2.29526785078046e+16
2.23840027337519e+16
2.18121355319784e+16
2.12366092814621e+16
2.06585444055773e+16
2.00767239592898e+16
1.94934308406437e+16
1.89059999821106e+16
1.83174937759421e+16
1.77384883417669e+16
1.71601982663661e+16
1.65752974434916e+16
1.59905811625722e+16
1.54062595578548e+16
1.48314761246112e+16
1.42615091639578e+16
1.37044768497309e+16
1.31571761073614e+16
1.26025431805372e+16
1.20493333353611e+16
1.15431173094344e+16
1.10407664374216e+16
1.05157753796916e+16
1.00531286325259e+16
9.61326396199897e+15
9.14018123638366e+15
8.74685131382066e+15
8.36112653722162e+15
7.97089478593486e+15
7.63896360181885e+15
7.3332701336196e+15
7.00683598740174e+15
6.75103353078822e+15
6.51758443265643e+15
6.26461666138115e+15
6.04924904447654e+15
5.87875872355698e+15
5.71438440795416e+15
5.54335671917604e+15
5.40135528806835e+15
5.2890359995153e+15
5.20493262475505e+15
5.12660566256915e+15
5.06646959937263e+15
5.03609012415187e+15
5.04273155849848e+15
5.05935910447325e+15
5.09441342131471e+15
5.08848695054746e+15
5.0658723395217e+15
5.02209474076679e+15
4.97340623535093e+15
4.92366556812746e+15
4.8759069184411e+15
4.83151341017352e+15
4.79109362847504e+15
4.75533526487801e+15
4.70273774923507e+15
4.65216455994534e+15
4.60497439865979e+15
4.56303227435404e+15
4.52383499066297e+15
4.48937971372602e+15
4.45709134364655e+15
4.42909821835443e+15
4.40274579195755e+15
4.38029659787033e+15
4.35904247088092e+15
4.34141186815069e+15
4.30897930410097e+15
4.28011000940998e+15
4.25125433408512e+15
4.2261625861585e+15
4.20071199519099e+15
4.17884477432454e+15
4.15633349238716e+15
4.137278708085e+15
4.11731633277912e+15
4.10070648663304e+15
4.08296092173732e+15
4.06851849089323e+15
4.05274872054237e+15
4.04026354847396e+15
4.02627801254991e+15
4.01556346667763e+15
4.00122459177104e+15
3.98162944889336e+15
3.96045173153331e+15
3.94238932614938e+15
3.92261591478024e+15
3.90594172611414e+15
3.88745349688148e+15
3.87205035528522e+15
3.85474003435672e+15
3.84049762722423e+15
3.82425789275057e+15
3.81108162483512e+15
3.79582254511666e+15
3.78363012204032e+15
3.76928272786248e+15
3.75801295704511e+15
3.74452844150319e+15
3.73413907274772e+15
3.72147239451501e+15
3.71192891302889e+15
3.70005019051378e+15
3.69131893627396e+15
3.68019879236281e+15
3.67224585345112e+15
3.65862002957684e+15
3.64473999294621e+15
3.62835764973582e+15
3.61523878108083e+15
3.59955298167266e+15
3.58714351038682e+15
3.57210117492959e+15
3.56035577894293e+15
3.54591404195638e+15
3.5347926935808e+15
3.52092090388596e+15
3.51039758837962e+15
3.4970696165064e+15
3.48711886116237e+15
3.47431420425429e+15
3.46491457291213e+15
3.45261425310014e+15
3.44374562108115e+15
3.43192838032836e+15
3.42355905454592e+15
3.41219673530511e+15
3.40430617878819e+15
3.39338219495164e+15
3.3859533310668e+15
3.3754483901273e+15
3.36846116292757e+15
3.35834016248836e+15
3.35176185654002e+15
3.34200734219554e+15
3.33580555773912e+15
3.3263664658301e+15
3.32050529755223e+15
3.3113217671796e+15
3.3057153947767e+15
3.28970484206787e+15
)
;

boundaryField
{
    electrode
    {
        type            driftDiffusionPositiveIonDensity;
        seec            0;
        fieldName       Arp1;
        value           uniform 6.40547547104558e+16;
    }
    ground
    {
        type            driftDiffusionPositiveIonDensity;
        seec            0;
        fieldName       Arp1;
        value           uniform 3.28970484206787e+15;
    }
    otherfaces
    {
        type            empty;
    }
}


// ************************************************************************* //
