/*--------------------------------*- C++ -*----------------------------------*\
| =========                 |                                                 |
| \\      /  F ield         | foam-extend: Open Source CFD                    |
|  \\    /   O peration     | Version:     4.0                                |
|   \\  /    A nd           | Web:         http://www.foam-extend.org         |
|    \\/     M anipulation  |                                                 |
\*---------------------------------------------------------------------------*/
FoamFile
{
    version     2.0;
    format      ascii;
    class       volVectorField;
    location    "6.7e-06";
    object      E;
}
// * * * * * * * * * * * * * * * * * * * * * * * * * * * * * * * * * * * * * //

dimensions      [0 0 0 1 0 0 0];

internalField   nonuniform List<vector> 
300
(
(5.40896587519769 -0 -0)
(10.7985245162423 -0 -0)
(19.0611504455318 -0 -0)
(26.6982011332131 -0 -0)
(34.2890898508134 -0 -0)
(41.9470536847104 -0 -0)
(49.5982652906629 -0 -0)
(57.2643303942121 -0 -0)
(64.9460285884203 -0 -0)
(72.6437245815455 -0 -0)
(80.3596355500298 -0 -0)
(88.0953532497739 -0 -0)
(95.852557761845 -0 -0)
(103.632966932941 -0 -0)
(111.438297419054 -0 -0)
(119.27028440717 -0 -0)
(127.130679179741 -0 -0)
(135.021249834945 -0 -0)
(142.943782760476 -0 -0)
(150.900083495384 -0 -0)
(158.891977829202 -0 -0)
(166.921312871883 -0 -0)
(174.98995808218 -0 -0)
(183.099806375099 -0 -0)
(191.252775225139 -0 -0)
(199.450807707165 -0 -0)
(207.695873687132 -0 -0)
(215.989970892008 -0 -0)
(224.335126121351 -0 -0)
(232.733396313136 -0 -0)
(241.186869809365 -0 -0)
(249.697667517539 -0 -0)
(258.267944131 -0 -0)
(266.899889389577 -0 -0)
(275.595729325118 -0 -0)
(284.357727548009 -0 -0)
(293.188186620304 -0 -0)
(302.089449347114 -0 -0)
(311.063900208829 -0 -0)
(320.113966738343 -0 -0)
(329.242121029017 -0 -0)
(338.450881179377 -0 -0)
(347.742812899266 -0 -0)
(357.120531038687 -0 -0)
(366.586701257311 -0 -0)
(376.144041751332 -0 -0)
(385.795324923865 -0 -0)
(395.543379262713 -0 -0)
(405.391091212778 -0 -0)
(415.341407088071 -0 -0)
(425.397335120137 -0 -0)
(435.561947546889 -0 -0)
(445.838382824492 -0 -0)
(456.229847863078 -0 -0)
(466.739620431967 -0 -0)
(477.371051629722 -0 -0)
(488.127568423805 -0 -0)
(499.012676430427 -0 -0)
(510.029962651103 -0 -0)
(521.183098495299 -0 -0)
(532.475842834942 -0 -0)
(543.912045244844 -0 -0)
(555.495649412547 -0 -0)
(567.230696708942 -0 -0)
(579.12132993681 -0 -0)
(591.171797231839 -0 -0)
(603.386456224444 -0 -0)
(615.769778325324 -0 -0)
(628.326353409372 -0 -0)
(641.06089494315 -0 -0)
(653.978245199065 -0 -0)
(667.083379322993 -0 -0)
(680.381407797203 -0 -0)
(693.877582358253 -0 -0)
(707.57731845818 -0 -0)
(721.48623517655 -0 -0)
(735.610141500007 -0 -0)
(749.954830678371 -0 -0)
(764.525795163359 -0 -0)
(779.32876877252 -0 -0)
(794.372044164803 -0 -0)
(809.667689977227 -0 -0)
(825.226938999505 -0 -0)
(841.057788335346 -0 -0)
(857.167601989256 -0 -0)
(873.563972783417 -0 -0)
(890.254764540731 -0 -0)
(907.248137786786 -0 -0)
(924.552570186012 -0 -0)
(942.176873328185 -0 -0)
(960.130209529217 -0 -0)
(978.422109352927 -0 -0)
(997.062490287845 -0 -0)
(1016.06167652461 -0 -0)
(1035.43042015826 -0 -0)
(1055.17992379522 -0 -0)
(1075.3218646854 -0 -0)
(1095.86842064168 -0 -0)
(1116.83229761389 -0 -0)
(1138.22675931613 -0 -0)
(1160.0656589295 -0 -0)
(1182.36347298336 -0 -0)
(1205.13533782712 -0 -0)
(1228.39708856906 -0 -0)
(1252.16530103429 -0 -0)
(1276.45733672977 -0 -0)
(1301.2913911548 -0 -0)
(1326.68654583014 -0 -0)
(1352.6628241918 -0 -0)
(1379.24125191674 -0 -0)
(1406.44392182545 -0 -0)
(1434.2940639846 -0 -0)
(1462.81612132923 -0 -0)
(1492.03583143118 -0 -0)
(1521.98031499477 -0 -0)
(1552.67817156354 -0 -0)
(1584.15958335395 -0 -0)
(1616.45642783606 -0 -0)
(1649.6024001233 -0 -0)
(1683.63314588266 -0 -0)
(1718.58640625624 -0 -0)
(1754.50217556847 -0 -0)
(1791.42287359698 -0 -0)
(1829.39353372568 -0 -0)
(1868.46200881764 -0 -0)
(1908.67919673148 -0 -0)
(1950.09928778428 -0 -0)
(1992.78003648152 -0 -0)
(2036.78306070647 -0 -0)
(2082.17417120177 -0 -0)
(2129.02373527098 -0 -0)
(2177.407078874 -0 -0)
(2227.40493179023 -0 -0)
(2279.10392145379 -0 -0)
(2332.59712161563 -0 -0)
(2387.98466315211 -0 -0)
(2445.37441526033 -0 -0)
(2504.88274675692 -0 -0)
(2566.63537832353 -0 -0)
(2630.76833861927 -0 -0)
(2697.42904047849 -0 -0)
(2766.77749188495 -0 -0)
(2838.98766208572 -0 -0)
(2914.24903680647 -0 -0)
(2992.76837752327 -0 -0)
(3074.77169957597 -0 -0)
(3160.50655925525 -0 -0)
(3250.24476634547 -0 -0)
(3344.28521247065 -0 -0)
(3442.95703116647 -0 -0)
(3546.62457115224 -0 -0)
(3655.69211208317 -0 -0)
(3770.60428805067 -0 -0)
(3891.85798283965 -0 -0)
(4020.02676918095 -0 -0)
(4155.75050725134 -0 -0)
(4299.73772665718 -0 -0)
(4452.77277191289 -0 -0)
(4615.75785861609 -0 -0)
(4789.69168026586 -0 -0)
(4975.74449516879 -0 -0)
(5175.202084407 -0 -0)
(5389.62262200737 -0 -0)
(5620.69753643361 -0 -0)
(5870.81978836649 -0 -0)
(6145.08750687355 -0 -0)
(6449.13007492734 -0 -0)
(6786.0154520574 -0 -0)
(7158.67424390327 -0 -0)
(7571.92403038335 -0 -0)
(8033.12962827296 -0 -0)
(8551.30693087726 -0 -0)
(9136.80894461348 -0 -0)
(9800.71601743809 -0 -0)
(10549.977775363 -0 -0)
(11390.567034263 -0 -0)
(12339.3813415472 -0 -0)
(13412.795612408 -0 -0)
(14612.5974964648 -0 -0)
(15951.1864602876 -0 -0)
(17448.0756973633 -0 -0)
(19100.6440486078 -0 -0)
(20915.1599377554 -0 -0)
(22903.2875146996 -0 -0)
(25053.9656921907 -0 -0)
(27363.3223007996 -0 -0)
(29831.2007888948 -0 -0)
(32433.9946415315 -0 -0)
(35156.4308495197 -0 -0)
(37992.605859154 -0 -0)
(40911.3263209981 -0 -0)
(43885.4192533685 -0 -0)
(46906.7821574221 -0 -0)
(49961.9590141726 -0 -0)
(53024.8398324369 -0 -0)
(56077.9138707552 -0 -0)
(59120.5312131237 -0 -0)
(62151.6427524054 -0 -0)
(65174.7967816543 -0 -0)
(68185.7036717293 -0 -0)
(71182.1713808352 -0 -0)
(74188.6568503566 -0 -0)
(77216.5807636252 -0 -0)
(80265.7863130293 -0 -0)
(83328.2532233624 -0 -0)
(86385.4178372459 -0 -0)
(89424.6570850189 -0 -0)
(92437.2563552886 -0 -0)
(95420.7809198328 -0 -0)
(98375.1861462442 -0 -0)
(101301.937756989 -0 -0)
(104203.186377578 -0 -0)
(107081.509144638 -0 -0)
(109933.212580245 -0 -0)
(112753.81700819 -0 -0)
(115544.947865246 -0 -0)
(118309.205447427 -0 -0)
(121048.996607311 -0 -0)
(123766.574101209 -0 -0)
(126464.021305662 -0 -0)
(129143.28822836 -0 -0)
(131806.163972933 -0 -0)
(134454.321893837 -0 -0)
(137089.301074355 -0 -0)
(139712.555160525 -0 -0)
(142320.714052598 -0 -0)
(144910.389395852 -0 -0)
(147482.660899916 -0 -0)
(150038.668824139 -0 -0)
(152579.441044244 -0 -0)
(155105.950903984 -0 -0)
(157619.085656915 -0 -0)
(160119.694217216 -0 -0)
(162608.545949437 -0 -0)
(165086.378776799 -0 -0)
(167553.861739692 -0 -0)
(170011.64889296 -0 -0)
(172460.336447054 -0 -0)
(174900.51488792 -0 -0)
(177332.722520403 -0 -0)
(179757.493546167 -0 -0)
(182174.721385445 -0 -0)
(184581.727826836 -0 -0)
(186976.450413786 -0 -0)
(189359.351295592 -0 -0)
(191730.853880155 -0 -0)
(194091.376680673 -0 -0)
(196441.307110169 -0 -0)
(198781.028291107 -0 -0)
(201110.895238647 -0 -0)
(203431.257770839 -0 -0)
(205742.438502477 -0 -0)
(208044.758692156 -0 -0)
(210338.513817824 -0 -0)
(212624.000253304 -0 -0)
(214901.492840234 -0 -0)
(217171.269295737 -0 -0)
(219433.589567154 -0 -0)
(221688.719102659 -0 -0)
(223936.904058918 -0 -0)
(226178.399311341 -0 -0)
(228413.442198879 -0 -0)
(230642.277399014 -0 -0)
(232865.133414975 -0 -0)
(235082.244701516 -0 -0)
(237292.855309203 -0 -0)
(239495.177480924 -0 -0)
(241688.379654246 -0 -0)
(243872.691163404 -0 -0)
(246048.321823786 -0 -0)
(248215.485362425 -0 -0)
(250374.375680767 -0 -0)
(252525.192815502 -0 -0)
(254668.11769806 -0 -0)
(256803.338382331 -0 -0)
(258931.026574256 -0 -0)
(261051.362459302 -0 -0)
(263164.509879158 -0 -0)
(265270.641345831 -0 -0)
(267369.914526678 -0 -0)
(269462.495473788 -0 -0)
(271548.536163234 -0 -0)
(273628.196536965 -0 -0)
(275701.622134177 -0 -0)
(277768.96348809 -0 -0)
(279830.357599572 -0 -0)
(281885.948740127 -0 -0)
(283935.869077601 -0 -0)
(285980.257639336 -0 -0)
(288019.240649761 -0 -0)
(290052.951283013 -0 -0)
(292081.505099778 -0 -0)
(294105.025276412 -0 -0)
(296123.622275862 -0 -0)
(298137.409345317 -0 -0)
(300146.481307785 -0 -0)
(302150.94009784 -0 -0)
(304150.862122748 -0 -0)
(306146.333311611 -0 -0)
(308135.282876873 -0 -0)
)
;

boundaryField
{
    electrode
    {
        type            calculated;
        value           uniform (4.40026375144954 -0 -0);
    }
    ground
    {
        type            calculated;
        value           uniform (309127.337623193 -0 -0);
    }
    otherfaces
    {
        type            empty;
    }
}


// ************************************************************************* //
