/*--------------------------------*- C++ -*----------------------------------*\
| =========                 |                                                 |
| \\      /  F ield         | foam-extend: Open Source CFD                    |
|  \\    /   O peration     | Version:     4.0                                |
|   \\  /    A nd           | Web:         http://www.foam-extend.org         |
|    \\/     M anipulation  |                                                 |
\*---------------------------------------------------------------------------*/
FoamFile
{
    version     2.0;
    format      ascii;
    class       volScalarField;
    location    "6.7e-06";
    object      electron;
}
// * * * * * * * * * * * * * * * * * * * * * * * * * * * * * * * * * * * * * //

dimensions      [0 0 0 1 0 0 0];

internalField   nonuniform List<scalar> 
300
(
6.42484507611798e+16
6.42468211300429e+16
6.42425481296173e+16
6.42352447069947e+16
6.42249707417496e+16
6.42117025035532e+16
6.41954345586942e+16
6.41761662072837e+16
6.41538942899481e+16
6.41286160838622e+16
6.41003286623417e+16
6.40690288470696e+16
6.40347132682899e+16
6.39973783443725e+16
6.39570202829979e+16
6.39136350815377e+16
6.38672185260167e+16
6.38177661906802e+16
6.3765273437471e+16
6.37097354155106e+16
6.36511470606186e+16
6.35895030948501e+16
6.35247980260707e+16
6.34570261475748e+16
6.33861815377446e+16
6.3312258059769e+16
6.32352493614233e+16
6.31551488749135e+16
6.30719498167962e+16
6.29856451879863e+16
6.28962277738564e+16
6.28036901444282e+16
6.27080246546761e+16
6.26092234449417e+16
6.2507278441472e+16
6.24021813570916e+16
6.22939236920059e+16
6.21824967347514e+16
6.20678915633021e+16
6.19500990463355e+16
6.18291098446662e+16
6.17049144128564e+16
6.15775030010074e+16
6.14468656567406e+16
6.13129922273795e+16
6.1175872362325e+16
6.10354955156471e+16
6.0891850948894e+16
6.07449277341119e+16
6.0594714757097e+16
6.04412007208799e+16
6.02843741494426e+16
6.01242233916728e+16
5.99607366255643e+16
5.97939018626636e+16
5.96237069527627e+16
5.945013958885e+16
5.92731873123086e+16
5.9092837518371e+16
5.89090774618307e+16
5.87218942630052e+16
5.85312749139596e+16
5.83372062849831e+16
5.81396751313148e+16
5.79386681001202e+16
5.77341717377172e+16
5.75261724970478e+16
5.73146567453904e+16
5.70996107722982e+16
5.68810207977125e+16
5.66588729802607e+16
5.643315342595e+16
5.62038481976023e+16
5.59709433246486e+16
5.57344248107777e+16
5.54942786361989e+16
5.52504907611938e+16
5.50030471606563e+16
5.47519339107431e+16
5.44971372148874e+16
5.42386430472494e+16
5.39764363481328e+16
5.37105007055891e+16
5.34408190113601e+16
5.31673740970432e+16
5.28901489137944e+16
5.26091265811547e+16
5.23242904044082e+16
5.20356238821473e+16
5.17431107111222e+16
5.14467347903633e+16
5.11464802251389e+16
5.08423313308829e+16
5.05342726371139e+16
5.02222888913299e+16
4.99063650628403e+16
4.95864863465052e+16
4.92626381663337e+16
4.89348061789027e+16
4.8602976276559e+16
4.82671345903485e+16
4.792726749264e+16
4.75833615993885e+16
4.72354037719924e+16
4.68833811186968e+16
4.65272809954822e+16
4.61670910063964e+16
4.58027990032696e+16
4.54343930847538e+16
4.5061861594627e+16
4.46851931192984e+16
4.43043764844518e+16
4.3919400750759e+16
4.35302552085929e+16
4.31369293716558e+16
4.27394129694499e+16
4.23376959385065e+16
4.19317684122815e+16
4.1521620709617e+16
4.11072433216747e+16
4.0688626897223e+16
4.02657622261609e+16
3.98386402211602e+16
3.94072518972758e+16
3.89715883493824e+16
3.85316407272768e+16
3.80874002082646e+16
3.76388579670491e+16
3.71860051427084e+16
3.67288328025287e+16
3.62673319024607e+16
3.5801493243916e+16
3.53313074266097e+16
3.48567647971258e+16
3.43778553928504e+16
3.38945688808862e+16
3.34068944915239e+16
3.29148209458081e+16
3.24183363766941e+16
3.19174282432825e+16
3.14120832374714e+16
3.09022871824202e+16
3.03880249224048e+16
2.98692802028969e+16
2.93460355398843e+16
2.88182720793857e+16
2.82859694463729e+16
2.77491055743976e+16
2.72076565246204e+16
2.66615963177145e+16
2.61108967122872e+16
2.55555268922217e+16
2.49954533878384e+16
2.44306399218951e+16
2.38610458833104e+16
2.32866250990915e+16
2.27073262137308e+16
2.21230937796344e+16
2.15338678624197e+16
2.09395843546263e+16
2.03401740766037e+16
1.97355632117803e+16
1.91256704497278e+16
1.85104015538561e+16
1.78896300584425e+16
1.72630827646338e+16
1.66302639071544e+16
1.59906166971514e+16
1.5343691931101e+16
1.46891339569693e+16
1.40265886727561e+16
1.33556564739577e+16
1.2675932325021e+16
1.19871064333567e+16
1.12892244837553e+16
1.05829604374902e+16
9.86947643827378e+15
9.15032499456059e+15
8.42795927147552e+15
7.70579426274111e+15
6.9879432473009e+15
6.27954380635668e+15
5.5867257007312e+15
4.91610450035291e+15
4.27467570837064e+15
3.669494937066e+15
3.10702066168037e+15
2.59278661088525e+15
2.13100572207657e+15
1.72409631847825e+15
1.37260920787037e+15
1.07528677438723e+15
829122451459826
629724490967201
471447369894634
348392655963611
254674126606501
184477612383976
132511967984282
92892621624472.6
63512729097213.2
42731143659292.5
27773326722467.5
17267906902116.1
10413090815534.6
6301489122038.26
3993396708177.83
2733237959942.13
2041029565982.32
1651300812395.22
1425813992526.15
1293104696412.59
1214594198724.04
1168766544681.39
1143125825802.12
1130022610301.59
1124450081916.66
1123065125767.65
1123787071125.09
1125326205808.82
1126650887314.47
1127093609819.65
1126267008153.11
1123879259446.75
1119781045227.39
1113910515235.29
1106271483953.36
1096913956477.85
1085920337784.28
1073395890632.41
1059461415789.23
1044247567006.46
1027890369031.43
1010527679201.95
992296396667.436
973330282333.786
953758239279.415
933703086859.225
913280030633.177
892596897303.073
871742604115.763
850797912881.494
829848697673.409
808975590001.698
788251653131.117
767741542957.093
747501759417.431
727581039949.635
708020849864.176
688855900670.256
670114682157.593
651820000986.072
633989500382.587
616636269946.1
599769239737.29
583395498226.92
567516088646.771
552125764911.871
537221929983.26
522801350036.598
508856846157.854
495379846694.161
482360466204.499
469787888749.006
457650586816.716
445936622440.059
434633992967.789
423730703284.002
413214674162.883
403073263436.151
393293636682.48
383853351762.457
374728627903.097
365906467020.572
357377132499.976
349132042300.141
341163274424.491
333463495223.878
326025993200.556
318844752768.571
311914482894.769
305230754657.349
298788886936.026
292584383753.566
286587569389.191
280769013259.064
275133421033.546
269694918102.222
264469680683.855
259467726186.108
254655911272.211
250023769993.108
245627276290.162
241484663221.048
237618412738.364
234121277590.812
231128506031.26
228917654875.782
227977605911.254
229140575142.907
)
;

boundaryField
{
    electrode
    {
        type            driftDiffusionElectronDensity;
        seec            0.05;
        Edepend         1;
        field_emission  0;
        field_enhancement_factor 55;
        work_function   5;
        value           uniform 6.42484507611798e+16;
    }
    ground
    {
        type            driftDiffusionElectronDensity;
        seec            0.05;
        Edepend         1;
        field_emission  0;
        field_enhancement_factor 55;
        work_function   5;
        value           uniform 231371514503.702;
    }
    otherfaces
    {
        type            empty;
    }
}


// ************************************************************************* //
