/*--------------------------------*- C++ -*----------------------------------*\
| =========                 |                                                 |
| \\      /  F ield         | foam-extend: Open Source CFD                    |
|  \\    /   O peration     | Version:     4.0                                |
|   \\  /    A nd           | Web:         http://www.foam-extend.org         |
|    \\/     M anipulation  |                                                 |
\*---------------------------------------------------------------------------*/
FoamFile
{
    version     2.0;
    format      ascii;
    class       volScalarField;
    location    "6.7e-06";
    object      N_electronMean;
}
// * * * * * * * * * * * * * * * * * * * * * * * * * * * * * * * * * * * * * //

dimensions      [0 0 0 1 0 0 0];

internalField   nonuniform List<scalar> 
300
(
6.06891018006081e+16
6.06876086926132e+16
6.06835067442029e+16
6.06763306478311e+16
6.06661188388546e+16
6.06528359348784e+16
6.06364627090274e+16
6.06169886508399e+16
6.05944036345018e+16
6.05687001627942e+16
6.05398727575862e+16
6.05079177451075e+16
6.04728331366922e+16
6.04346184773898e+16
6.03932747451162e+16
6.03488042502033e+16
6.03012105496209e+16
6.02504983733176e+16
6.0196673552566e+16
6.01397429521031e+16
6.0079714410084e+16
6.00165966811929e+16
5.99503993817223e+16
5.98811329333438e+16
5.9808808521897e+16
5.97334380649427e+16
5.96550341528036e+16
5.95736099898977e+16
5.9489179346771e+16
5.94017564956294e+16
5.93113561683889e+16
5.92179935448778e+16
5.91216841940552e+16
5.90224439798478e+16
5.89202889932681e+16
5.88152354979252e+16
5.87072998763707e+16
5.85964985808624e+16
5.8482848079604e+16
5.83663648021617e+16
5.824706509453e+16
5.81249651733991e+16
5.80000810719373e+16
5.78724285901942e+16
5.77420232521765e+16
5.76088802640443e+16
5.74730144751233e+16
5.73344403431585e+16
5.71931719074218e+16
5.70492227694534e+16
5.69026060922264e+16
5.67533346001922e+16
5.66014205500245e+16
5.64468756767067e+16
5.62897111165945e+16
5.61299373282912e+16
5.59675640247693e+16
5.58026001200575e+16
5.5635053688349e+16
5.54649319243851e+16
5.52922411078706e+16
5.51169865704038e+16
5.49391726588753e+16
5.47588027269854e+16
5.45758791606669e+16
5.43904033434547e+16
5.42023755655706e+16
5.40117949696282e+16
5.38186595243866e+16
5.36229659982857e+16
5.34247099328688e+16
5.32238856310843e+16
5.30204861737284e+16
5.28145034057476e+16
5.26059278878305e+16
5.23947488988203e+16
5.21809544571498e+16
5.19645312970495e+16
5.17454648016351e+16
5.15237389611002e+16
5.12993363683606e+16
5.1072238155697e+16
5.08424239397309e+16
5.06098718097678e+16
5.03745583234703e+16
5.01364585208791e+16
4.98955458960239e+16
4.96517923340498e+16
4.94051680844341e+16
4.91556417607887e+16
4.89031803179011e+16
4.86477490691258e+16
4.83893117151147e+16
4.81278302667553e+16
4.78632649731317e+16
4.75955743060691e+16
4.73247149441661e+16
4.70506417576102e+16
4.67733077934875e+16
4.64926642725776e+16
4.62086605854271e+16
4.59212442667785e+16
4.56303610031622e+16
4.53359546614216e+16
4.50379672566509e+16
4.47363389337254e+16
4.44310079722157e+16
4.41219107786471e+16
4.38089818967032e+16
4.34921539902384e+16
4.31713578166531e+16
4.28465222248834e+16
4.25175741653256e+16
4.21844387179611e+16
4.18470391034402e+16
4.15052966945332e+16
4.1159131077588e+16
4.0808460084346e+16
4.04531997592438e+16
4.00932643364537e+16
3.97285662761765e+16
3.93590163207164e+16
3.89845235423084e+16
3.86049954015955e+16
3.82203377451439e+16
3.78304547602697e+16
3.74352489960965e+16
3.70346214121748e+16
3.66284713893424e+16
3.62166967515395e+16
3.57991938162142e+16
3.53758574441467e+16
3.49465810792103e+16
3.45112567859004e+16
3.40697753526345e+16
3.36220264137453e+16
3.31678984677641e+16
3.27072788503359e+16
3.2240053760669e+16
3.17661083256247e+16
3.12853266327789e+16
3.07975917575295e+16
3.03027858128214e+16
2.98007900131993e+16
2.9291484799508e+16
2.87747499492169e+16
2.82504645939577e+16
2.77185072212746e+16
2.71787556741857e+16
2.66310872190204e+16
2.60753786854162e+16
2.55115065190376e+16
2.49393468535564e+16
2.43587756491011e+16
2.3769668754664e+16
2.31719021119665e+16
2.25653520075558e+16
2.19498954349074e+16
2.13254100589391e+16
2.06917738743675e+16
2.00488623183068e+16
1.93965329513826e+16
1.87346020613741e+16
1.8062836434425e+16
1.73809538652381e+16
1.66886227512565e+16
1.5985486259276e+16
1.527119713167e+16
1.45454270962399e+16
1.38078748229977e+16
1.30583158761509e+16
1.22967220686059e+16
1.15234240155613e+16
1.07392880591416e+16
9.9459633502177e+15
9.1460887142178e+15
8.3434048994901e+15
7.54297163856204e+15
6.7512811296534e+15
5.97607234795165e+15
5.22608222978169e+15
4.51064489021353e+15
3.83898615277297e+15
3.21949217811756e+15
2.65900998446629e+15
2.16215611666616e+15
1.73092588026853e+15
1.36463515922303e+15
1.06010993992272e+15
812180291787258
614334979044098
459394595926377
340136619581681
249779494854917
181924660401520
131374248500861
94062151766237.2
66705022057135.6
46695112745532.1
32145221766402.1
21841143999230.5
14662540661486.9
9722794565953.62
6477701233349.25
4475360588618.76
3305895615642.83
2641248142163.11
2260908018259.13
2036282624292.88
1897712908379.21
1808105687050.18
1747255078052.09
1703709330341.83
1670712818117.4
1644096798561.43
1621203059254.1
1600270792677.7
1580122108513.45
1560035503617.66
1539541936519.94
1518307372657.98
1496120974797.01
1472877157503.43
1448554950847.34
1423186750632.19
1396841442847.76
1369612820893.15
1341609585236.09
1312948963738.9
1283751878502.24
1254139340029.37
1224230443544.35
1194139644909.26
1163975640928.17
1133840590581.45
1103829031132.58
1074027363117.85
1044514210945.34
1015359637882.56
986625580333.807
958365719973.758
930624714143.871
903440938651.337
876847786873.981
850873343614.861
825540270927.312
800865057031.763
776859070023.492
753529109809.722
730878115754.913
708906661121.471
687612711487.781
666991325881.369
647034900025.234
627733830286.04
609077790389.867
591053740797.423
573644874993.594
556835310694.793
540610505851.46
524954749068.146
509851138670.072
495282494817.851
481231321899.803
467680144477.183
454611808148.901
442008411050.884
429851777868.191
418124261909.578
406808286824.725
395885869648.54
385339542670.434
375154473603.619
365318550861.361
355820500528.863
346649815394.95
337796607124.859
329251524622.011
321005998874.804
313052275987.864
305383295726.763
297991923455.757
290870262470.18
283999178633.702
277352313489.125
270920952000.232
264712475079.04
258736469354.552
253003053062.452
247498869849.911
242199821711.301
237119840388.591
232300512752.804
227741592570.732
223471482854.12
219571050149.193
216163676570.139
213504332320.765
212005785127.021
212411394416.215
)
;

boundaryField
{
    electrode
    {
        type            calculated;
        value           uniform 6.06891018007849e+16;
    }
    ground
    {
        type            calculated;
        value           uniform 214097093249.717;
    }
    otherfaces
    {
        type            empty;
    }
}


// ************************************************************************* //
