/*--------------------------------*- C++ -*----------------------------------*\
| =========                 |                                                 |
| \\      /  F ield         | foam-extend: Open Source CFD                    |
|  \\    /   O peration     | Version:     4.0                                |
|   \\  /    A nd           | Web:         http://www.foam-extend.org         |
|    \\/     M anipulation  |                                                 |
\*---------------------------------------------------------------------------*/
FoamFile
{
    version     2.0;
    format      ascii;
    class       volScalarField;
    location    "6.7e-06";
    object      Phi;
}
// * * * * * * * * * * * * * * * * * * * * * * * * * * * * * * * * * * * * * //

dimensions      [0 0 0 1 0 0 0];

internalField   nonuniform List<scalar> 
300
(
699.999926662271
699.999712740004
699.999206760636
699.998441996641
699.997426880561
699.996156057318
699.994630410315
699.992849506298
699.990812788289
699.988519771059
699.985969873317
699.983162462022
699.980096849767
699.976772291505
699.973187985305
699.969343071676
699.965236633011
699.960867693065
699.956235216355
699.951338107547
699.946175210789
699.940745309025
699.935047123265
699.92907931182
699.922840469506
699.916329126805
699.909543748992
699.902482735226
699.895144417599
699.887527060151
699.879628857845
699.871447935497
699.862982346677
699.854230072555
699.845189020718
699.835857023934
699.826231838881
699.816311144826
699.806092542258
699.795573551479
699.784751611142
699.773624076744
699.762188219063
699.75044122255
699.738380183661
699.726002109133
699.713303914211
699.700282420805
699.686934355593
699.673256348057
699.659244928454
699.644896525716
699.630207465284
699.615173966861
699.599792142093
699.584057992165
699.567967405318
699.55151615427
699.534699893556
699.51751415676
699.499954353656
699.482015767238
699.46369355064
699.444982723944
699.425878170859
699.406374635282
699.386466717711
699.366148871533
699.345415399156
699.324260447973
699.302678006159
699.280661898293
699.258205780871
699.235303137773
699.211947275381
699.188131316542
699.163848193035
699.139090640442
699.113851204324
699.088122254098
699.061895953073
699.03516411782
699.007918107074
698.980148988554
698.951847587851
698.923004481754
698.893609989666
698.863654164118
698.83312678048
698.802017326106
698.770314988925
698.738008645471
698.705086848301
698.671537812785
698.6373494032
698.602509118107
698.567004074947
698.530820993795
698.493946180237
698.456365507287
698.418064396283
698.379027796692
698.33924016475
698.298685440837
698.257347025513
698.215207754102
698.172249869731
698.128454994691
698.083804100009
698.038277473078
697.991854683214
697.944514544957
697.896235078949
697.846993470201
697.79676602352
697.745528115868
697.693254145415
697.639917476978
697.585490383559
697.529943983637
697.473248173834
697.415371556553
697.356281362129
697.29594336498
697.234321793214
697.171379231059
697.107076513432
697.041372611874
696.974224511
696.905587074493
696.835412899586
696.763652158809
696.690252427661
696.615158496689
696.538312166231
696.459652021915
696.379113188688
696.296627060897
696.212121005571
696.125518035676
696.036736449663
695.945689432977
695.852284616871
695.756423588838
695.65800134775
695.556905697003
695.453016567778
695.34620525972
695.236333583355
695.123252912222
695.006803114611
694.886811274145
694.763090307139
694.635437654941
694.503633108282
694.367435870329
694.226583074465
694.080786688552
693.929731556338
693.773069497978
693.610418777654
693.4413531983
693.265405305359
693.0820450235
692.890692136264
692.690657037609
692.481019635806
692.260715032614
692.028618605668
691.78347008302
691.523823670309
691.247928107802
690.953736541584
690.638807511494
690.300355473755
689.935475659803
689.540984338138
689.112850237034
688.646797963977
688.138677070603
687.583385533291
686.975472024112
686.310009263384
685.581128028262
684.783123429071
683.910863648782
682.958901942351
681.922116929523
680.796635632915
679.578354872888
678.263795242305
676.850933118155
675.338100625413
673.72381430766
672.007303357802
670.188824985498
668.268775766418
666.247456237956
664.125332916258
661.902469785845
659.579619338143
657.15699169379
654.633708881452
652.009219642882
649.282656460584
646.454002761324
643.523628604767
640.492358955656
637.361144847748
634.130973561001
630.802799104664
627.377511043867
623.855920012826
620.238743767559
616.527039174144
612.72182263368
608.824042649794
604.834542270518
600.75410954264
596.583437330438
592.323174788929
587.97388478188
583.536097190734
579.01026332229
574.396810452443
569.696092978256
564.908762848937
560.035400351865
555.076585455609
550.032822430256
544.904622719326
539.692425703324
534.396683675532
529.017779422175
523.55611394557
518.012020837055
512.385856496257
506.677910910858
500.88850073312
495.017876584996
489.06631923176
483.034043681919
476.921337806063
470.72859516013
464.45624111181
458.10463840709
451.674184186468
445.165213295044
438.57809704579
431.913144742305
425.17070402988
418.351060890915
411.454541463048
404.481410311439
397.431973875193
390.306476961217
383.105207685845
375.828392341501
368.476301714701
361.049144401324
353.547174777439
345.970584447236
338.319611964181
330.594432620634
322.795269736516
314.922282973867
306.975746049235
298.955937808472
290.863187405619
282.697758397579
274.4599659507
266.150059373417
257.768340905315
249.315046519047
240.79046639211
232.194823960227
223.528397953828
214.791399796274
205.984097295218
197.106690373219
188.159436326773
179.142524008299
170.056200582557
160.900644239168
151.676092440278
142.382713339963
133.020735266973
123.590316757287
114.091677328468
104.524966247997
94.8903946184811
85.1881028291315
75.4182942784975
65.5811011440363
55.6767194601075
45.7052738543502
35.6669540395885
25.5618778478268
15.39022989807
5.15212229371825
)
;

boundaryField
{
    electrode
    {
        type            fixedValue;
        value           uniform 700;
    }
    ground
    {
        type            fixedValue;
        value           uniform 0;
    }
    otherfaces
    {
        type            empty;
    }
}


// ************************************************************************* //
