/*--------------------------------*- C++ -*----------------------------------*\
| =========                 |                                                 |
| \\      /  F ield         | foam-extend: Open Source CFD                    |
|  \\    /   O peration     | Version:     4.0                                |
|   \\  /    A nd           | Web:         http://www.foam-extend.org         |
|    \\/     M anipulation  |                                                 |
\*---------------------------------------------------------------------------*/
FoamFile
{
    version     2.0;
    format      ascii;
    class       volScalarField;
    location    "6.7e-06";
    object      PhiMean;
}
// * * * * * * * * * * * * * * * * * * * * * * * * * * * * * * * * * * * * * //

dimensions      [0 0 0 1 0 0 0];

internalField   nonuniform List<scalar> 
300
(
699.988998529924
699.98786948554
699.986468985763
699.984821098794
699.9829350842
699.980804335237
699.978428441472
699.975806358141
699.97293703773
699.969819688938
699.966453602508
699.962838182546
699.958972918255
699.9548573749
699.950491184998
699.945874038965
699.941005677647
699.935885887161
699.930514492551
699.924891351699
699.919016351059
699.912889401027
699.906510431832
699.899879389188
699.892996229542
699.885860924594
699.878473451756
699.870833790155
699.862941919396
699.854797812182
699.846401428643
699.83775272597
699.828851651204
699.819698128012
699.810292053313
699.800633293365
699.790721679157
699.78055700405
699.77013901906
699.75946742752
699.748541882331
699.737361983261
699.725927270441
699.714237220777
699.702291243981
699.690088679016
699.677628790075
699.664910763733
699.651933705771
699.638696641047
699.625198512052
699.611438186454
699.59741444805
699.583125996646
699.568571432754
699.553749250884
699.538657828284
699.523295419544
699.50766015159
699.491750017838
699.475562873463
699.459096430052
699.442348249509
699.425315737805
699.407996156564
699.390386616312
699.372484053364
699.35428522437
699.335786700661
699.316984861843
699.297875889108
699.278455757641
699.258720239788
699.238664901347
699.21828508202
699.19757589541
699.17653223291
699.155148750254
699.133419857446
699.111339693513
699.088902143086
699.066100802393
699.042928968606
699.019379633538
698.995445469563
698.971118832603
698.946391745837
698.921255876932
698.895702524237
698.869722611416
698.843306669181
698.816444819275
698.789126790698
698.761341870563
698.733078884473
698.704326180706
698.67507161027
698.645302509077
698.615005674201
698.584167346276
698.552773188491
698.520808258471
698.488256978863
698.455103134546
698.421329823782
698.386919430478
698.351853600501
698.316113196335
698.279678276528
698.242528048416
698.204640822442
698.16599397206
698.126563885914
698.086325927069
698.045254383229
698.003322402948
697.960501956341
697.916763778989
697.872077287142
697.826410500477
697.779729964189
697.732000685258
697.683186030803
697.633247656729
697.58214539013
697.529837098738
697.476278567581
697.421423382665
697.365222769646
697.307625440501
697.248577424025
697.188021884329
697.125898915332
697.062145313652
696.996694340994
696.929475495073
696.860414188785
696.789431416941
696.716443380566
696.641361107168
696.564089995492
696.484529319451
696.402571680955
696.318102391868
696.23099880653
696.141129579315
696.048353768887
695.952519859213
695.853464632995
695.751011902012
695.644971124824
695.535135739436
695.421281279115
695.303163248371
695.180514592312
695.053042785746
694.920426597065
694.782311986966
694.638307859388
694.487979810506
694.330845013138
694.166359464605
693.993893610983
693.812715163711
693.621978878507
693.420695060854
693.207714488911
692.981716622528
692.741164699436
692.484245342979
692.208814310882
691.912366694765
691.592034271289
691.244489763719
690.865955995941
690.452283777093
689.998755410091
689.50014836734
688.951035539725
688.345561735584
687.677591149798
686.94111184403
686.130145037403
685.238825563026
684.262032971489
683.195088476691
682.033918678576
680.775441797595
679.417364776774
677.958000384018
676.396449869523
674.732441064879
672.966218336017
671.098404343219
669.12981098048
667.061190157907
664.893166664999
662.626135625692
660.260467936159
657.796482529362
655.234466945682
652.574485928307
649.816610948665
646.961133259591
644.008639327256
640.959910857328
637.815854142343
634.577411711649
631.245512917812
627.821022509438
624.30475340398
620.697434110971
616.999814984011
613.212744786261
609.337133542249
605.373806567801
601.323541958882
597.18703884341
592.964960124066
588.657897904457
584.266417662917
579.791020980116
575.232191278155
570.590354424829
565.865926493347
561.059358064021
556.171255790609
551.202168590454
546.152644175595
541.023175557041
535.814259957757
530.526342207226
525.159876902357
519.715270129994
514.19294225603
508.593265001334
502.916627711743
497.163371564276
491.333858645578
485.428403202354
479.447343597813
473.390970929948
467.259611271518
461.053660074471
454.77357787393
448.419771395547
441.992677760737
435.492679731584
428.920193064469
422.275578359887
415.559231781461
408.77149326364
401.912740914458
394.983295245914
387.98351763435
380.913710255209
373.774218864422
366.565328277017
359.287369571016
351.940611094147
344.525370045554
337.041899115251
329.490502377344
321.871417448504
314.184935975682
306.431284192208
298.61075598497
290.723608355222
282.770195440308
274.750820247552
266.665856163419
258.515592451209
250.300391220442
242.020527589206
233.676353079946
225.268129199881
216.79619752278
208.260806477155
199.662288270635
191.000878763139
182.276901337207
173.490579714763
164.642228984572
155.73206114029
146.76038359471
137.727397116442
128.633401996887
119.478588122672
110.263249122207
100.987564316898
91.6518210673658
82.2561886463099
72.800948864737
63.2862613268718
53.7124026252869
44.0795233573247
34.3878957862278
24.6376620321331
14.8290911859462
4.9623178921055
)
;

boundaryField
{
    electrode
    {
        type            calculated;
        value           uniform 699.999999999724;
    }
    ground
    {
        type            calculated;
        value           uniform 0;
    }
    otherfaces
    {
        type            empty;
    }
}


// ************************************************************************* //
