/*--------------------------------*- C++ -*----------------------------------*\
| =========                 |                                                 |
| \\      /  F ield         | foam-extend: Open Source CFD                    |
|  \\    /   O peration     | Version:     4.0                                |
|   \\  /    A nd           | Web:         http://www.foam-extend.org         |
|    \\/     M anipulation  |                                                 |
\*---------------------------------------------------------------------------*/
FoamFile
{
    version     2.0;
    format      ascii;
    class       volScalarField;
    location    "6.7e-06";
    object      Sy_electron;
}
// * * * * * * * * * * * * * * * * * * * * * * * * * * * * * * * * * * * * * //

dimensions      [1 -3 -1 0 0 0 0];

internalField   nonuniform List<scalar> 
300
(
3.308227597685e-09
3.30898076460982e-09
3.30926878530158e-09
3.30919917937274e-09
3.30915215886535e-09
3.30905387116163e-09
3.30891351726983e-09
3.30873601536684e-09
3.30851897211323e-09
3.30826252882532e-09
3.30796638997687e-09
3.30763016526317e-09
3.30725350700194e-09
3.30683603610472e-09
3.30637735796743e-09
3.30587706279413e-09
3.30533472395121e-09
3.30474989828555e-09
3.30412212587356e-09
3.30345092979657e-09
3.30273581595192e-09
3.30197627284559e-09
3.30117177136442e-09
3.3003217645657e-09
3.29942568742145e-09
3.29848295665121e-09
3.29749297042931e-09
3.29645510815304e-09
3.29536873021905e-09
3.29423317774177e-09
3.29304777228099e-09
3.29181181565199e-09
3.29052458963486e-09
3.28918535567564e-09
3.28779335462764e-09
3.28634780648923e-09
3.28484791011718e-09
3.28329284295466e-09
3.28168176075e-09
3.28001379725772e-09
3.27828806395509e-09
3.27650364976428e-09
3.27465962074325e-09
3.27275501979759e-09
3.27078886638812e-09
3.26876015622089e-09
3.26666786094676e-09
3.26451092787592e-09
3.26228827964059e-09
3.25999881391856e-09
3.25764140310743e-09
3.25521489406205e-09
3.25271810772018e-09
3.25014983885381e-09
3.24750885570004e-09
3.24479389967414e-09
3.24200368501244e-09
3.23913689847415e-09
3.2361921990161e-09
3.23316821746311e-09
3.23006355618099e-09
3.22687678873641e-09
3.22360645955487e-09
3.22025108355578e-09
3.21680914586767e-09
3.21327910146534e-09
3.20965937473736e-09
3.20594835917535e-09
3.20214441701814e-09
3.1982458788598e-09
3.19425104307687e-09
3.19015817514315e-09
3.18596550755156e-09
3.18167124140142e-09
3.17727354841408e-09
3.17277056489089e-09
3.16816036722519e-09
3.16344095547959e-09
3.15861034678256e-09
3.15366683513171e-09
3.14860902873863e-09
3.1444925040321e-09
3.14090716260948e-09
3.1372228809202e-09
3.13343719955643e-09
3.12954773897118e-09
3.1255521082114e-09
3.12144788419614e-09
3.11723260395559e-09
3.11290376147684e-09
3.10845880567748e-09
3.10389513871863e-09
3.09921011460785e-09
3.09440103733626e-09
3.08946515924911e-09
3.08439967928618e-09
3.07920174111737e-09
3.07386843119064e-09
3.06839677667506e-09
3.0627837433309e-09
3.05702623323659e-09
3.05112108237975e-09
3.04506505808719e-09
3.03885485648606e-09
3.03248709954965e-09
3.02595833215898e-09
3.01926501896817e-09
3.01240354097609e-09
3.00537019205651e-09
2.99816117512831e-09
2.99077259815061e-09
2.98320046986235e-09
2.97544069524656e-09
2.9674890707301e-09
2.95934127903689e-09
2.95099288370555e-09
2.94243932328214e-09
2.93367590516826e-09
2.92469779891065e-09
2.91550002915754e-09
2.9060774680861e-09
2.89642482741343e-09
2.88653664967605e-09
2.8764072991072e-09
2.86603095171479e-09
2.85540158470022e-09
2.84451296511557e-09
2.83335863781465e-09
2.82193191234002e-09
2.81022584898431e-09
2.79823324375149e-09
2.78594661225226e-09
2.77335817233098e-09
2.76045982536023e-09
2.74724313614436e-09
2.73369931131996e-09
2.71981917589046e-09
2.7055931479883e-09
2.69101121163499e-09
2.676062887427e-09
2.66073720061458e-09
2.64502264633477e-09
2.62890715295239e-09
2.6123780420637e-09
2.5954219822839e-09
2.57802494176925e-09
2.56017214843381e-09
2.54184802080871e-09
2.52303607020665e-09
2.50371893422594e-09
2.48387836998989e-09
2.46349466925739e-09
2.44254703446637e-09
2.42101562149496e-09
2.40046151122724e-09
2.37957332403098e-09
2.35804614099693e-09
2.33585210866302e-09
2.31296045591564e-09
2.28934057083161e-09
2.26495775664475e-09
2.2397811942227e-09
2.21378413475635e-09
2.18696560037319e-09
2.15952214423225e-09
2.13158791817705e-09
2.102769503758e-09
2.07259494350986e-09
2.04098474291837e-09
2.00806426696805e-09
1.97388652391333e-09
1.93830226311364e-09
1.90100216388069e-09
1.86124134397492e-09
1.81544031985446e-09
1.7653228025569e-09
1.71248617917041e-09
1.65561591581251e-09
1.59446612201028e-09
1.53015006735613e-09
1.46200348451816e-09
1.39031080560863e-09
1.31746881461345e-09
1.23619263742217e-09
1.15690570603376e-09
1.08380535997431e-09
1.02053028549681e-09
9.59956920362325e-10
9.12489135833393e-10
8.84507064319664e-10
8.71316276898499e-10
8.80919418501101e-10
9.21503433658196e-10
1.00368046454755e-09
1.1441083318932e-09
1.36207404064401e-09
1.72600190136016e-09
2.32984235489873e-09
3.40734052999905e-09
4.69439778759063e-09
5.83178660079302e-09
7.08839906762684e-09
7.46980749629084e-09
6.77425383075725e-09
5.52207357408368e-09
4.23467855652696e-09
3.20332201112321e-09
2.47944472262071e-09
2.00735520807402e-09
1.71615912855318e-09
1.53070473042206e-09
1.42392392261277e-09
1.35790299413706e-09
1.32406298133682e-09
1.30666002144452e-09
1.29874350810116e-09
1.29849556258851e-09
1.30232240716927e-09
1.30798402564325e-09
1.31409694005148e-09
1.31953662562678e-09
1.32241701901986e-09
1.32296521465189e-09
1.32154904810089e-09
1.31800691675041e-09
1.31227670231514e-09
1.30437143000044e-09
1.2943569067762e-09
1.28233591561225e-09
1.26843729957766e-09
1.25280755706511e-09
1.23560430345961e-09
1.21699110502042e-09
1.19713339519706e-09
1.17619524822352e-09
1.15433685798151e-09
1.13171254340162e-09
1.10846934125099e-09
1.0847451839015e-09
1.06066940292133e-09
1.03634845824526e-09
1.01187904894053e-09
9.87364439215204e-10
9.62901565847719e-10
9.38578371259174e-10
9.14472809153028e-10
8.90653154263735e-10
8.6717846593645e-10
8.44099165908869e-10
8.21457649290877e-10
7.99288910873854e-10
7.77621180700516e-10
7.56476534331279e-10
7.35871618730858e-10
7.15818081017892e-10
6.96325415496132e-10
6.77395294746948e-10
6.59023663800323e-10
6.41207681783965e-10
6.23944478696658e-10
6.07226338299655e-10
5.91043893205472e-10
5.75386166608336e-10
5.60241036819585e-10
5.45595492439114e-10
5.31435991358381e-10
5.17748876916345e-10
5.04520462152264e-10
4.91736922619064e-10
4.79383706938824e-10
4.67446141354614e-10
4.55897898794856e-10
4.44711002946261e-10
4.33870520595672e-10
4.23365232487059e-10
4.13185209844048e-10
4.03321242496573e-10
3.93764754362884e-10
3.84507837965846e-10
3.75543335229581e-10
3.66864859193831e-10
3.58466961767095e-10
3.50343774374676e-10
3.4190485973414e-10
3.33633131940007e-10
3.25551780201791e-10
3.17665752039527e-10
3.09989696121867e-10
3.02539893422844e-10
2.95032189153409e-10
2.86744492456444e-10
2.78626530500232e-10
2.70734580390417e-10
2.62094561368733e-10
2.52525650471343e-10
2.43153702234505e-10
2.30950596248717e-10
2.17454726944069e-10
2.00344457879141e-10
1.75833210633131e-10
)
;

boundaryField
{
    electrode
    {
        type            zeroGradient;
    }
    ground
    {
        type            zeroGradient;
    }
    otherfaces
    {
        type            empty;
    }
}


// ************************************************************************* //
