/*--------------------------------*- C++ -*----------------------------------*\
| =========                 |                                                 |
| \\      /  F ield         | foam-extend: Open Source CFD                    |
|  \\    /   O peration     | Version:     4.0                                |
|   \\  /    A nd           | Web:         http://www.foam-extend.org         |
|    \\/     M anipulation  |                                                 |
\*---------------------------------------------------------------------------*/
FoamFile
{
    version     2.0;
    format      ascii;
    class       volScalarField;
    location    "2e-06";
    object      Ar;
}
// * * * * * * * * * * * * * * * * * * * * * * * * * * * * * * * * * * * * * //

dimensions      [0 0 0 1 0 0 0];

internalField   nonuniform List<scalar> 
300
(
3.21880333882801e+22
3.21880333614335e+22
3.21880333816495e+22
3.21880333985062e+22
3.21880334205684e+22
3.21880334501333e+22
3.21880334865859e+22
3.21880335298264e+22
3.21880335798687e+22
3.21880336366722e+22
3.21880337002024e+22
3.21880337704287e+22
3.21880338473197e+22
3.21880339308438e+22
3.21880340209686e+22
3.21880341176609e+22
3.21880342208898e+22
3.21880343306184e+22
3.21880344468086e+22
3.21880345694226e+22
3.21880346984209e+22
3.2188034833763e+22
3.21880349754068e+22
3.21880351233089e+22
3.21880352774407e+22
3.21880354377433e+22
3.21880356041709e+22
3.21880357766775e+22
3.21880359552045e+22
3.21880361397005e+22
3.21880363301318e+22
3.21880365264381e+22
3.21880367285513e+22
3.2188036936415e+22
3.21880371499722e+22
3.21880373691653e+22
3.21880375939403e+22
3.21880378242364e+22
3.21880380599913e+22
3.21880383011458e+22
3.21880385476404e+22
3.21880387994133e+22
3.21880390564038e+22
3.21880393185513e+22
3.21880395857954e+22
3.21880398580758e+22
3.21880401353349e+22
3.21880404175149e+22
3.21880407045673e+22
3.21880409964383e+22
3.21880412930855e+22
3.21880415944426e+22
3.21880419004618e+22
3.21880422110734e+22
3.21880425262187e+22
3.21880428458319e+22
3.21880431698618e+22
3.21880434982594e+22
3.21880438309777e+22
3.21880441679741e+22
3.21880445092038e+22
3.21880448546268e+22
3.2188045204211e+22
3.21880455579414e+22
3.2188045915784e+22
3.21880462776859e+22
3.2188046643621e+22
3.21880470135665e+22
3.21880473875035e+22
3.21880477654167e+22
3.2188048147297e+22
3.21880485331455e+22
3.21880489229615e+22
3.21880493167399e+22
3.21880497145009e+22
3.21880501162547e+22
3.21880505220109e+22
3.21880509317946e+22
3.21880513456117e+22
3.21880517635241e+22
3.21880521855338e+22
3.21880526116809e+22
3.21880530420164e+22
3.21880534765915e+22
3.21880539154811e+22
3.21880543587431e+22
3.2188054806438e+22
3.2188055258644e+22
3.21880557154582e+22
3.21880561769644e+22
3.21880566432673e+22
3.21880571145175e+22
3.2188057590772e+22
3.21880580721486e+22
3.21880585587741e+22
3.21880590507825e+22
3.21880595483154e+22
3.2188060051522e+22
3.21880605605694e+22
3.21880610756216e+22
3.21880615968436e+22
3.21880621244132e+22
3.21880626585487e+22
3.21880631994152e+22
3.21880637472238e+22
3.21880643021934e+22
3.2188064864526e+22
3.21880654344659e+22
3.2188066012235e+22
3.21880665980673e+22
3.21880671922117e+22
3.21880677949249e+22
3.21880684064759e+22
3.21880690271355e+22
3.21880696571813e+22
3.21880702969131e+22
3.21880709466385e+22
3.21880716066278e+22
3.21880722771814e+22
3.21880729586146e+22
3.2188073651267e+22
3.21880743554437e+22
3.21880750714976e+22
3.21880757997467e+22
3.21880765405125e+22
3.21880772941342e+22
3.21880780609812e+22
3.21880788413802e+22
3.21880796356893e+22
3.21880804442603e+22
3.21880812674604e+22
3.21880821056464e+22
3.21880829591771e+22
3.2188083828432e+22
3.21880847138007e+22
3.21880856156175e+22
3.21880865342382e+22
3.21880874700439e+22
3.21880884233992e+22
3.21880893946376e+22
3.21880903841132e+22
3.21880913921755e+22
3.21880924191826e+22
3.21880934654851e+22
3.2188094531417e+22
3.21880956172572e+22
3.21880967233074e+22
3.21880978498567e+22
3.2188098997193e+22
3.21881001656043e+22
3.21881013552968e+22
3.21881025664903e+22
3.21881037994156e+22
3.21881050542106e+22
3.21881063309947e+22
3.21881076298765e+22
3.21881089509084e+22
3.21881102940423e+22
3.21881116591766e+22
3.2188113046155e+22
3.2188114454705e+22
3.21881158844155e+22
3.21881173347917e+22
3.21881188048857e+22
3.218812029413e+22
3.21881218034332e+22
3.21881233208413e+22
3.21881248427147e+22
3.2188126376873e+22
3.2188127924465e+22
3.21881294710933e+22
3.21881310146137e+22
3.2188132548208e+22
3.21881340807178e+22
3.2188135597294e+22
3.21881370783742e+22
3.21881385615419e+22
3.21881399672271e+22
3.21881413248762e+22
3.21881426038321e+22
3.21881437881523e+22
3.21881449295173e+22
3.21881459238436e+22
3.21881468146968e+22
3.21881476106031e+22
3.21881482727873e+22
3.21881488263137e+22
3.21881493226242e+22
3.21881497064479e+22
3.21881500172857e+22
3.21881502834001e+22
3.21881505198025e+22
3.21881506997864e+22
3.21881508475432e+22
3.21881509170824e+22
3.21881509311297e+22
3.21881509256656e+22
3.21881509350479e+22
3.21881509601307e+22
3.21881509982248e+22
3.21881510402187e+22
3.21881510838194e+22
3.21881511435955e+22
3.2188151204469e+22
3.21881512583955e+22
3.21881513064045e+22
3.21881513485354e+22
3.2188151385581e+22
3.21881514169072e+22
3.21881514441038e+22
3.21881514670276e+22
3.21881514938263e+22
3.21881515289373e+22
3.21881515611964e+22
3.21881515902149e+22
3.21881516167924e+22
3.21881516411095e+22
3.21881516634049e+22
3.21881516836911e+22
3.21881517025613e+22
3.21881517191621e+22
3.2188151735176e+22
3.21881517485664e+22
3.21881517618618e+22
3.2188151777534e+22
3.21881518018028e+22
3.21881518238685e+22
3.21881518457888e+22
3.21881518657412e+22
3.21881518856813e+22
3.21881519035544e+22
3.21881519219063e+22
3.21881519381924e+22
3.21881519551583e+22
3.21881519702682e+22
3.21881519858976e+22
3.21881519998196e+22
3.21881520139693e+22
3.21881520263349e+22
3.21881520388353e+22
3.21881520494002e+22
3.2188152060147e+22
3.21881520745865e+22
3.21881520936351e+22
3.21881521111012e+22
3.21881521290909e+22
3.21881521456695e+22
3.21881521628858e+22
3.21881521788138e+22
3.21881521952166e+22
3.21881522102332e+22
3.21881522254771e+22
3.21881522392001e+22
3.21881522530949e+22
3.21881522656744e+22
3.21881522786815e+22
3.21881522905452e+22
3.21881523031743e+22
3.21881523146953e+22
3.21881523272006e+22
3.21881523382047e+22
3.21881523504221e+22
3.21881523607594e+22
3.21881523724644e+22
3.21881523823462e+22
3.21881523934337e+22
3.21881524028248e+22
3.21881524189207e+22
3.21881524339533e+22
3.21881524501074e+22
3.21881524641137e+22
3.21881524795932e+22
3.21881524924139e+22
3.2188152507092e+22
3.21881525185625e+22
3.21881525325562e+22
3.21881525431687e+22
3.2188152556754e+22
3.21881525671802e+22
3.21881525804923e+22
3.21881525908928e+22
3.21881526041209e+22
3.21881526144662e+22
3.21881526277894e+22
3.21881526379127e+22
3.2188152651038e+22
3.21881526604402e+22
3.21881526730035e+22
3.21881526811265e+22
3.21881526929969e+22
3.21881526999326e+22
3.2188152711079e+22
3.21881527170962e+22
3.21881527278301e+22
3.21881527335365e+22
3.21881527440558e+22
3.21881527498706e+22
3.21881527606612e+22
3.21881527668331e+22
3.2188152780873e+22
)
;

boundaryField
{
    electrode
    {
        type            zeroGradient;
    }
    ground
    {
        type            zeroGradient;
    }
    otherfaces
    {
        type            empty;
    }
}


// ************************************************************************* //
