/*--------------------------------*- C++ -*----------------------------------*\
| =========                 |                                                 |
| \\      /  F ield         | foam-extend: Open Source CFD                    |
|  \\    /   O peration     | Version:     4.0                                |
|   \\  /    A nd           | Web:         http://www.foam-extend.org         |
|    \\/     M anipulation  |                                                 |
\*---------------------------------------------------------------------------*/
FoamFile
{
    version     2.0;
    format      ascii;
    class       volScalarField;
    location    "2e-06";
    object      Arm;
}
// * * * * * * * * * * * * * * * * * * * * * * * * * * * * * * * * * * * * * //

dimensions      [0 0 0 1 0 0 0];

internalField   nonuniform List<scalar> 
300
(
3.57415718189976e+15
3.57603661889558e+15
3.57798628068938e+15
3.57929207508299e+15
3.58010823508791e+15
3.58048670349768e+15
3.5804716941006e+15
3.58009463598956e+15
3.57938118485293e+15
3.57835332848955e+15
3.5770268347462e+15
3.57541579027694e+15
3.57353224761322e+15
3.57138680901609e+15
3.56898893121894e+15
3.56634716326659e+15
3.56346631745433e+15
3.56035498643458e+15
3.55702151415545e+15
3.55347237782491e+15
3.54971377891138e+15
3.5457516391302e+15
3.5415916485043e+15
3.53723927780748e+15
3.53268378602363e+15
3.52794297331885e+15
3.52302052486783e+15
3.5179184365472e+15
3.51265033096608e+15
3.50722110398511e+15
3.50161693210663e+15
3.49584921693319e+15
3.48993609399e+15
3.48388292809632e+15
3.47769480552075e+15
3.47137653428843e+15
3.46492827206549e+15
3.45835654368812e+15
3.45166842427072e+15
3.44486744406693e+15
3.43795710412007e+15
3.43094268538395e+15
3.42382806699067e+15
3.4166169405805e+15
3.40931280642753e+15
3.40191893135373e+15
3.39443625583526e+15
3.3868662425251e+15
3.37920110490035e+15
3.37143945893336e+15
3.3635686473777e+15
3.35560123941508e+15
3.34753178070833e+15
3.33937803909906e+15
3.33114812148287e+15
3.32285843064476e+15
3.31451224863996e+15
3.30611249162483e+15
3.29766173436253e+15
3.28916038580395e+15
3.28061277052314e+15
3.27202100449648e+15
3.26338175643387e+15
3.25467700846148e+15
3.24591073937568e+15
3.23710860290143e+15
3.22827265753975e+15
3.21940474305896e+15
3.21050644526669e+15
3.20157912669887e+15
3.19262194800303e+15
3.18362773989085e+15
3.17459496037614e+15
3.16553110084878e+15
3.1564225646282e+15
3.14727042462742e+15
3.13808104842474e+15
3.12885025310722e+15
3.11959813259177e+15
3.11029394953768e+15
3.10097244025761e+15
3.0916356892984e+15
3.08228059639373e+15
3.0729094564423e+15
3.06350738909782e+15
3.05408216476109e+15
3.04464551259773e+15
3.03519775423543e+15
3.02572693012472e+15
3.01624084588303e+15
3.00673352552423e+15
2.99715969972296e+15
2.98757487830497e+15
2.97798061960962e+15
2.9683769501836e+15
2.95876389651108e+15
2.94914124024347e+15
2.93950856459714e+15
2.92985490047578e+15
2.92018019381046e+15
2.91049072518425e+15
2.90078781771397e+15
2.8910395608709e+15
2.88127533545256e+15
2.87148586281693e+15
2.86166175994475e+15
2.85181814139758e+15
2.84193529380458e+15
2.83202369577762e+15
2.82208880262745e+15
2.81212873355797e+15
2.80214120986736e+15
2.79211847397352e+15
2.78205832217333e+15
2.77195855768306e+15
2.76180150627544e+15
2.75156821166334e+15
2.74128357857199e+15
2.73094845707672e+15
2.72055478197268e+15
2.7100760752409e+15
2.69952542526985e+15
2.68887371731083e+15
2.67813140508451e+15
2.66730994231761e+15
2.6564071472751e+15
2.64539479769224e+15
2.63429044305978e+15
2.62308319820047e+15
2.61177105672868e+15
2.60033833603754e+15
2.58878118609365e+15
2.57709463983508e+15
2.56525259362053e+15
2.55321848166897e+15
2.54101126793547e+15
2.52863489742517e+15
2.51606427256141e+15
2.50328050126062e+15
2.49029278676781e+15
2.4770851042864e+15
2.46364082155642e+15
2.44992776931172e+15
2.43591383729976e+15
2.42157435550202e+15
2.40692924633793e+15
2.39196359113154e+15
2.37666104553378e+15
2.36099107866715e+15
2.34490467716077e+15
2.32841442285943e+15
2.31149556800342e+15
2.29408569230032e+15
2.27618372872202e+15
2.25777144297807e+15
2.23879904710899e+15
2.21922323452185e+15
2.19904354828123e+15
2.17824085391454e+15
2.15677013681396e+15
2.13459577335242e+15
2.11170273979403e+15
2.08805266920982e+15
2.06365822302807e+15
2.03850643134958e+15
2.01254254412613e+15
1.98578746243319e+15
1.95828581605581e+15
1.93006652872706e+15
1.90117154870772e+15
1.871669573826e+15
1.84159378538757e+15
1.8110365356e+15
1.78016942365189e+15
1.74918646951636e+15
1.71825746985186e+15
1.68756159570839e+15
1.65729781516411e+15
1.62770511974169e+15
1.59893894947593e+15
1.57115358349162e+15
1.54449614235543e+15
1.51904782184687e+15
1.49492360173332e+15
1.47212321396689e+15
1.45055592142725e+15
1.43026144105369e+15
1.41118806571585e+15
1.3932467492429e+15
1.37634815361799e+15
1.3603703399353e+15
1.34526622892003e+15
1.33102189745457e+15
1.31844616320966e+15
1.31944686390305e+15
1.3397082776185e+15
1.36006565376565e+15
1.36418341093918e+15
1.35744876409901e+15
1.34572380162716e+15
1.33066589143083e+15
1.3154037970957e+15
1.30189740400852e+15
1.29056130034983e+15
1.28139594188238e+15
1.2736505773845e+15
1.26667079380209e+15
1.26057526840822e+15
1.25510800560549e+15
1.24998827403332e+15
1.24472527788949e+15
1.23957359092087e+15
1.23454181104254e+15
1.22955550080263e+15
1.22461539136021e+15
1.21968377712804e+15
1.21472687212493e+15
1.20976949688762e+15
1.20479201943933e+15
1.19979227485412e+15
1.19478409551671e+15
1.18975854189084e+15
1.18472184960944e+15
1.17962591299597e+15
1.17449682641295e+15
1.16940052982903e+15
1.16435732288017e+15
1.15936471485929e+15
1.1544346100601e+15
1.14958405599284e+15
1.14480691817617e+15
1.14011268781395e+15
1.1355155536978e+15
1.13101277413898e+15
1.12660503448463e+15
1.12230971547761e+15
1.11811101275616e+15
1.11402777643424e+15
1.11004799853749e+15
1.10618117742623e+15
1.10242636471269e+15
1.09877411157423e+15
1.09523744250856e+15
1.09180014190138e+15
1.08846612796629e+15
1.08524847176265e+15
1.08213070980474e+15
1.07911793167183e+15
1.07621027897248e+15
1.07339762519612e+15
1.07068477081632e+15
1.06806536623458e+15
1.06553464233502e+15
1.06309616436214e+15
1.06074193927137e+15
1.05847010104878e+15
1.05628008900863e+15
1.05415738406028e+15
1.05211196478376e+15
1.05013711330101e+15
1.04823982262664e+15
1.04640880397543e+15
1.04464836638004e+15
1.04295173194139e+15
1.0413182075759e+15
1.03974562544111e+15
1.03822831402646e+15
1.03676539172416e+15
1.03534821640325e+15
1.03398456650564e+15
1.03266838425568e+15
1.03140664165991e+15
1.03018763274598e+15
1.02901847803982e+15
1.02788826875966e+15
1.02679669510221e+15
1.02574305129697e+15
1.02472826522302e+15
1.02375514927917e+15
1.02281802734745e+15
1.02191640365863e+15
1.02104355492224e+15
1.02016349540752e+15
1.01928963575384e+15
1.01844886605815e+15
1.01763095944644e+15
1.01684247749457e+15
1.01608346250166e+15
1.01534639276561e+15
1.01456677273906e+15
1.01377230080837e+15
1.01300272628973e+15
1.01225696414239e+15
1.01142912372607e+15
1.01058862584187e+15
1.00973070341939e+15
1.00875719248827e+15
1.00769701631125e+15
1.00648625629429e+15
1.00502185893113e+15
)
;

boundaryField
{
    electrode
    {
        type            zeroGradient;
    }
    ground
    {
        type            zeroGradient;
    }
    otherfaces
    {
        type            empty;
    }
}


// ************************************************************************* //
