/*--------------------------------*- C++ -*----------------------------------*\
| =========                 |                                                 |
| \\      /  F ield         | foam-extend: Open Source CFD                    |
|  \\    /   O peration     | Version:     4.0                                |
|   \\  /    A nd           | Web:         http://www.foam-extend.org         |
|    \\/     M anipulation  |                                                 |
\*---------------------------------------------------------------------------*/
FoamFile
{
    version     2.0;
    format      ascii;
    class       volScalarField;
    location    "2e-06";
    object      Arp1;
}
// * * * * * * * * * * * * * * * * * * * * * * * * * * * * * * * * * * * * * //

dimensions      [0 0 0 1 0 0 0];

internalField   nonuniform List<scalar> 
300
(
6.00051571012958e+16
6.00323712741746e+16
6.00153952868412e+16
6.00056976704059e+16
5.99945351578158e+16
5.99795490925509e+16
5.99613087512699e+16
5.99398774062568e+16
5.9915209253036e+16
5.98873160199073e+16
5.98562085704976e+16
5.98218947888303e+16
5.97843842224169e+16
5.97436874823784e+16
5.96998159863482e+16
5.96527820320116e+16
5.96025987966057e+16
5.95492803204367e+16
5.94928414976444e+16
5.9433298065317e+16
5.93706665902234e+16
5.93049644554125e+16
5.92362098448181e+16
5.91644217261972e+16
5.9089619833247e+16
5.90118246460422e+16
5.89310573690259e+16
5.88473399086798e+16
5.8760694848827e+16
5.86711454238832e+16
5.85787154908564e+16
5.8483429499881e+16
5.83853124617757e+16
5.82843899146077e+16
5.81806878885779e+16
5.80742328679229e+16
5.79650517519448e+16
5.7853171813931e+16
5.77386206573134e+16
5.76214261709591e+16
5.75016164822681e+16
5.73792199075936e+16
5.72542649017988e+16
5.71267800055646e+16
5.6996793790293e+16
5.68643348020825e+16
5.67294315036184e+16
5.65921122136275e+16
5.64524050456506e+16
5.63103378449247e+16
5.61659381226235e+16
5.60192329901077e+16
5.58702490907396e+16
5.57190125301153e+16
5.55655488053903e+16
5.54098827333843e+16
5.52520383767024e+16
5.50920389692101e+16
5.49299068407062e+16
5.47656633393849e+16
5.45993287545495e+16
5.44309222380094e+16
5.426046172402e+16
5.40879638494184e+16
5.39134438727832e+16
5.37369155923702e+16
5.35583912644685e+16
5.33778815211001e+16
5.31953952866833e+16
5.30109396953753e+16
5.28245200081507e+16
5.26361395290462e+16
5.24457995224152e+16
5.22534991301888e+16
5.20592352886424e+16
5.1863002646581e+16
5.16647934838507e+16
5.14645976295825e+16
5.12624023824699e+16
5.10581924314044e+16
5.0851949776968e+16
5.06436536543688e+16
5.04332804580597e+16
5.02208036672158e+16
5.00061937732444e+16
4.97894182095802e+16
4.95704412825995e+16
4.93492241054064e+16
4.91257245342631e+16
4.8899897106494e+16
4.86716929825069e+16
4.8441059890154e+16
4.82079420722286e+16
4.79722802374423e+16
4.77340115155688e+16
4.74930694155111e+16
4.72493837881325e+16
4.70028807934355e+16
4.67534828714832e+16
4.65011087189682e+16
4.62456732704359e+16
4.59870876845411e+16
4.57252593357133e+16
4.54600918121318e+16
4.51914849189236e+16
4.49193346875033e+16
4.46435333921241e+16
4.43639695721475e+16
4.40805280614032e+16
4.37930900253863e+16
4.35015330048557e+16
4.32057309674348e+16
4.29055543677988e+16
4.2600870214988e+16
4.22915421487014e+16
4.19774305249711e+16
4.16583925098921e+16
4.13342821835828e+16
4.10049506539798e+16
4.06702461806282e+16
4.03300143093116e+16
3.99840980183141e+16
3.96323378757835e+16
3.92745722101192e+16
3.89106372934549e+16
3.8540367538768e+16
3.81635957121386e+16
3.77801531613331e+16
3.73898700607849e+16
3.69925756762214e+16
3.65880986489113e+16
3.61762673016582e+16
3.57569099660043e+16
3.53298554200794e+16
3.48949331615895e+16
3.44519735465504e+16
3.40008084971923e+16
3.35412721458811e+16
3.30732009800864e+16
3.25964344187523e+16
3.21108156703091e+16
3.16161923997963e+16
3.11124174424002e+16
3.05993496480921e+16
3.00768548194126e+16
2.95448067736457e+16
2.90030885503955e+16
2.84515937931347e+16
2.78902283442541e+16
2.731891210252e+16
2.67375811945144e+16
2.61461905425635e+16
2.55447169253096e+16
2.49331626500472e+16
2.43115599827924e+16
2.36799765428618e+16
2.30385220813093e+16
2.23873558862868e+16
2.17266991051973e+16
2.10568422026561e+16
2.03781687688955e+16
1.96911633343649e+16
1.89963965002419e+16
1.82948167542378e+16
1.75869896939815e+16
1.68720185588245e+16
1.61618496100186e+16
1.54602929186221e+16
1.47598658436464e+16
1.40596231844838e+16
1.33738466684163e+16
1.27042546613363e+16
1.2056652832844e+16
1.142018226546e+16
1.08062837823993e+16
1.02295247628471e+16
9.64540297102368e+15
9.12457819564824e+15
8.6270923184766e+15
8.17202844843339e+15
7.7632824940947e+15
7.33749510726466e+15
6.98864015662068e+15
6.66583042204419e+15
6.35688184476689e+15
6.10087653465711e+15
5.87668362092673e+15
5.6401562813425e+15
5.4560161696823e+15
5.29502498773492e+15
5.1392705331926e+15
4.98313756795557e+15
4.8612298825592e+15
4.75482016401863e+15
4.70385674501382e+15
4.68327754817868e+15
4.67779959244451e+15
4.67040900064332e+15
4.65566272469264e+15
4.63130724717267e+15
4.60548503005757e+15
4.57777346406378e+15
4.53186616068644e+15
4.48254298266658e+15
4.43790997491794e+15
4.39772296920657e+15
4.36261699424439e+15
4.3316929106215e+15
4.30584807155811e+15
4.28377857694672e+15
4.26612153829898e+15
4.244476945468e+15
4.21440047466304e+15
4.18713148544274e+15
4.16305875275019e+15
4.14142055004349e+15
4.12207036793718e+15
4.10474488391744e+15
4.08945099243846e+15
4.07559776897465e+15
4.06402440970209e+15
4.05305749344967e+15
4.04472710490401e+15
4.03655263068854e+15
4.02603597229372e+15
4.00689119393955e+15
3.98989742269931e+15
3.97299936379997e+15
3.95800731390136e+15
3.94294839160711e+15
3.92988336412681e+15
3.91625674759242e+15
3.90459887443941e+15
3.89216654694482e+15
3.88149494082324e+15
3.87019104489265e+15
3.8604974416873e+15
3.85046018567733e+15
3.84210293406636e+15
3.83349734006236e+15
3.82671444865345e+15
3.81964637509408e+15
3.8087693368599e+15
3.79318308918627e+15
3.77907519436208e+15
3.76432668745233e+15
3.7508885532819e+15
3.7367068762441e+15
3.72370773803184e+15
3.71013812906029e+15
3.6978540122427e+15
3.68524855817995e+15
3.6740746908558e+15
3.66263603112689e+15
3.65242776752497e+15
3.64170889671166e+15
3.63205098523557e+15
3.62155975027235e+15
3.61209878496862e+15
3.60158241819227e+15
3.59248921562118e+15
3.58211581454576e+15
3.57355159784316e+15
3.56355522916315e+15
3.55531862964516e+15
3.54581492640927e+15
3.53795201166183e+15
3.52332940825197e+15
3.50972403222043e+15
3.49494326287896e+15
3.48226256529039e+15
3.4680538845561e+15
3.45646092333257e+15
3.44296043239704e+15
3.43262830021441e+15
3.41973410118021e+15
3.41018289774346e+15
3.39761981546157e+15
3.38817382589036e+15
3.37580567484656e+15
3.36631347693029e+15
3.35396465719188e+15
3.34450564095072e+15
3.33206235313497e+15
3.32278563480877e+15
3.31048385255466e+15
3.30187557893094e+15
3.29007658865953e+15
3.28269572425608e+15
3.27160981787012e+15
3.26547324598571e+15
3.25510093343162e+15
3.24983374700629e+15
3.23993176435799e+15
3.23506962964916e+15
3.22541165451935e+15
3.2205731891623e+15
3.21084493985353e+15
3.20588463086103e+15
3.19330792628894e+15
)
;

boundaryField
{
    electrode
    {
        type            driftDiffusionPositiveIonDensity;
        seec            0;
        fieldName       Arp1;
        value           uniform 5.99074636370236e+16;
    }
    ground
    {
        type            driftDiffusionPositiveIonDensity;
        seec            0;
        fieldName       Arp1;
        value           uniform 3.19330792628894e+15;
    }
    otherfaces
    {
        type            empty;
    }
}


// ************************************************************************* //
