/*--------------------------------*- C++ -*----------------------------------*\
| =========                 |                                                 |
| \\      /  F ield         | foam-extend: Open Source CFD                    |
|  \\    /   O peration     | Version:     4.0                                |
|   \\  /    A nd           | Web:         http://www.foam-extend.org         |
|    \\/     M anipulation  |                                                 |
\*---------------------------------------------------------------------------*/
FoamFile
{
    version     2.0;
    format      ascii;
    class       volVectorField;
    location    "2e-06";
    object      E;
}
// * * * * * * * * * * * * * * * * * * * * * * * * * * * * * * * * * * * * * //

dimensions      [0 0 0 1 0 0 0];

internalField   nonuniform List<vector> 
300
(
(4.16871683422971 -0 -0)
(9.06229867397855 -0 -0)
(15.5622793859833 -0 -0)
(21.9188032515863 -0 -0)
(28.14957679037 -0 -0)
(34.3923008863659 -0 -0)
(40.6344589518053 -0 -0)
(46.8706867068337 -0 -0)
(53.1019592298071 -0 -0)
(59.3275620505712 -0 -0)
(65.5466074250809 -0 -0)
(71.7583655829308 -0 -0)
(77.9620932186983 -0 -0)
(84.1570378801155 -0 -0)
(90.3424516487958 -0 -0)
(96.5175902201142 -0 -0)
(102.681713544381 -0 -0)
(108.83408748802 -0 -0)
(114.973985415602 -0 -0)
(121.100689846885 -0 -0)
(127.213494272028 -0 -0)
(133.311705162454 -0 -0)
(139.394644040056 -0 -0)
(145.461649783686 -0 -0)
(151.512081023044 -0 -0)
(157.545318749116 -0 -0)
(163.560769061989 -0 -0)
(169.5578660893 -0 -0)
(175.536075017187 -0 -0)
(181.494895354352 -0 -0)
(187.433864341799 -0 -0)
(193.352560441634 -0 -0)
(199.250607071952 -0 -0)
(205.127676511395 -0 -0)
(210.983493825713 -0 -0)
(216.817841093586 -0 -0)
(222.630561677617 -0 -0)
(228.421564642209 -0 -0)
(234.190829387384 -0 -0)
(239.938410323572 -0 -0)
(245.664441726695 -0 -0)
(251.369142663408 -0 -0)
(257.052822161288 -0 -0)
(262.715884342905 -0 -0)
(268.358833763219 -0 -0)
(273.982280912828 -0 -0)
(279.586947630971 -0 -0)
(285.173672896794 -0 -0)
(290.743418507352 -0 -0)
(296.297274977816 -0 -0)
(301.83646749091 -0 -0)
(307.362361982895 -0 -0)
(312.876471343586 -0 -0)
(318.380461607236 -0 -0)
(323.876158467327 -0 -0)
(329.365553643148 -0 -0)
(334.850811536979 -0 -0)
(340.334275923704 -0 -0)
(345.818476771218 -0 -0)
(351.306137122454 -0 -0)
(356.800180209595 -0 -0)
(362.303736557639 -0 -0)
(367.820151274441 -0 -0)
(373.35299150624 -0 -0)
(378.90605394101 -0 -0)
(384.483372493953 -0 -0)
(390.089226175217 -0 -0)
(395.728147034511 -0 -0)
(401.404928313013 -0 -0)
(407.124632714788 -0 -0)
(412.892600938549 -0 -0)
(418.714460270799 -0 -0)
(424.596133490093 -0 -0)
(430.543847873468 -0 -0)
(436.56414447234 -0 -0)
(442.663887632907 -0 -0)
(448.850274718721 -0 -0)
(455.130846081828 -0 -0)
(461.513495415889 -0 -0)
(468.006480273856 -0 -0)
(474.61843295937 -0 -0)
(481.358371899658 -0 -0)
(488.235713162658 -0 -0)
(495.260282580616 -0 -0)
(502.44232827628 -0 -0)
(509.792533632986 -0 -0)
(517.322030871349 -0 -0)
(525.042415228156 -0 -0)
(532.965759712681 -0 -0)
(541.104630727482 -0 -0)
(549.472104312332 -0 -0)
(558.081783435974 -0 -0)
(566.947816114993 -0 -0)
(576.084914692743 -0 -0)
(585.508376328587 -0 -0)
(595.23410464313 -0 -0)
(605.278632981388 -0 -0)
(615.659149136178 -0 -0)
(626.393521922847 -0 -0)
(637.500329579772 -0 -0)
(648.998890449708 -0 -0)
(660.909295857676 -0 -0)
(673.252445714041 -0 -0)
(686.050086927265 -0 -0)
(699.324854958118 -0 -0)
(713.100318861026 -0 -0)
(727.401030163479 -0 -0)
(742.25257594436 -0 -0)
(757.681636544345 -0 -0)
(773.716048425698 -0 -0)
(790.384872530266 -0 -0)
(807.718469034254 -0 -0)
(825.748578739235 -0 -0)
(844.508412076255 -0 -0)
(864.03274635891 -0 -0)
(884.358032192215 -0 -0)
(905.522509933683 -0 -0)
(927.566337251355 -0 -0)
(950.531728918599 -0 -0)
(974.463110070644 -0 -0)
(999.407284355102 -0 -0)
(1025.41361829946 -0 -0)
(1052.53424362025 -0 -0)
(1080.82427906788 -0 -0)
(1110.34207347626 -0 -0)
(1141.14947175488 -0 -0)
(1173.3121054237 -0 -0)
(1206.89970910502 -0 -0)
(1241.98646408598 -0 -0)
(1278.65137029712 -0 -0)
(1316.97864828557 -0 -0)
(1357.05817622828 -0 -0)
(1398.98599089433 -0 -0)
(1442.8644988959 -0 -0)
(1488.8008100804 -0 -0)
(1536.91663604972 -0 -0)
(1587.34572484577 -0 -0)
(1640.22367013535 -0 -0)
(1695.7036532513 -0 -0)
(1753.95674989718 -0 -0)
(1815.16510033163 -0 -0)
(1879.52736148154 -0 -0)
(1947.26052002952 -0 -0)
(2018.60224879635 -0 -0)
(2093.81363609365 -0 -0)
(2173.18233115921 -0 -0)
(2257.02617562713 -0 -0)
(2345.69741248019 -0 -0)
(2439.58758681894 -0 -0)
(2539.13327825118 -0 -0)
(2644.82283458713 -0 -0)
(2757.20431395452 -0 -0)
(2876.89488942282 -0 -0)
(3004.59202793621 -0 -0)
(3141.0868258871 -0 -0)
(3287.2799776682 -0 -0)
(3444.20096327376 -0 -0)
(3613.03115527025 -0 -0)
(3795.13185820479 -0 -0)
(3992.07814027513 -0 -0)
(4205.70044795869 -0 -0)
(4438.13456062109 -0 -0)
(4691.88465871732 -0 -0)
(4969.9239085394 -0 -0)
(5275.73534458622 -0 -0)
(5613.51871398211 -0 -0)
(5989.96679585813 -0 -0)
(6414.80650628794 -0 -0)
(6898.06184199435 -0 -0)
(7449.30401303101 -0 -0)
(8080.81215080753 -0 -0)
(8808.40771571406 -0 -0)
(9649.6502554022 -0 -0)
(10621.0066927692 -0 -0)
(11738.4872980489 -0 -0)
(13019.8697787257 -0 -0)
(14475.6626667895 -0 -0)
(16117.4711759682 -0 -0)
(17957.7387255681 -0 -0)
(20000.3920506539 -0 -0)
(22245.369688002 -0 -0)
(24672.7506230042 -0 -0)
(27263.0236522624 -0 -0)
(30001.0613295531 -0 -0)
(32854.0621322862 -0 -0)
(35793.6273326637 -0 -0)
(38797.9447642373 -0 -0)
(41830.957400465 -0 -0)
(44865.1942298325 -0 -0)
(47890.2509657307 -0 -0)
(50889.8105447593 -0 -0)
(53844.9654682091 -0 -0)
(56747.2141112956 -0 -0)
(59605.5087270077 -0 -0)
(62434.7667261767 -0 -0)
(65248.8167213737 -0 -0)
(68060.6363994348 -0 -0)
(70872.8195587693 -0 -0)
(73680.4907353114 -0 -0)
(76478.3372713197 -0 -0)
(79262.0246557349 -0 -0)
(82030.0534805308 -0 -0)
(84776.1161545941 -0 -0)
(87493.591178768 -0 -0)
(90182.8107297185 -0 -0)
(92846.4975449024 -0 -0)
(95487.5089314738 -0 -0)
(98108.6257775986 -0 -0)
(100712.631377078 -0 -0)
(103302.192949066 -0 -0)
(105879.77734978 -0 -0)
(108445.511024849 -0 -0)
(110995.647623694 -0 -0)
(113528.49169291 -0 -0)
(116045.854832615 -0 -0)
(118549.436354519 -0 -0)
(121040.661964111 -0 -0)
(123520.833689444 -0 -0)
(125991.176337107 -0 -0)
(128452.738368339 -0 -0)
(130906.643145745 -0 -0)
(133353.762635682 -0 -0)
(135795.075872184 -0 -0)
(138231.42588882 -0 -0)
(140662.154282505 -0 -0)
(143083.953606972 -0 -0)
(145494.871198919 -0 -0)
(147895.585096935 -0 -0)
(150286.699462043 -0 -0)
(152668.7692215 -0 -0)
(155042.375792265 -0 -0)
(157407.951352079 -0 -0)
(159765.920316598 -0 -0)
(162116.642886923 -0 -0)
(164460.416360998 -0 -0)
(166797.580820819 -0 -0)
(169128.430897699 -0 -0)
(171453.348144985 -0 -0)
(173772.735166603 -0 -0)
(176087.023254141 -0 -0)
(178396.686751365 -0 -0)
(180702.188986213 -0 -0)
(183002.294975632 -0 -0)
(185294.43543338 -0 -0)
(187577.635528295 -0 -0)
(189852.147489646 -0 -0)
(192118.172898157 -0 -0)
(194375.882334339 -0 -0)
(196625.407719231 -0 -0)
(198866.933037472 -0 -0)
(201100.673374363 -0 -0)
(203326.918945329 -0 -0)
(205546.004073841 -0 -0)
(207758.280268497 -0 -0)
(209964.038491663 -0 -0)
(212163.495502573 -0 -0)
(214356.817283338 -0 -0)
(216544.07196866 -0 -0)
(218725.318691341 -0 -0)
(220900.549746584 -0 -0)
(223069.875425878 -0 -0)
(225233.338552114 -0 -0)
(227391.09825434 -0 -0)
(229543.268025897 -0 -0)
(231689.946347906 -0 -0)
(233831.28152349 -0 -0)
(235967.385993937 -0 -0)
(238096.715713445 -0 -0)
(240217.538587321 -0 -0)
(242329.806477653 -0 -0)
(244433.798049014 -0 -0)
(246529.685601137 -0 -0)
(248617.796903567 -0 -0)
(250698.345289994 -0 -0)
(252771.71084708 -0 -0)
(254838.076434791 -0 -0)
(256897.677495196 -0 -0)
(258950.61398053 -0 -0)
(260996.917515788 -0 -0)
(263036.646788053 -0 -0)
(265069.787803169 -0 -0)
(267096.346177097 -0 -0)
(269116.331802534 -0 -0)
(271129.716064705 -0 -0)
(273136.553672722 -0 -0)
(275136.886978875 -0 -0)
(277130.917381536 -0 -0)
(279118.796142775 -0 -0)
(281100.893156234 -0 -0)
(283077.423397814 -0 -0)
(285048.762009246 -0 -0)
(287015.124143051 -0 -0)
(288976.771965582 -0 -0)
(290933.847388769 -0 -0)
(292886.472331811 -0 -0)
(294834.720297307 -0 -0)
(296778.597771925 -0 -0)
(298718.082852189 -0 -0)
(300653.143350917 -0 -0)
(302582.917211225 -0 -0)
)
;

boundaryField
{
    electrode
    {
        type            calculated;
        value           uniform (2.52949435434858 -0 -0);
    }
    ground
    {
        type            calculated;
        value           uniform (303545.90639913 -0 -0);
    }
    otherfaces
    {
        type            empty;
    }
}


// ************************************************************************* //
