/*--------------------------------*- C++ -*----------------------------------*\
| =========                 |                                                 |
| \\      /  F ield         | foam-extend: Open Source CFD                    |
|  \\    /   O peration     | Version:     4.0                                |
|   \\  /    A nd           | Web:         http://www.foam-extend.org         |
|    \\/     M anipulation  |                                                 |
\*---------------------------------------------------------------------------*/
FoamFile
{
    version     2.0;
    format      ascii;
    class       volScalarField;
    location    "2e-06";
    object      electron;
}
// * * * * * * * * * * * * * * * * * * * * * * * * * * * * * * * * * * * * * //

dimensions      [0 0 0 1 0 0 0];

internalField   nonuniform List<scalar> 
300
(
6.00117409739864e+16
6.00094939247433e+16
6.00043043752238e+16
5.99958395807841e+16
5.9984123814945e+16
5.99691666884044e+16
5.99509695888004e+16
5.99295376796621e+16
5.99048771897256e+16
5.98769950144081e+16
5.98458989860532e+16
5.98115978517088e+16
5.97741012510108e+16
5.97334197154133e+16
5.96895646628762e+16
5.96425483903886e+16
5.95923840658627e+16
5.95390857189484e+16
5.94826682306507e+16
5.94231473217337e+16
5.93605395398635e+16
5.92948622454223e+16
5.92261335959493e+16
5.91543725291537e+16
5.90795987444429e+16
5.90018326829186e+16
5.89210955057793e+16
5.8837409071085e+16
5.87507959088472e+16
5.86612791943939e+16
5.85688827199603e+16
5.84736308644882e+16
5.83755485615981e+16
5.82746612656878e+16
5.81709949161546e+16
5.806457589972e+16
5.79554310108326e+16
5.78435874101575e+16
5.77290725811336e+16
5.76119142846021e+16
5.74921405115197e+16
5.73697794337702e+16
5.72448593530763e+16
5.71174086480385e+16
5.69874557193401e+16
5.685502893312e+16
5.6720156562575e+16
5.6582866727818e+16
5.64431873340204e+16
5.63011460079062e+16
5.61567700326318e+16
5.6010086281108e+16
5.58611211478098e+16
5.57099004791494e+16
5.55564495024518e+16
5.54007927536007e+16
5.52429540034325e+16
5.50829561829224e+16
5.49208213072423e+16
5.47565703987673e+16
5.45902234090877e+16
5.44217991401067e+16
5.42513151643104e+16
5.40787877442693e+16
5.39042317514606e+16
5.37276605845025e+16
5.35490860868659e+16
5.33685184641624e+16
5.31859662010975e+16
5.30014359781837e+16
5.28149325882994e+16
5.2626458853201e+16
5.24360155400879e+16
5.22436012783248e+16
5.204921247644e+16
5.18528432394995e+16
5.16544852869824e+16
5.14541278712896e+16
5.12517576969971e+16
5.10473588409945e+16
5.08409126736603e+16
5.06323977811867e+16
5.04217898892216e+16
5.02090617879877e+16
4.99941832590144e+16
4.97771210036616e+16
4.95578385736057e+16
4.93362963034441e+16
4.91124512456126e+16
4.88862571077841e+16
4.86576641929395e+16
4.84266193423006e+16
4.81930658813128e+16
4.79569435688792e+16
4.77181885500242e+16
4.74767333122041e+16
4.7232506645459e+16
4.69854336065986e+16
4.67354354876276e+16
4.64824297886117e+16
4.62263301951794e+16
4.59670465608571e+16
4.57044848944406e+16
4.54385473525817e+16
4.51691322377942e+16
4.48961340020641e+16
4.46194432562468e+16
4.43389467854329e+16
4.40545275704653e+16
4.37660648157755e+16
4.34734339837296e+16
4.31765068356386e+16
4.28751514796031e+16
4.25692324253749e+16
4.22586106463951e+16
4.19431436491848e+16
4.16226855502692e+16
4.12970871608247e+16
4.09661960792614e+16
4.06298567919772e+16
4.02879107825525e+16
3.99401966497273e+16
3.95865502345865e+16
3.9226804757493e+16
3.88607909655033e+16
3.84883372912557e+16
3.81092700246732e+16
3.7723413499311e+16
3.73305902958129e+16
3.69306214656346e+16
3.65233267787712e+16
3.61085249989098e+16
3.56860341858467e+16
3.52556720089282e+16
3.48172561101869e+16
3.43706018990871e+16
3.39155176686769e+16
3.34518142445223e+16
3.29793094151129e+16
3.24978210985539e+16
3.20071679029766e+16
3.15071694485457e+16
3.09976467339284e+16
3.04784225146814e+16
2.99493216771823e+16
2.9410171603966e+16
2.88608025320836e+16
2.83010479081459e+16
2.77307447444909e+16
2.71497339814097e+16
2.65578608612694e+16
2.59549753221291e+16
2.53409324212981e+16
2.47155928037355e+16
2.40788232369869e+16
2.34304972441713e+16
2.27704958797544e+16
2.20987087153476e+16
2.14150351211407e+16
2.07193859766458e+16
2.00116859668486e+16
1.92918766392136e+16
1.85599204539362e+16
1.78158044390195e+16
1.70595433482572e+16
1.62911799695231e+16
1.5510701353032e+16
1.47178922081274e+16
1.39123865052193e+16
1.30939387358148e+16
1.22625960447208e+16
1.141875125995e+16
1.0563324550575e+16
9.69816183194295e+15
8.82647773258614e+15
7.95309750858382e+15
7.0847606222729e+15
6.23017858909887e+15
5.39962389680487e+15
4.6045150712077e+15
3.85674378835956e+15
3.16784109459465e+15
2.54783459829085e+15
2.00393045234741e+15
1.53978637912087e+15
1.15518576642091e+15
846155338003740
605451571891917
423713123884674
290767364962545
196386274686981
131221382807662
87389567339076
58618062556842.4
39041277117658.9
25311430431964.8
15895819990765
9786202430466.49
6184114312005.8
4170372903477.75
3056582753211.15
2429508967854.7
2067024688285.2
1852843033126.96
1724656191377.8
1648004301755.38
1602856705289.06
1576949775474.69
1562785904664.04
1555479250361.33
1551723925784.88
1549238245972.23
1546546236310.77
1542703772294.18
1537100461068.55
1529365560995.52
1519299401826.75
1506827205348.57
1491965437216.08
1474795734322.14
1455447636457.34
1434060942322.19
1410781721624.8
1385798501554.66
1359327839458.74
1331592399291.09
1302813836455.57
1273205775665.73
1242970188956.72
1212295616749.98
1181356065039.06
1150310460902.72
1119302493354.36
1088460725613.49
1057898963950
1027716778559.97
998000167912.238
968822321187.04
940244444696.606
912316657771.115
885078926156.423
858562016541.781
832788762616.219
807775438034.532
783532333291.521
760063698461.574
737368270320.2
715436771735.21
694251315505.588
673796314303.981
654059830605.538
635027594092.263
616683572374.128
599010008125.107
581987944995.96
565597369538.011
549819859680.577
534633499303.506
520012019784.787
505935070242.86
492384257345.605
479338955759.877
466779046086.757
454684770712.894
443036950655.757
431817060240.589
421006862618.556
410588953904.188
400538691043.294
390832423888.632
381455702663.059
372395366371.071
363639488836.081
355176901544.663
346997196687.14
339090719182.1
331448600582.242
324062786271.542
316926085327.943
310032165326.515
303375625260.205
296951120973.508
290753551962.527
284758763765.509
278938370184.173
273290634748.305
267826479541.565
262559091067.33
257501998809.295
252638041792.043
247942272831.299
243436490220.126
239172784528.207
235143406306.451
231377134243.534
227970891195.243
225065578147.074
222945818688.002
222063706150.191
223256047314.251
)
;

boundaryField
{
    electrode
    {
        type            driftDiffusionElectronDensity;
        seec            0.05;
        Edepend         1;
        field_emission  0;
        field_enhancement_factor 55;
        work_function   5;
        value           uniform 6.00117409739864e+16;
    }
    ground
    {
        type            driftDiffusionElectronDensity;
        seec            0.05;
        Edepend         1;
        field_emission  0;
        field_enhancement_factor 55;
        work_function   5;
        value           uniform 225477486068.252;
    }
    otherfaces
    {
        type            empty;
    }
}


// ************************************************************************* //
