/*--------------------------------*- C++ -*----------------------------------*\
| =========                 |                                                 |
| \\      /  F ield         | foam-extend: Open Source CFD                    |
|  \\    /   O peration     | Version:     4.0                                |
|   \\  /    A nd           | Web:         http://www.foam-extend.org         |
|    \\/     M anipulation  |                                                 |
\*---------------------------------------------------------------------------*/
FoamFile
{
    version     2.0;
    format      ascii;
    class       volVectorField;
    location    "2e-06";
    object      J_Arp1;
}
// * * * * * * * * * * * * * * * * * * * * * * * * * * * * * * * * * * * * * //

dimensions      [1 -1 -1 0 0 0 0];

internalField   nonuniform List<vector> 
300
(
(1.65434085043403e+16 -0 -0)
(5.43652958923157e+16 -0 -0)
(9.46617162600447e+16 -0 -0)
(1.32269431692307e+17 -0 -0)
(1.69789385848803e+17 -0 -0)
(2.07412818002418e+17 -0 -0)
(2.44966007082207e+17 -0 -0)
(2.82434931532816e+17 -0 -0)
(3.19821293925468e+17 -0 -0)
(3.57112737871316e+17 -0 -0)
(3.94298267138373e+17 -0 -0)
(4.31367767325952e+17 -0 -0)
(4.68310950855497e+17 -0 -0)
(5.05117575549073e+17 -0 -0)
(5.41777503337986e+17 -0 -0)
(5.78280690119159e+17 -0 -0)
(6.1461719778484e+17 -0 -0)
(6.50777208891139e+17 -0 -0)
(6.86751040192743e+17 -0 -0)
(7.22529156797988e+17 -0 -0)
(7.58102186972197e+17 -0 -0)
(7.93460937853047e+17 -0 -0)
(8.28596411294008e+17 -0 -0)
(8.63499820762715e+17 -0 -0)
(8.98162608438375e+17 -0 -0)
(9.32576463290953e+17 -0 -0)
(9.66733339515552e+17 -0 -0)
(1.00062547556736e+18 -0 -0)
(1.03424541346423e+18 -0 -0)
(1.06758601892124e+18 -0 -0)
(1.10064050180369e+18 -0 -0)
(1.13340243656548e+18 -0 -0)
(1.16586578349659e+18 -0 -0)
(1.19802491029942e+18 -0 -0)
(1.22987461322174e+18 -0 -0)
(1.26141013917993e+18 -0 -0)
(1.29262720740546e+18 -0 -0)
(1.3235220312524e+18 -0 -0)
(1.35409134038739e+18 -0 -0)
(1.38433240239019e+18 -0 -0)
(1.41424304459399e+18 -0 -0)
(1.44382167536696e+18 -0 -0)
(1.4730673058736e+18 -0 -0)
(1.50197957072717e+18 -0 -0)
(1.53055874874755e+18 -0 -0)
(1.55880578364913e+18 -0 -0)
(1.58672230322789e+18 -0 -0)
(1.61431063953033e+18 -0 -0)
(1.6415738472866e+18 -0 -0)
(1.66851572252794e+18 -0 -0)
(1.69514082021343e+18 -0 -0)
(1.72145447146471e+18 -0 -0)
(1.74746280024801e+18 -0 -0)
(1.77317273869564e+18 -0 -0)
(1.79859204293655e+18 -0 -0)
(1.8237293068453e+18 -0 -0)
(1.84859397600277e+18 -0 -0)
(1.87319636042825e+18 -0 -0)
(1.89754764668724e+18 -0 -0)
(1.92165990880986e+18 -0 -0)
(1.94554611898808e+18 -0 -0)
(1.96922015673957e+18 -0 -0)
(1.99269681742607e+18 -0 -0)
(2.01599182005294e+18 -0 -0)
(2.03912181369714e+18 -0 -0)
(2.06210438310405e+18 -0 -0)
(2.084958053475e+18 -0 -0)
(2.10770229385628e+18 -0 -0)
(2.13035751961998e+18 -0 -0)
(2.1529450935781e+18 -0 -0)
(2.17548732642896e+18 -0 -0)
(2.19800747526724e+18 -0 -0)
(2.2205297414446e+18 -0 -0)
(2.24307926663017e+18 -0 -0)
(2.2656821276805e+18 -0 -0)
(2.28836533015386e+18 -0 -0)
(2.31115680015886e+18 -0 -0)
(2.33408537446252e+18 -0 -0)
(2.35718078950249e+18 -0 -0)
(2.38047366801477e+18 -0 -0)
(2.40399550407412e+18 -0 -0)
(2.42777864689712e+18 -0 -0)
(2.45185628155909e+18 -0 -0)
(2.47626240860732e+18 -0 -0)
(2.50103182128848e+18 -0 -0)
(2.5262000804122e+18 -0 -0)
(2.55180348721773e+18 -0 -0)
(2.57787905392388e+18 -0 -0)
(2.60446447157971e+18 -0 -0)
(2.63159807603257e+18 -0 -0)
(2.65931881057796e+18 -0 -0)
(2.6876661868461e+18 -0 -0)
(2.71668024232117e+18 -0 -0)
(2.74640149555994e+18 -0 -0)
(2.77687089884725e+18 -0 -0)
(2.80812978729013e+18 -0 -0)
(2.8402198258931e+18 -0 -0)
(2.87318295319846e+18 -0 -0)
(2.90706132237e+18 -0 -0)
(2.94189723885111e+18 -0 -0)
(2.97773309572544e+18 -0 -0)
(3.01461130532798e+18 -0 -0)
(3.05257422837872e+18 -0 -0)
(3.09166409989887e+18 -0 -0)
(3.13192295199118e+18 -0 -0)
(3.17339253353763e+18 -0 -0)
(3.2161142269363e+18 -0 -0)
(3.26012896160664e+18 -0 -0)
(3.30547712425503e+18 -0 -0)
(3.35219846621492e+18 -0 -0)
(3.40033200694238e+18 -0 -0)
(3.44991593502082e+18 -0 -0)
(3.50098750508744e+18 -0 -0)
(3.55358293159619e+18 -0 -0)
(3.60773727878003e+18 -0 -0)
(3.66348434702744e+18 -0 -0)
(3.72085655508415e+18 -0 -0)
(3.77988481795964e+18 -0 -0)
(3.8405984201827e+18 -0 -0)
(3.90302488373145e+18 -0 -0)
(3.96718983022351e+18 -0 -0)
(4.03311683589226e+18 -0 -0)
(4.10082727844102e+18 -0 -0)
(4.17034017374467e+18 -0 -0)
(4.24167199965335e+18 -0 -0)
(4.31483650336752e+18 -0 -0)
(4.38984448746524e+18 -0 -0)
(4.46670356801601e+18 -0 -0)
(4.54541789588816e+18 -0 -0)
(4.62598783268381e+18 -0 -0)
(4.70840957218321e+18 -0 -0)
(4.79267470906283e+18 -0 -0)
(4.8787698306041e+18 -0 -0)
(4.96667495700756e+18 -0 -0)
(5.05635571022617e+18 -0 -0)
(5.14779295499454e+18 -0 -0)
(5.24097013030106e+18 -0 -0)
(5.33583749849492e+18 -0 -0)
(5.43235858877344e+18 -0 -0)
(5.5305053280956e+18 -0 -0)
(5.63023186065642e+18 -0 -0)
(5.73148594233513e+18 -0 -0)
(5.83420806644821e+18 -0 -0)
(5.93833133252958e+18 -0 -0)
(6.0437813495576e+18 -0 -0)
(6.15047611065719e+18 -0 -0)
(6.25832582121861e+18 -0 -0)
(6.36723267898273e+18 -0 -0)
(6.47709061389324e+18 -0 -0)
(6.58778499777351e+18 -0 -0)
(6.69919232870111e+18 -0 -0)
(6.81117989643488e+18 -0 -0)
(6.92360543370093e+18 -0 -0)
(7.03631675451467e+18 -0 -0)
(7.14915137200011e+18 -0 -0)
(7.2619360935728e+18 -0 -0)
(7.3744866799229e+18 -0 -0)
(7.48660703847422e+18 -0 -0)
(7.59808975069056e+18 -0 -0)
(7.70871342861802e+18 -0 -0)
(7.81824583042586e+18 -0 -0)
(7.92644004968616e+18 -0 -0)
(8.03300983548436e+18 -0 -0)
(8.13780196554449e+18 -0 -0)
(8.24041657871441e+18 -0 -0)
(8.33919866521909e+18 -0 -0)
(8.44095455670101e+18 -0 -0)
(8.52865157607543e+18 -0 -0)
(8.61700021750774e+18 -0 -0)
(8.70117757987018e+18 -0 -0)
(8.78301570862465e+18 -0 -0)
(8.85780549940759e+18 -0 -0)
(8.92531617032631e+18 -0 -0)
(8.99234082637262e+18 -0 -0)
(9.06235753466151e+18 -0 -0)
(9.10522293257597e+18 -0 -0)
(9.16036498220677e+18 -0 -0)
(9.20674517730448e+18 -0 -0)
(9.24177897257712e+18 -0 -0)
(9.30720225331279e+18 -0 -0)
(9.32198195738169e+18 -0 -0)
(9.35888501435797e+18 -0 -0)
(9.38780471135975e+18 -0 -0)
(9.40171447418193e+18 -0 -0)
(9.43155333680835e+18 -0 -0)
(9.44465112188309e+18 -0 -0)
(9.47044415208504e+18 -0 -0)
(9.48054865935348e+18 -0 -0)
(9.50442875975726e+18 -0 -0)
(9.50408081076805e+18 -0 -0)
(9.52473366883079e+18 -0 -0)
(9.52996650514392e+18 -0 -0)
(9.55370569247426e+18 -0 -0)
(9.5679424929778e+18 -0 -0)
(9.66090118129761e+18 -0 -0)
(9.83827272557722e+18 -0 -0)
(1.00648533928079e+19 -0 -0)
(1.02716887996143e+19 -0 -0)
(1.04458249659354e+19 -0 -0)
(1.0580847857291e+19 -0 -0)
(1.06946160475625e+19 -0 -0)
(1.07866546530678e+19 -0 -0)
(1.08705366658144e+19 -0 -0)
(1.09471974672053e+19 -0 -0)
(1.10200740812623e+19 -0 -0)
(1.10899944159983e+19 -0 -0)
(1.11598097606899e+19 -0 -0)
(1.12283530213647e+19 -0 -0)
(1.12989477062454e+19 -0 -0)
(1.13690771200075e+19 -0 -0)
(1.14412392809482e+19 -0 -0)
(1.15124224043115e+19 -0 -0)
(1.15862403266038e+19 -0 -0)
(1.16593776981562e+19 -0 -0)
(1.17336691260333e+19 -0 -0)
(1.18075584095048e+19 -0 -0)
(1.18810994783214e+19 -0 -0)
(1.19539517262023e+19 -0 -0)
(1.20265090966398e+19 -0 -0)
(1.20973463870423e+19 -0 -0)
(1.21692543657686e+19 -0 -0)
(1.22374701755911e+19 -0 -0)
(1.23083396808102e+19 -0 -0)
(1.23745782414078e+19 -0 -0)
(1.24437691686224e+19 -0 -0)
(1.25085495778628e+19 -0 -0)
(1.25753082420579e+19 -0 -0)
(1.26378955699889e+19 -0 -0)
(1.27022382427957e+19 -0 -0)
(1.27622087585324e+19 -0 -0)
(1.28246271240065e+19 -0 -0)
(1.28813244057919e+19 -0 -0)
(1.29407236659479e+19 -0 -0)
(1.29938839286347e+19 -0 -0)
(1.30493353353896e+19 -0 -0)
(1.30991667080069e+19 -0 -0)
(1.31510305899933e+19 -0 -0)
(1.31983943421258e+19 -0 -0)
(1.32482702979404e+19 -0 -0)
(1.32941253726923e+19 -0 -0)
(1.33432186872555e+19 -0 -0)
(1.33883520660787e+19 -0 -0)
(1.3435640408317e+19 -0 -0)
(1.34782268040828e+19 -0 -0)
(1.35231765996348e+19 -0 -0)
(1.35630521299487e+19 -0 -0)
(1.36049334117398e+19 -0 -0)
(1.36414642918254e+19 -0 -0)
(1.36797116260556e+19 -0 -0)
(1.37133233858039e+19 -0 -0)
(1.37492068952783e+19 -0 -0)
(1.37814846609157e+19 -0 -0)
(1.38167752115137e+19 -0 -0)
(1.38488000578438e+19 -0 -0)
(1.38832672408957e+19 -0 -0)
(1.39136338061475e+19 -0 -0)
(1.39459388382551e+19 -0 -0)
(1.39729608566909e+19 -0 -0)
(1.40019076791808e+19 -0 -0)
(1.40247347620102e+19 -0 -0)
(1.40511145663518e+19 -0 -0)
(1.40705233217074e+19 -0 -0)
(1.40951158642599e+19 -0 -0)
(1.41121698581385e+19 -0 -0)
(1.41343322795977e+19 -0 -0)
(1.41496331459652e+19 -0 -0)
(1.41697227682603e+19 -0 -0)
(1.4182806095281e+19 -0 -0)
(1.42013670482164e+19 -0 -0)
(1.42133596197993e+19 -0 -0)
(1.42321432471401e+19 -0 -0)
(1.42429689463378e+19 -0 -0)
(1.42628851841583e+19 -0 -0)
(1.42733157556314e+19 -0 -0)
(1.42953314874241e+19 -0 -0)
(1.4305160293517e+19 -0 -0)
(1.43275004886862e+19 -0 -0)
(1.43357408729905e+19 -0 -0)
(1.43557060306009e+19 -0 -0)
(1.43618886338643e+19 -0 -0)
(1.43789192603796e+19 -0 -0)
(1.43823799561696e+19 -0 -0)
(1.43968831364576e+19 -0 -0)
(1.43972039132496e+19 -0 -0)
(1.44098936316064e+19 -0 -0)
(1.44081689945166e+19 -0 -0)
(1.44212596982992e+19 -0 -0)
(1.44191775892191e+19 -0 -0)
(1.44352709815734e+19 -0 -0)
(1.44339088814798e+19 -0 -0)
(1.44532655279806e+19 -0 -0)
(1.44527817988158e+19 -0 -0)
(1.44739048378922e+19 -0 -0)
(1.44733452622463e+19 -0 -0)
(1.4494277757812e+19 -0 -0)
(1.44927178866651e+19 -0 -0)
(1.45118173685066e+19 -0 -0)
(1.45078970578664e+19 -0 -0)
(1.45245565791254e+19 -0 -0)
(1.4505644555581e+19 -0 -0)
)
;

boundaryField
{
    electrode
    {
        type            calculated;
        value           uniform (137687516907.577 -0 -0);
    }
    ground
    {
        type            calculated;
        value           uniform (1.45243209905777e+19 -0 -0);
    }
    otherfaces
    {
        type            empty;
    }
}


// ************************************************************************* //
