/*--------------------------------*- C++ -*----------------------------------*\
| =========                 |                                                 |
| \\      /  F ield         | foam-extend: Open Source CFD                    |
|  \\    /   O peration     | Version:     4.0                                |
|   \\  /    A nd           | Web:         http://www.foam-extend.org         |
|    \\/     M anipulation  |                                                 |
\*---------------------------------------------------------------------------*/
FoamFile
{
    version     2.0;
    format      ascii;
    class       volVectorField;
    location    "2e-06";
    object      J_electron;
}
// * * * * * * * * * * * * * * * * * * * * * * * * * * * * * * * * * * * * * //

dimensions      [1 -1 -1 0 0 0 0];

internalField   nonuniform List<vector> 
300
(
(-1.28907083952961e+19 0 0)
(-1.28646585768119e+19 0 0)
(-1.48939381521088e+19 0 0)
(-1.48353794514715e+19 0 0)
(-1.47332522343954e+19 0 0)
(-1.47117083842084e+19 0 0)
(-1.4678517621174e+19 0 0)
(-1.46415716978285e+19 0 0)
(-1.46062583075433e+19 0 0)
(-1.45710474592717e+19 0 0)
(-1.45358134891784e+19 0 0)
(-1.45007040423989e+19 0 0)
(-1.44657152553534e+19 0 0)
(-1.4430846187157e+19 0 0)
(-1.43961064368813e+19 0 0)
(-1.43615036542133e+19 0 0)
(-1.43270446785128e+19 0 0)
(-1.4292736233813e+19 0 0)
(-1.42585847951133e+19 0 0)
(-1.42245965376106e+19 0 0)
(-1.4190777219947e+19 0 0)
(-1.41571323720075e+19 0 0)
(-1.41236670661747e+19 0 0)
(-1.40903860883229e+19 0 0)
(-1.40572937432759e+19 0 0)
(-1.40243939769271e+19 0 0)
(-1.39916902854355e+19 0 0)
(-1.39591858214647e+19 0 0)
(-1.39268831906237e+19 0 0)
(-1.38947845398063e+19 0 0)
(-1.38628916920818e+19 0 0)
(-1.3831205853705e+19 0 0)
(-1.37997277130163e+19 0 0)
(-1.37684576661355e+19 0 0)
(-1.37373953712597e+19 0 0)
(-1.37065401148703e+19 0 0)
(-1.36758906488163e+19 0 0)
(-1.36454450768459e+19 0 0)
(-1.36152011015455e+19 0 0)
(-1.35851557942639e+19 0 0)
(-1.35553057289997e+19 0 0)
(-1.35256467396554e+19 0 0)
(-1.34961743029338e+19 0 0)
(-1.34668831755925e+19 0 0)
(-1.343776743274e+19 0 0)
(-1.34088208167983e+19 0 0)
(-1.33800360855221e+19 0 0)
(-1.33514056568257e+19 0 0)
(-1.33229211211365e+19 0 0)
(-1.32945735104416e+19 0 0)
(-1.32663531449468e+19 0 0)
(-1.32382496415928e+19 0 0)
(-1.32102520853978e+19 0 0)
(-1.31823485710088e+19 0 0)
(-1.31545268252188e+19 0 0)
(-1.31267736022556e+19 0 0)
(-1.3099075035627e+19 0 0)
(-1.30714164830402e+19 0 0)
(-1.30437826371172e+19 0 0)
(-1.30161572826749e+19 0 0)
(-1.29885236202119e+19 0 0)
(-1.29608639982152e+19 0 0)
(-1.29331599320345e+19 0 0)
(-1.29053922745768e+19 0 0)
(-1.28775410611354e+19 0 0)
(-1.28495854890606e+19 0 0)
(-1.28215040596598e+19 0 0)
(-1.27932744423841e+19 0 0)
(-1.27648735665909e+19 0 0)
(-1.27362774660455e+19 0 0)
(-1.27074615832614e+19 0 0)
(-1.26784004322859e+19 0 0)
(-1.26490678735208e+19 0 0)
(-1.26194369739932e+19 0 0)
(-1.25894800339582e+19 0 0)
(-1.25591686569675e+19 0 0)
(-1.25284737668492e+19 0 0)
(-1.24973654448268e+19 0 0)
(-1.24658132483839e+19 0 0)
(-1.24337860138707e+19 0 0)
(-1.24012517616861e+19 0 0)
(-1.23681781581475e+19 0 0)
(-1.2334532022429e+19 0 0)
(-1.23002796563859e+19 0 0)
(-1.22653868236729e+19 0 0)
(-1.22298186585384e+19 0 0)
(-1.21935397751436e+19 0 0)
(-1.21565143405361e+19 0 0)
(-1.21187058620149e+19 0 0)
(-1.20800776015498e+19 0 0)
(-1.20405921439128e+19 0 0)
(-1.20002118104373e+19 0 0)
(-1.19588984058277e+19 0 0)
(-1.1916613298935e+19 0 0)
(-1.18733176582979e+19 0 0)
(-1.18289720703058e+19 0 0)
(-1.17835369132877e+19 0 0)
(-1.17369721214541e+19 0 0)
(-1.16892374244629e+19 0 0)
(-1.16402920608671e+19 0 0)
(-1.15900951210555e+19 0 0)
(-1.15386052412692e+19 0 0)
(-1.14857807944079e+19 0 0)
(-1.14315798294383e+19 0 0)
(-1.13759600701169e+19 0 0)
(-1.13188788827529e+19 0 0)
(-1.126029327378e+19 0 0)
(-1.120015988988e+19 0 0)
(-1.1138434928808e+19 0 0)
(-1.10750742824354e+19 0 0)
(-1.10100331647876e+19 0 0)
(-1.09432664635023e+19 0 0)
(-1.08747284056407e+19 0 0)
(-1.08043726509567e+19 0 0)
(-1.07321521413633e+19 0 0)
(-1.06580190973253e+19 0 0)
(-1.05819249395667e+19 0 0)
(-1.05038202005792e+19 0 0)
(-1.04236545231154e+19 0 0)
(-1.03413765246597e+19 0 0)
(-1.02569339497464e+19 0 0)
(-1.01702736181812e+19 0 0)
(-1.00813415943126e+19 0 0)
(-9.99008354375041e+18 0 0)
(-9.89644523736977e+18 0 0)
(-9.80037331726474e+18 0 0)
(-9.701816485351e+18 0 0)
(-9.60072713972272e+18 0 0)
(-9.49706287205528e+18 0 0)
(-9.39078770198315e+18 0 0)
(-9.28186914335044e+18 0 0)
(-9.17026268001495e+18 0 0)
(-9.05584360397314e+18 0 0)
(-8.93881794252767e+18 0 0)
(-8.80389106962635e+18 0 0)
(-8.65673604776329e+18 0 0)
(-8.56730229526443e+18 0 0)
(-8.43179743033216e+18 0 0)
(-8.29364872416854e+18 0 0)
(-8.15124439859567e+18 0 0)
(-8.00450641875645e+18 0 0)
(-7.85318630908441e+18 0 0)
(-7.69692021219131e+18 0 0)
(-7.53527062752605e+18 0 0)
(-7.36774521927133e+18 0 0)
(-7.19379699316503e+18 0 0)
(-7.01281661354508e+18 0 0)
(-6.82411979855888e+18 0 0)
(-6.62693212410872e+18 0 0)
(-6.42037244246675e+18 0 0)
(-6.2034348827067e+18 0 0)
(-5.97496949301261e+18 0 0)
(-5.73366201919891e+18 0 0)
(-5.47801392301159e+18 0 0)
(-5.20632212002229e+18 0 0)
(-4.91665705721555e+18 0 0)
(-4.60686844219621e+18 0 0)
(-4.27450839159171e+18 0 0)
(-3.91696137811657e+18 0 0)
(-3.5311793115098e+18 0 0)
(-3.11371444103047e+18 0 0)
(-2.66058694675504e+18 0 0)
(-2.15768102343698e+18 0 0)
(-1.5961643421291e+18 0 0)
(-9.43683332751753e+17 0 0)
(2.77587302584156e+17 0 0)
(2.03573962065366e+18 0 0)
(3.35500644224021e+18 0 0)
(4.00761794506365e+18 0 0)
(4.7969038887876e+18 0 0)
(5.70182856370396e+18 0 0)
(6.14683515955236e+18 0 0)
(5.5507787030777e+18 0 0)
(4.18932007566626e+18 0 0)
(2.81605589069254e+18 0 0)
(2.51493482493903e+17 0 0)
(-1.43313463685415e+18 0 0)
(-1.96474025053834e+18 0 0)
(-1.96994644238769e+18 0 0)
(-1.20876554151526e+17 0 0)
(2.62191603392918e+18 0 0)
(8.02887037756532e+18 0 0)
(1.52211551653881e+19 0 0)
(2.20366674722806e+19 0 0)
(2.84270661964388e+19 0 0)
(3.27553657003353e+19 0 0)
(3.53155974500204e+19 0 0)
(3.38447689957019e+19 0 0)
(2.97817914786277e+19 0 0)
(2.5015589535474e+19 0 0)
(1.81855192258572e+19 0 0)
(1.19732817321481e+19 0 0)
(6.35865818775323e+18 0 0)
(6.53121797479671e+18 0 0)
(-2.08341169840633e+18 0 0)
(-1.7712849695679e+18 0 0)
(-3.37894248294911e+18 0 0)
(-2.97572696717469e+18 0 0)
(-3.10382476447393e+18 0 0)
(-3.33801827630772e+18 0 0)
(-3.55083815892356e+18 0 0)
(-3.66237671335468e+18 0 0)
(-3.70411394836234e+18 0 0)
(-3.69548090300103e+18 0 0)
(-3.66936047326965e+18 0 0)
(-3.62190348434174e+18 0 0)
(-3.57333824994695e+18 0 0)
(-3.51734104920414e+18 0 0)
(-3.45903798347882e+18 0 0)
(-3.39794739204401e+18 0 0)
(-3.33638413049055e+18 0 0)
(-3.27400447223336e+18 0 0)
(-3.21047494833237e+18 0 0)
(-3.1465478785985e+18 0 0)
(-3.08234310621502e+18 0 0)
(-3.01806597972106e+18 0 0)
(-2.95387002524199e+18 0 0)
(-2.88990735659871e+18 0 0)
(-2.82630207493922e+18 0 0)
(-2.76322119471558e+18 0 0)
(-2.70051162827026e+18 0 0)
(-2.63882647023761e+18 0 0)
(-2.57809419245523e+18 0 0)
(-2.51808863046774e+18 0 0)
(-2.45912485108653e+18 0 0)
(-2.40124510710731e+18 0 0)
(-2.34451921798458e+18 0 0)
(-2.2890036732107e+18 0 0)
(-2.2347356543386e+18 0 0)
(-2.18174291119243e+18 0 0)
(-2.13004527947834e+18 0 0)
(-2.07965383202387e+18 0 0)
(-2.03057351303862e+18 0 0)
(-1.98280285146826e+18 0 0)
(-1.93633458965756e+18 0 0)
(-1.89115728648953e+18 0 0)
(-1.84725458268322e+18 0 0)
(-1.80460716651783e+18 0 0)
(-1.7631923669811e+18 0 0)
(-1.72298516988974e+18 0 0)
(-1.68395832609955e+18 0 0)
(-1.64608649107846e+18 0 0)
(-1.60933771670136e+18 0 0)
(-1.57367444962703e+18 0 0)
(-1.53906440708307e+18 0 0)
(-1.50548251802214e+18 0 0)
(-1.47285577624002e+18 0 0)
(-1.44121176561322e+18 0 0)
(-1.41059167682492e+18 0 0)
(-1.38079083009115e+18 0 0)
(-1.35186474558884e+18 0 0)
(-1.32377296387387e+18 0 0)
(-1.29649096315707e+18 0 0)
(-1.26999156946178e+18 0 0)
(-1.24424174484817e+18 0 0)
(-1.21924898787146e+18 0 0)
(-1.19486536981306e+18 0 0)
(-1.1712311468933e+18 0 0)
(-1.14828999301813e+18 0 0)
(-1.12588841285503e+18 0 0)
(-1.10412694159699e+18 0 0)
(-1.08294320224903e+18 0 0)
(-1.06232355616516e+18 0 0)
(-1.04224527714516e+18 0 0)
(-1.02269040652151e+18 0 0)
(-1.00363450359361e+18 0 0)
(-9.85076287897665e+17 0 0)
(-9.66885508468644e+17 0 0)
(-9.49340066221109e+17 0 0)
(-9.32138420052781e+17 0 0)
(-9.15367085748909e+17 0 0)
(-8.99001350094299e+17 0 0)
(-8.83034554333082e+17 0 0)
(-8.67453297595556e+17 0 0)
(-8.52246313741677e+17 0 0)
(-8.37401681560403e+17 0 0)
(-8.22908398181953e+17 0 0)
(-8.08755607420151e+17 0 0)
(-7.94932174825055e+17 0 0)
(-7.81429205301928e+17 0 0)
(-7.68225945319193e+17 0 0)
(-7.55333846041273e+17 0 0)
(-7.4253661522495e+17 0 0)
(-7.30394086839165e+17 0 0)
(-7.1848653097083e+17 0 0)
(-7.06791049523335e+17 0 0)
(-6.95356480629955e+17 0 0)
(-6.84199458425029e+17 0 0)
(-6.73052262279352e+17 0 0)
(-6.62615535081456e+17 0 0)
(-6.52471131011425e+17 0 0)
(-6.424637848696e+17 0 0)
(-6.32235925940776e+17 0 0)
(-6.23458723708378e+17 0 0)
(-6.14064208791664e+17 0 0)
(-6.05719568809103e+17 0 0)
(-5.97506188292929e+17 0 0)
(-5.90846070720541e+17 0 0)
(-5.84630711142585e+17 0 0)
(-5.74461257268726e+17 0 0)
)
;

boundaryField
{
    electrode
    {
        type            calculated;
        value           uniform (-1.49100003060796e+19 0 0);
    }
    ground
    {
        type            calculated;
        value           uniform (-5.71878282911509e+17 0 0);
    }
    otherfaces
    {
        type            empty;
    }
}


// ************************************************************************* //
