/*--------------------------------*- C++ -*----------------------------------*\
| =========                 |                                                 |
| \\      /  F ield         | foam-extend: Open Source CFD                    |
|  \\    /   O peration     | Version:     4.0                                |
|   \\  /    A nd           | Web:         http://www.foam-extend.org         |
|    \\/     M anipulation  |                                                 |
\*---------------------------------------------------------------------------*/
FoamFile
{
    version     2.0;
    format      ascii;
    class       volScalarField;
    location    "2e-06";
    object      N_electronMean;
}
// * * * * * * * * * * * * * * * * * * * * * * * * * * * * * * * * * * * * * //

dimensions      [0 0 0 1 0 0 0];

internalField   nonuniform List<scalar> 
300
(
6.07051019723602e+16
6.07040598784714e+16
6.07004070363555e+16
6.069344528267e+16
6.06831807080157e+16
6.06695313154446e+16
6.06524403617642e+16
6.06318680280937e+16
6.06077794235799e+16
6.05801469999322e+16
6.05489493820817e+16
6.05141708348465e+16
6.04758007723436e+16
6.04338332957286e+16
6.03882668739396e+16
6.03391040260884e+16
6.02863510569819e+16
6.0230017834042e+16
6.01701175725267e+16
6.01066666350962e+16
6.00396843589974e+16
5.99691928954042e+16
5.98952170568325e+16
5.98177841616674e+16
5.97369239304957e+16
5.96526684132629e+16
5.9565051829058e+16
5.94741104083761e+16
5.93798822725955e+16
5.92824072596596e+16
5.91817268265295e+16
5.90778840540897e+16
5.89709234960695e+16
5.88608909108523e+16
5.87478330827147e+16
5.86317976894175e+16
5.85128331740349e+16
5.83909886330799e+16
5.82663136908912e+16
5.81388583725323e+16
5.80086730098862e+16
5.78758081446983e+16
5.77403144024731e+16
5.76022423813593e+16
5.74616425636197e+16
5.73185652312952e+16
5.71730603918082e+16
5.702517771844e+16
5.687496651814e+16
5.67224757261273e+16
5.65677539629258e+16
5.64108495940811e+16
5.62518106909245e+16
5.6090684907935e+16
5.59275192822973e+16
5.57623600257377e+16
5.5595252353357e+16
5.5426240360151e+16
5.52553669381149e+16
5.50826736971189e+16
5.49082008992759e+16
5.47319874016845e+16
5.45540705869082e+16
5.43744863867027e+16
5.41932694176177e+16
5.40104529127312e+16
5.3826068462251e+16
5.36401458745386e+16
5.34527131285321e+16
5.32637963221585e+16
5.30734196176248e+16
5.28816052346322e+16
5.26883735362951e+16
5.24937430120732e+16
5.22977301419546e+16
5.210034942824e+16
5.19016134882408e+16
5.17015329929864e+16
5.15001164601769e+16
5.12973701303444e+16
5.1093297961551e+16
5.08879014059252e+16
5.0681179191808e+16
5.04731272510624e+16
5.0263738685204e+16
5.00530037995479e+16
4.98409099935898e+16
4.96274415322195e+16
4.94125794337101e+16
4.91963014422995e+16
4.89785819199924e+16
4.875939186896e+16
4.85386989871526e+16
4.83164673648664e+16
4.80926571931901e+16
4.78672246572928e+16
4.7640121822999e+16
4.74112965210844e+16
4.71806922282542e+16
4.69482479816744e+16
4.67138982860507e+16
4.64775729432364e+16
4.62391969880048e+16
4.5998690688984e+16
4.57559693417384e+16
4.55109431025508e+16
4.52635168957669e+16
4.50135902740461e+16
4.47610573341079e+16
4.45058065369467e+16
4.42477204913715e+16
4.39866758158318e+16
4.37225430361752e+16
4.34551865405459e+16
4.31844644735656e+16
4.29102286284141e+16
4.26323245032494e+16
4.23505912555681e+16
4.20648614379548e+16
4.17749607643292e+16
4.14807080729832e+16
4.11819153545324e+16
4.08783877514723e+16
4.05699235931544e+16
4.02563142267465e+16
3.99373437061198e+16
3.96127887042311e+16
3.92824185200426e+16
3.8945994962161e+16
3.86032722731789e+16
3.8253997154651e+16
3.78979087962261e+16
3.75347388778973e+16
3.71642115743637e+16
3.67860437866442e+16
3.63999454585647e+16
3.60056195439631e+16
3.56027619165655e+16
3.51910616061633e+16
3.47702010577827e+16
3.43398561731406e+16
3.38996963912726e+16
3.34493849301135e+16
3.29885791170261e+16
3.25169308958388e+16
3.20340872828177e+16
3.15396905552913e+16
3.10333784164704e+16
3.05147841845577e+16
2.99835372500356e+16
2.94392637956185e+16
2.88815872031496e+16
2.83101285419665e+16
2.77245072571432e+16
2.7124341600619e+16
2.65092492407524e+16
2.58788481745653e+16
2.52327576493077e+16
2.45705989247915e+16
2.38919961330394e+16
2.31965774667166e+16
2.24839758577758e+16
2.17538291468683e+16
2.10057797198061e+16
2.02394704230634e+16
1.94545319061178e+16
1.86505642498305e+16
1.78271188429351e+16
1.69836802518295e+16
1.61196776405614e+16
1.52345384210636e+16
1.43277756675019e+16
1.33991980368297e+16
1.24492542593737e+16
1.14794350923175e+16
1.04926824087799e+16
9.49385332774947e+15
8.49020534099199e+15
7.49161028122009e+15
6.51049870423032e+15
5.56146259827684e+15
4.66038480657438e+15
3.82319914174049e+15
3.06434022865457e+15
2.39516702963372e+15
1.82263175912066e+15
1.34846815632849e+15
969121171963711
676406494381429
458811788443627
303048877572438
195629973374498
124178866104622
78304629245281.8
49353692749428.2
31209642361826.5
19929104400129.6
13038715199379.2
8940558171732.28
6538945714725.27
5159959794086.19
4381955337808.41
3928719241701.05
3642835505363.77
3445668057914.85
3298374154988.69
3180942664014.83
3082320354928.14
2995966207693.19
2917759645163.42
2845112403703.93
2776323641567.34
2710242018134.75
2646052337518.13
2583193105949.88
2521271736523.99
2460025504054.84
2399286652220.03
2338955986641.53
2278988070753.78
2219376834601.54
2160123456849.41
2101256697053.37
2042839001858.9
1984945154627.02
1927657403465.89
1871060654115.94
1815237243611.72
1760265914509.83
1706219470267.98
1653163349229.64
1601157068599.06
1550251387330.74
1500489344897.68
1451907233304.3
1404533557748.79
1358389098161.11
1313489231365.66
1269841983468.19
1227449639111.79
1186310262502.76
1146416475753
1107758180222.54
1070321548079.74
1034089257656
999041259239.84
965152326067.061
932394981479.198
900742305336.782
870168034072.791
840645195652.387
812145347884.466
784639515539.996
758097778238.364
732490536123.157
707788887130.494
683964924629.405
660989792978.571
638833483713.27
617468787465.233
596870391829.251
577011750136.035
557866971027.925
539410094453.886
521615958158.111
504460921468.775
487922332321.331
471978813997.178
456608643275.208
441788915527.323
427496204280.252
413709836127.328
400411702606.695
387585896250.299
375217402306.739
363292119191.24
351796572039.289
340717547943.036
330042810568.947
319761130595.132
309861870133.049
300333670089.046
291165726305.72
282341725301.409
273837805366.548
265641554189.185
257754027559.496
250177146857.34
242913034540.227
235950893881.509
229271294497.095
222878342980.762
216798738289.546
211030567220.877
205592176538.386
200542829372.24
195973005060.272
192069125416.551
189140773857.572
187736961446.996
)
;

boundaryField
{
    electrode
    {
        type            calculated;
        value           uniform 6.070510197295e+16;
    }
    ground
    {
        type            calculated;
        value           uniform 188199180216.07;
    }
    otherfaces
    {
        type            empty;
    }
}


// ************************************************************************* //
