/*--------------------------------*- C++ -*----------------------------------*\
| =========                 |                                                 |
| \\      /  F ield         | foam-extend: Open Source CFD                    |
|  \\    /   O peration     | Version:     4.0                                |
|   \\  /    A nd           | Web:         http://www.foam-extend.org         |
|    \\/     M anipulation  |                                                 |
\*---------------------------------------------------------------------------*/
FoamFile
{
    version     2.0;
    format      ascii;
    class       volScalarField;
    location    "2e-06";
    object      Phi;
}
// * * * * * * * * * * * * * * * * * * * * * * * * * * * * * * * * * * * * * //

dimensions      [0 0 0 1 0 0 0];

internalField   nonuniform List<scalar> 
300
(
699.999957841761
699.999764243784
699.999353688516
699.998726758491
699.997892434966
699.996850120039
699.995599614906
699.994141156109
699.99247490246
699.990601025493
699.988519731656
699.986231251665
699.983735840617
699.981033778783
699.978125371426
699.975010948673
699.971690865411
699.968165501104
699.964435259578
699.960500568743
699.956361880255
699.952019669125
699.947474433244
699.942726692855
699.937776989926
699.932625887454
699.927273968676
699.921721836183
699.915970110936
699.910019431182
699.903870451246
699.897523840226
699.89098028055
699.88424046642
699.877305102116
699.870174900165
699.862850579376
699.855332862721
699.847622475067
699.839720140761
699.831626581045
699.823342511313
699.814868638201
699.806205656502
699.797354245912
699.788315067584
699.779088760518
699.769675937742
699.760077182324
699.750293043175
699.740324030659
699.730170612009
699.719833206527
699.709312180586
699.69860784242
699.687720436689
699.676650138843
699.665397049253
699.653961187115
699.642342484135
699.630540777973
699.618555805454
699.606387195536
699.594034462036
699.581496996102
699.56877405844
699.55586477127
699.542768110028
699.5294828948
699.516007781474
699.502341252619
699.488481608078
699.474426955268
699.460175199179
699.445724032076
699.431070922881
699.416213106234
699.401147571233
699.385871049829
699.370380004872
699.354670617811
699.338738776008
699.322580059684
699.306189728464
699.289562707512
699.272693573245
699.255576538603
699.238205437854
699.220573710921
699.202674387206
699.184500068873
699.166042913585
699.147294616644
699.128246392511
699.108888955664
699.089212500756
699.069206682021
699.048860591891
699.028162738745
699.007101023763
698.985662716773
698.963834431066
698.941602097049
698.918950934685
698.895865424588
698.872329277688
698.84832540333
698.823835875677
698.798841898267
698.773323766574
698.747260828373
698.720631441738
698.693412930437
698.665581536489
698.637112369632
698.607979353398
698.578155167486
698.547611186069
698.516317411669
698.484242404142
698.451353204331
698.417615251851
698.382992296444
698.347446302277
698.310937344506
698.273423497378
698.234860713056
698.19520269035
698.154400732449
698.112403592744
698.069157307763
698.024605016192
697.978686762681
697.931339283465
697.882495796088
697.832085896127
697.780034687018
697.726262847803
697.670686442342
697.613215937587
697.553755992349
697.492204930898
697.42845416825
697.362387562896
697.293880684997
697.222799987157
697.14900186292
697.072331575448
696.992622035421
696.909692402994
696.823346483538
696.733370880688
696.639532862608
696.541577888059
696.439226727412
696.332172099667
696.2200747289
696.102558702115
695.979205985216
695.849549911568
695.713067442531
695.569169881704
695.417191805156
695.256377571123
695.085863544587
694.904661881484
694.711628963655
694.50533076176
694.283975196569
694.045459972294
693.787354929034
693.50673916224
693.200127747986
692.863429145213
692.492060635135
692.080863325343
691.624069316553
691.115819147557
690.549571238155
689.918636565852
689.216211768112
688.435611919986
687.571361726578
686.618077009835
685.571290971274
684.427806201016
683.185049149097
681.841276550067
680.396318655732
678.850263601412
677.203635258017
675.457609565094
673.61397089347
671.674461957674
669.640270311669
667.512144175929
665.290349196911
662.974768415967
660.56549455966
658.062735700279
655.466938741572
652.77860072323
649.998268509536
647.126859646257
644.165362430952
641.114672264276
637.975595927958
634.748838335512
631.435020876119
628.034662910373
624.548208012846
620.976011087053
617.318507277857
613.576301245475
609.749941164997
605.8399109233
601.84664540803
597.770533459026
593.611923162066
589.37112170322
585.048407270843
580.644012160169
576.158156428465
571.591007102023
566.942728035877
562.213530149856
557.403797795412
552.513872069928
547.544092122283
542.494758772459
537.366174174183
532.158600386308
526.872310750711
521.507539031867
516.06453455825
510.543511274467
504.944695836862
499.268282547954
493.514472627197
487.683433536846
481.775337743587
475.790321086756
469.728525144506
463.590168088381
457.375562782281
451.084992386494
444.718752949639
438.277114193283
431.760360794016
425.168753678668
418.502565258185
411.762042120377
404.947437328496
398.058975182121
391.096885310596
384.061372616009
376.952652277092
369.770918130453
362.516380812514
355.189230217697
347.789677496075
340.317905189307
332.774121592601
325.158498639017
317.471237057541
309.712502215823
301.882484955974
293.981343149561
286.009370575079
277.966840577073
269.854050143235
261.671254040472
253.418737769825
245.096734246898
236.705514750491
228.245286857095
219.71630965484
211.118775024082
202.452935389472
193.71898052303
184.917158936935
176.047661336151
167.110735858462
158.106572549316
149.035421454147
139.897468971135
130.692962322222
121.422074479032
112.085042579372
102.682014935282
93.2132143528486
83.6787641346674
74.0788727433134
64.4136460036276
54.6832829173962
44.8878811815085
35.0276348975757
25.1026413300461
15.1130960407612
5.05909843998389
)
;

boundaryField
{
    electrode
    {
        type            fixedValue;
        value           uniform 700;
    }
    ground
    {
        type            fixedValue;
        value           uniform 0;
    }
    otherfaces
    {
        type            empty;
    }
}


// ************************************************************************* //
