/*--------------------------------*- C++ -*----------------------------------*\
| =========                 |                                                 |
| \\      /  F ield         | foam-extend: Open Source CFD                    |
|  \\    /   O peration     | Version:     4.0                                |
|   \\  /    A nd           | Web:         http://www.foam-extend.org         |
|    \\/     M anipulation  |                                                 |
\*---------------------------------------------------------------------------*/
FoamFile
{
    version     2.0;
    format      ascii;
    class       volScalarField;
    location    "2e-06";
    object      PhiMean;
}
// * * * * * * * * * * * * * * * * * * * * * * * * * * * * * * * * * * * * * //

dimensions      [0 0 0 1 0 0 0];

internalField   nonuniform List<scalar> 
300
(
699.963307689415
699.960028326117
699.95650051341
699.95274292692
699.948764851095
699.944554746646
699.940109521066
699.935425980318
699.930501266438
699.925333177755
699.919919900286
699.914260047998
699.908352568525
699.902196719941
699.895792041299
699.88913832357
699.88223558677
699.875084065183
699.867684188456
699.860036563859
699.852141964835
699.844001318741
699.835615696007
699.826986298956
699.818114449486
699.809001608149
699.799649345577
699.79005933389
699.78023334634
699.770173237145
699.759880927639
699.749358442927
699.738607893262
699.72763143489
699.716431264607
699.705009612228
699.693368731581
699.681510898687
699.669438402853
699.657153535698
699.644658589036
699.63195585329
699.619047603211
699.605936092873
699.592623550918
699.579112175846
699.565404131486
699.551501545507
699.537406508139
699.523121080548
699.508647300243
699.493987215849
699.479142867056
699.464116294493
699.448909499369
699.433524431457
699.417962963059
699.402226882148
699.386317887635
699.370237581695
699.353987466573
699.337568939777
699.320983287324
699.304231676371
699.287315208721
699.270234912476
699.25299167963
699.235586262946
699.21801927277
699.200291171233
699.182402266578
699.164352704095
699.146142494426
699.127771519348
699.109239484416
699.090545938494
699.071690306437
699.052671864298
699.033489727077
699.014142786296
698.994629789181
698.974949246685
698.955099416637
698.935078303558
698.914883636333
698.894512904645
698.873963332515
698.853231829826
698.832314976863
698.811209036118
698.789909924279
698.76841319155
698.746714110963
698.724807550656
698.702687945745
698.680349285763
698.657785089344
698.634988388323
698.611951694695
698.588666989142
698.565125702323
698.541318673653
698.51723610993
698.492867634945
698.468202189192
698.443228003822
698.417932591489
698.392302669823
698.36632417195
698.339982172386
698.313260824686
698.286143322357
698.258611841192
698.230647512069
698.202230370489
698.17333926847
698.14395187619
698.114044638299
698.083592643928
698.052569533965
698.020947418878
697.988696857552
697.955786725067
697.922184198427
697.887854605392
697.852761251195
697.816865290891
697.780125650292
697.74249882398
697.703938729028
697.664396539815
697.623820518317
697.582155806838
697.539344193202
697.495323894309
697.450029422499
697.403391219858
697.355335291409
697.305782902131
697.254650256553
697.201848009289
697.147280780275
697.090846645388
697.032436562812
696.971933780631
696.909213190628
696.844140412595
696.776570863988
696.706348640829
696.63330529025
696.557258614455
696.478011006907
696.395347597781
696.309034332918
696.218815360553
696.124410249551
696.025510718346
695.921776774001
695.812832052531
695.698258181876
695.57758833517
695.450299117723
695.315800402653
695.173423365054
695.022404783499
694.861865061817
694.690777467994
694.507932369295
694.311885339148
694.100893389742
693.872861599988
693.625251807424
693.354996443112
693.058455089313
692.731342359008
692.36870024187
691.964797862718
691.513260358898
691.007092759489
690.438714974246
689.800292074351
689.083764866202
688.281290333412
687.385440295125
686.389469349759
685.287716466926
684.075628922626
682.74991908125
681.308532232898
679.750618205856
678.076297580669
676.28620431
674.381766596526
672.364996863956
670.237750200508
668.001747883068
665.658300226703
663.208667535108
660.654098019244
657.995744907554
655.234745829518
652.372207630971
649.409238769764
646.347062111144
643.18708361695
639.930598245126
636.578811521995
633.132827229592
629.593680490387
625.962321087251
622.239649803322
618.426497682313
614.523734465983
610.53234960438
606.453283843521
602.287413077175
598.035576767325
593.698559355577
589.277118985614
584.771966737642
580.183796062067
575.513260337353
570.761003246703
565.927636094187
561.013770735091
556.020073374726
550.947276263007
545.796074123668
540.567152027426
535.261160250563
529.878743394713
524.420513245175
518.887082406828
513.279039725269
507.596979493419
501.841469366402
496.013084439343
490.112373666305
484.13989624559
478.096186365537
471.981791856747
465.797238386337
459.543076148882
453.219902650751
446.828346958903
440.368992934516
433.842447038116
427.249269929518
420.590047275684
413.865317991422
407.075648626787
400.221557540241
393.303593792635
386.322256222925
379.278077948678
372.171539326296
365.003158790602
357.773399168119
350.482765132032
343.131702935643
335.720704150512
328.25019927007
320.720667587527
313.132524178719
305.486236915061
297.782216435574
290.020947710968
282.202858367231
274.328491131774
266.398289890818
258.412788623212
250.372414442782
242.277690755408
234.129028044369
225.926939984878
217.671820789364
209.364175241542
201.004381741332
192.592936862478
184.130203643027
175.616670971339
167.052686795927
158.438732888236
149.775142317632
141.062390424594
132.300795627343
123.490827486412
114.632789959531
105.727147505565
96.7741898769037
87.7743771299274
78.7279852711049
69.6354708389155
60.4970964573828
51.3133157296347
42.084378374137
32.8107359319081
23.4926255577944
14.1304977821143
4.7245777339338
)
;

boundaryField
{
    electrode
    {
        type            calculated;
        value           uniform 700.000000000016;
    }
    ground
    {
        type            calculated;
        value           uniform 0;
    }
    otherfaces
    {
        type            empty;
    }
}


// ************************************************************************* //
