/*--------------------------------*- C++ -*----------------------------------*\
| =========                 |                                                 |
| \\      /  F ield         | foam-extend: Open Source CFD                    |
|  \\    /   O peration     | Version:     4.0                                |
|   \\  /    A nd           | Web:         http://www.foam-extend.org         |
|    \\/     M anipulation  |                                                 |
\*---------------------------------------------------------------------------*/
FoamFile
{
    version     2.0;
    format      ascii;
    class       volScalarField;
    location    "2e-06";
    object      Sy_electron;
}
// * * * * * * * * * * * * * * * * * * * * * * * * * * * * * * * * * * * * * //

dimensions      [1 -3 -1 0 0 0 0];

internalField   nonuniform List<scalar> 
300
(
9.09293421831664e-15
9.09782086877405e-15
9.10212156120221e-15
9.10450530447896e-15
9.10599132455402e-15
9.1066620227396e-15
9.10657411847375e-15
9.10579062257893e-15
9.10435965482239e-15
9.10232147386094e-15
9.0997057037734e-15
9.09653905580965e-15
9.09284462289698e-15
9.08864299046468e-15
9.08395278115529e-15
9.07879107974298e-15
9.07316826479546e-15
9.06710173616445e-15
9.06060853582403e-15
9.05370239480829e-15
9.04639663410934e-15
9.03870415252369e-15
9.03063750961429e-15
9.02220894400779e-15
9.01340143165821e-15
9.0042497458156e-15
8.99476313314037e-15
8.98494786982769e-15
8.97483123766634e-15
8.96442479573649e-15
8.95370657014866e-15
8.94270001062121e-15
8.93144056326896e-15
8.91994074982078e-15
8.90821260655686e-15
8.89626768305669e-15
8.88410928124887e-15
8.87175204379362e-15
8.85921155773267e-15
8.84649711184026e-15
8.83361794251135e-15
8.82058640778562e-15
8.80741236927953e-15
8.79410533622919e-15
8.78067445591093e-15
8.76712843751512e-15
8.75347191138644e-15
8.73971040909396e-15
8.72583343482955e-15
8.71184167114569e-15
8.69771639593892e-15
8.68348244074268e-15
8.66913351284719e-15
8.65470310722425e-15
8.64020790636178e-15
8.62567853339896e-15
8.61112300561501e-15
8.59654860328492e-15
8.58196191028304e-15
8.56736573909039e-15
8.55276938807047e-15
8.5381782828114e-15
8.52358860164832e-15
8.50897198477681e-15
8.49433684344453e-15
8.47972732538671e-15
8.46514795731034e-15
8.45060271334367e-15
8.4360949511668e-15
8.4216274569518e-15
8.40719920350654e-15
8.3927986578287e-15
8.37842335863047e-15
8.36408529743246e-15
8.34976199773063e-15
8.33545463738879e-15
8.321172624525e-15
8.30690806523364e-15
8.29269164800928e-15
8.27847239783456e-15
8.26430360224959e-15
8.25018584805702e-15
8.23611114852804e-15
8.22207970457885e-15
8.20806434340644e-15
8.19407321654621e-15
8.18012008768546e-15
8.1662003303071e-15
8.15228983218023e-15
8.13839478531518e-15
8.12449952420162e-15
8.1105276786526e-15
8.09655746627228e-15
8.08258318510431e-15
8.06859621701379e-15
8.05458736709179e-15
8.0405464740176e-15
8.02646246575777e-15
8.01230780609409e-15
7.99807084427784e-15
7.98374869575203e-15
7.96933028547646e-15
7.95475457760545e-15
7.94005088367674e-15
7.92519030187776e-15
7.91014317446598e-15
7.89491500467729e-15
7.87945945798831e-15
7.86377353561023e-15
7.84784588177072e-15
7.83165355448591e-15
7.81517214554101e-15
7.7983684989814e-15
7.78121654807323e-15
7.76368927112873e-15
7.74573676060304e-15
7.7273066073983e-15
7.70840729708304e-15
7.68901202504092e-15
7.66908039665184e-15
7.64854545184116e-15
7.62739430219651e-15
7.60555441469529e-15
7.58300690258942e-15
7.55973271458023e-15
7.53569265254962e-15
7.5108109031814e-15
7.48507263378474e-15
7.45842294939469e-15
7.43081757732996e-15
7.40219252602382e-15
7.37249827619008e-15
7.34168234100591e-15
7.3096630187714e-15
7.27634762877248e-15
7.24173395814501e-15
7.20574273021528e-15
7.16826433346781e-15
7.12924862906693e-15
7.08865028267778e-15
7.04639047088443e-15
7.00238774885798e-15
6.9565395089088e-15
6.90874203880947e-15
6.8588996893151e-15
6.80697039005584e-15
6.75286659169366e-15
6.69649720232e-15
6.63775216566837e-15
6.57649784451282e-15
6.51267329909886e-15
6.44617054235838e-15
6.37683571847601e-15
6.30458629526463e-15
6.22931749534859e-15
6.15088661877091e-15
6.06915789184785e-15
5.9840432829926e-15
5.89543172171297e-15
5.80318231939705e-15
5.70716487977107e-15
5.6072722631576e-15
5.50338134646529e-15
5.39543822335086e-15
5.28339225530104e-15
5.16760837666551e-15
5.0489720393553e-15
4.92744809618515e-15
4.80170848659656e-15
4.67088492112177e-15
4.53494885506587e-15
4.39325011124124e-15
4.24388011596023e-15
4.08454378681053e-15
3.91425103936578e-15
3.73175471758547e-15
3.53725365019853e-15
3.3352343340578e-15
3.13110577552398e-15
2.93292019273232e-15
2.75223231763022e-15
2.60668051324142e-15
2.52677915227451e-15
2.56007707656973e-15
2.80557456386705e-15
3.53197183554453e-15
5.30327397699334e-15
9.04753690578965e-15
2.3990731882619e-14
8.29630582317776e-14
4.22376925849309e-13
4.08597557764609e-12
1.82951978465267e-10
1.14641199578412e-09
3.47468571712712e-09
5.32554519590157e-09
5.80394111912924e-09
5.1280299876379e-09
4.16585635803466e-09
3.3381013733643e-09
2.74860133540743e-09
2.3515665621674e-09
2.09803942325651e-09
1.94734831032133e-09
1.8546503322936e-09
1.80698905045529e-09
1.7759211011601e-09
1.7632456217421e-09
1.76150555017357e-09
1.76579406278437e-09
1.77072577063314e-09
1.77341002029878e-09
1.77533749952577e-09
1.77550682070636e-09
1.7732751927271e-09
1.7682597297141e-09
1.76026354496094e-09
1.74922607636552e-09
1.73518663544786e-09
1.71825581306607e-09
1.69859736243179e-09
1.67638329595263e-09
1.65178970236994e-09
1.62484611678716e-09
1.59494510769078e-09
1.56349106431614e-09
1.53074561399367e-09
1.49696087726791e-09
1.46237528722897e-09
1.42721155011978e-09
1.39167537099987e-09
1.35595482678393e-09
1.32022018258946e-09
1.28462402047508e-09
1.24930166608332e-09
1.21437179025684e-09
1.17993717701741e-09
1.14608560634995e-09
1.11289081033957e-09
1.08041351246444e-09
1.04870251067698e-09
1.01779578278928e-09
9.87721969246819e-10
9.58501997200567e-10
9.30149747673675e-10
9.02671952878093e-10
8.76068860249041e-10
8.50331151316438e-10
8.25439064038654e-10
8.01375722565819e-10
7.78128714312837e-10
7.55682704307278e-10
7.34020227901309e-10
7.13121712424659e-10
6.92966112607455e-10
6.73531030597825e-10
6.54795996827913e-10
6.36735579151051e-10
6.19321211731218e-10
6.02529110130013e-10
5.8633862275865e-10
5.70726256568555e-10
5.55669110932908e-10
5.41144650095037e-10
5.27130971102694e-10
5.13606897954775e-10
5.00551528471742e-10
4.87945028361066e-10
4.75758712786497e-10
4.63965036504325e-10
4.52547571069117e-10
4.41491237046975e-10
4.30782376633855e-10
4.20408171151201e-10
4.10356650570735e-10
4.00616680854268e-10
3.91178001128171e-10
3.82031251047816e-10
3.73168024401648e-10
3.64580853823525e-10
3.56263300216496e-10
3.48208889187513e-10
3.3990286274285e-10
3.31735802529425e-10
3.23755077380228e-10
3.15958398180608e-10
3.08357388143205e-10
3.00965490209753e-10
2.93796463326323e-10
2.85944585345791e-10
2.77957163073012e-10
2.70151202369926e-10
2.6257780974192e-10
2.53610411918164e-10
2.44454720973653e-10
2.34726505934917e-10
2.23126431472272e-10
2.09496226454412e-10
1.9239616852176e-10
1.68339421677503e-10
)
;

boundaryField
{
    electrode
    {
        type            zeroGradient;
    }
    ground
    {
        type            zeroGradient;
    }
    otherfaces
    {
        type            empty;
    }
}


// ************************************************************************* //
