/*--------------------------------*- C++ -*----------------------------------*\
| =========                 |                                                 |
| \\      /  F ield         | foam-extend: Open Source CFD                    |
|  \\    /   O peration     | Version:     4.0                                |
|   \\  /    A nd           | Web:         http://www.foam-extend.org         |
|    \\/     M anipulation  |                                                 |
\*---------------------------------------------------------------------------*/
FoamFile
{
    version     2.0;
    format      ascii;
    class       volScalarField;
    location    "2e-06";
    object      Te;
}
// * * * * * * * * * * * * * * * * * * * * * * * * * * * * * * * * * * * * * //

dimensions      [0 0 0 1 0 0 0];

internalField   nonuniform List<scalar> 
300
(
27704.8359622802
27704.9940960959
27705.1112397828
27705.1884151886
27705.2955410857
27705.4313817473
27705.5936549289
27705.7828506191
27705.9990262768
27706.2421158923
27706.5121111504
27706.8090063093
27707.1327941745
27707.4834709755
27707.8610359117
27708.2654908567
27708.696840438
27709.1550920548
27709.6402558772
27710.1523448526
27710.6913747156
27711.2573639969
27711.8503340324
27712.4703089756
27713.1173158092
27713.7913843604
27714.4925473144
27715.2208402281
27715.9763015479
27716.7589726293
27717.5688977519
27718.4061241398
27719.2707019868
27720.1626844739
27721.0821277945
27722.029091181
27723.0036369281
27724.0058304246
27725.0357401829
27726.0934378692
27727.1789983375
27728.2924996691
27729.4340232097
27730.6036536078
27731.8014788651
27733.0275903767
27734.282082985
27735.5650550348
27736.8766084269
27738.2168486822
27739.5858850054
27740.9838303575
27742.4108015255
27743.8669192066
27745.3523080919
27746.8670969533
27748.4114187453
27749.9854107044
27751.5892144581
27753.2229761429
27754.8868465272
27756.5809811399
27758.3055404145
27760.0606898345
27761.8466000892
27763.6634472426
27765.5114129086
27767.3906844369
27769.3014551108
27771.2439243584
27773.2182979722
27775.224788343
27777.2636147078
27779.335003409
27781.4391881742
27783.5764104056
27785.7469194864
27787.9509731096
27790.1888376196
27792.4607883714
27794.7671101203
27797.1080974219
27799.4840550564
27801.895298485
27804.3421543217
27806.8249608361
27809.344068488
27811.8998404854
27814.4926533804
27817.1228976962
27819.7909785898
27822.4973165564
27825.2423481712
27828.026526881
27830.8503238343
27833.7142287663
27836.6187509389
27839.5644201343
27842.5517877099
27845.5814277206
27848.6539381108
27851.7699419786
27854.9300889272
27858.1350564965
27861.3855516905
27864.6823126064
27868.0261101715
27871.4177499954
27874.8580743518
27878.3479642904
27881.8883419044
27885.4801727554
27889.1244684672
27892.822289514
27896.5747482112
27900.3830119292
27904.2483065486
27908.1719201794
27912.1552071654
27916.1995924031
27920.3065759933
27924.4777382581
27928.7147451531
27933.0193540938
27937.3934202257
27941.8389031578
27946.3578741765
27950.9525239473
27955.6251707428
27960.3782692763
27965.2144204464
27970.1363829735
27975.1470905851
27980.2496557813
27985.4481496647
27990.7476951048
27996.1489837363
28001.6546100958
28007.2714793487
28013.0042547383
28018.8580349055
28024.8383029157
28030.9509834222
28037.2024985019
28043.599826067
28050.1505644001
28056.8630057071
28063.7462211013
28070.8101594903
28078.0657630748
28085.5251026379
28093.2015364985
28101.1098978293
28109.2667160005
28117.6904789412
28126.4019454106
28135.4245159285
28144.7846807648
28154.5125518525
28164.6425172394
28175.2140597274
28186.2727690658
28197.8726316942
28210.078249543
28222.9691502653
28236.7001118337
28251.512153494
28267.5572648779
28284.8433617716
28303.4645832533
28323.6662051143
28345.6514624497
28369.4555685401
28395.0438895558
28422.5760133115
28452.1415839392
28484.0274211441
28519.33277789
28559.4928917277
28606.8387007004
28665.121293051
28740.6129019127
28844.3118075507
28991.9020018296
29206.5027947548
29523.4400420971
29996.8194207895
30707.0335711293
31769.8829564673
33376.7942280907
35832.2439132964
39610.8780225187
45532.9355546503
55253.9774833261
69892.6809247183
89253.2524841383
116322.360124378
151194.64213282
195541.526263598
247606.009100013
303840.522783354
360145.893302306
413434.770307162
462001.201441911
505221.517719561
543225.026849776
576508.330726512
605637.245429432
631267.943422054
653973.973533121
674235.454078082
692443.495117885
708944.041104868
724029.292674139
737935.537030791
750857.467029063
762955.450900393
774362.170217093
785187.778886104
795523.644227914
805447.972727715
815021.963393276
824291.461603358
833300.354758883
842086.977415164
850680.110437172
859102.799791569
867372.764869755
875503.172251489
883503.28621111
891378.922857953
899132.843736158
906765.092170991
914273.273789371
921652.815325999
928897.184262062
935998.089799962
942945.665652874
949728.629627339
956334.436298052
962749.415048264
968958.842517777
974947.082210534
980697.878465983
986194.473900132
991419.475456081
996355.698479124
1000985.06267793
1005286.24279658
1009240.050578
1012829.50809489
1016035.79103875
1018840.05012038
1021223.16622138
1023166.01038742
1024648.64983077
1025652.69801107
1026145.42972051
1026134.57941443
1025585.77013179
1024480.92689117
1022799.38050505
1020521.3173451
1017626.58813091
1014094.85139372
1009905.62738264
1005037.7472392
999472.918414447
993187.428035437
986156.609455662
978361.101602401
969777.298558544
960380.86580156
950146.20011774
939046.512729378
927053.644496466
914137.913745024
900267.900994629
885410.255584447
869529.373711647
852587.542414091
834543.678911471
815361.94481419
794994.921434385
773385.720259737
750482.108605757
726218.527141816
700517.475783014
673303.935686754
644489.096452321
613961.45076961
581595.742358814
547254.792469135
510751.144884771
471858.974747875
430295.586991748
385659.68348834
337400.197440048
284708.438603301
226524.746621296
)
;

boundaryField
{
    electrode
    {
        type            electronTemperature;
        seec            0.05;
        Tse             1000;
        Edepend         1;
        TFN             1000;
        field_emission  0;
        field_enhancement_factor 55;
        work_function   5;
        value           uniform 27704.8359622802;
    }
    ground
    {
        type            electronTemperature;
        seec            0.05;
        Tse             1000;
        Edepend         1;
        TFN             1000;
        field_emission  0;
        field_enhancement_factor 55;
        work_function   5;
        value           uniform 193495.505800991;
    }
    otherfaces
    {
        type            empty;
    }
}


// ************************************************************************* //
