/*--------------------------------*- C++ -*----------------------------------*\
| =========                 |                                                 |
| \\      /  F ield         | foam-extend: Open Source CFD                    |
|  \\    /   O peration     | Version:     4.0                                |
|   \\  /    A nd           | Web:         http://www.foam-extend.org         |
|    \\/     M anipulation  |                                                 |
\*---------------------------------------------------------------------------*/
FoamFile
{
    version     2.0;
    format      ascii;
    class       volScalarField;
    location    "2e-06";
    object      TeMean;
}
// * * * * * * * * * * * * * * * * * * * * * * * * * * * * * * * * * * * * * //

dimensions      [0 0 0 1 0 0 0];

internalField   nonuniform List<scalar> 
300
(
29637.3616162646
29637.694462888
29637.7116903304
29637.4451570061
29637.1050952191
29636.6703033171
29636.146020239
29635.5375181684
29634.8461661257
29634.0738772774
29633.2224276889
29632.2935402339
29631.2888709256
29630.2099683393
29629.0583220352
29627.8353569656
29626.542429908
29625.1808444627
29623.7518495274
29622.2566386601
29620.696358893
29619.0721039206
29617.3849216897
29615.6358119674
29613.8257249689
29611.9555964331
29610.026324168
29608.0387594699
29605.9937345071
29603.8920250075
29601.7343459932
29599.521430071
29597.2540194447
29594.9328030409
29592.5584342398
29590.1315178552
29587.6526356076
29585.1223742602
29582.5412975888
29579.9099318457
29577.2287721454
29574.4983186719
29571.7190502383
29568.8914149264
29566.0158410216
29563.0927358935
29560.1224842211
29557.1054446722
29554.0419392381
29550.9322527795
29547.7766336427
29544.5753404581
29541.3286683853
29538.0368900269
29534.7002704345
29531.3190858786
29527.8935729538
29524.4239345372
29520.9103806775
29517.3531078307
29513.7522934232
29510.1081244896
29506.4207198103
29502.6901623446
29498.91661184
29495.1002568088
29491.2412544408
29487.3397365058
29483.3958208362
29479.4096262382
29475.3812458017
29471.3107181887
29467.198110089
29463.0435036168
29458.8469271219
29454.6083623961
29450.3278330519
29446.0054278062
29441.6411768632
29437.2350703457
29432.7871671696
29428.2975289778
29423.7661491614
29419.1929758168
29414.5779417506
29409.9210358937
29405.2222879328
29400.4816784375
29395.6991446282
29390.8746414156
29386.0080695238
29381.0993108552
29376.1483813124
29371.1552335582
29366.1197682403
29361.0419419715
29355.9216725373
29350.7588706981
29345.5534208716
29340.3052068769
29335.0141577211
29329.680100329
29324.3028404173
29318.8822819406
29313.4183000847
29307.9107349261
29302.3593982485
29296.7640955319
29291.1246602928
29285.4409044043
29279.7126267791
29273.9396041862
29268.1215701608
29262.2583078879
29256.3495491882
29250.3949617758
29244.3941779357
29238.346877111
29232.2527849117
29226.1114741614
29219.9224684377
29213.6853017826
29207.3994571999
29201.0644381847
29194.6797865683
29188.2449482244
29181.7592442365
29175.2220088922
29168.632573374
29161.9901360392
29155.293817667
29148.5427311377
29141.7359547839
29134.8723490088
29127.9506435947
29120.9696926687
29113.9282701748
29106.8249237064
29099.6581368775
29092.4263705155
29085.127961074
29077.7610594821
29070.3236296183
29062.8134419944
29055.2281779111
29047.5654897504
29039.8229133031
29031.9978700587
29024.087424412
29016.0884037687
29007.9977147013
28999.8120131674
28991.5277604001
28983.1414885099
28974.6494845525
28966.0478980517
28957.3329648924
28948.5011338777
28939.5491430529
28930.4740307126
28921.2739140681
28911.9484256225
28902.4992145901
28892.9328385861
28883.265273845
28873.5222530907
28863.7391909227
28853.9655255105
28844.2481095526
28834.6209344669
28825.115150752
28815.7055212025
28806.2740923572
28796.624254416
28786.5030665407
28775.5501932363
28763.241115177
28749.1176423797
28732.8547748419
28714.4074573365
28694.5224863729
28675.1546267809
28660.3699537912
28657.4832370762
28678.5966572296
28743.2275465132
28881.7732972456
29141.3460974481
29595.1148926302
30358.8945352838
31619.8803311429
33685.9872009498
37076.9041357044
42837.4628536636
52253.212044967
66264.8356017028
87190.646746396
116170.662834391
155330.257558475
204379.91964735
261885.541963078
324572.169334656
388731.510198598
450389.00473085
506624.078455292
556050.542735474
598612.099882018
634965.737654843
666074.03931181
692888.67236632
716184.479264525
736585.771188682
754617.264951123
770707.954176259
785203.167486536
798381.143401476
810466.692770043
821642.614199876
832057.542196662
841829.159974195
851053.669414779
859811.276360287
868168.926555992
876183.413455993
883899.99406817
891355.130406672
898578.076065173
905591.932998771
912414.554521315
919059.264899832
925535.476108514
931849.209791776
938003.527862655
943998.655234835
949832.424405187
955500.737647702
960997.607667044
966315.40836088
971445.04428212
976376.137560266
981097.152183917
985595.51256304
989857.828834618
993870.04859561
997617.528214626
1001085.32395039
1004257.33225002
1007116.68875578
1009647.41733269
1011833.6277063
1013658.95686394
1015106.85941923
1016160.67369711
1016803.66867079
1017019.08361021
1016789.85167699
1016099.50745242
1014925.61206111
1013263.90922699
1011091.28536221
1008391.14742077
1005146.28838908
1001339.84075384
996954.759609772
991973.888386833
986379.851630195
980155.009985295
973281.737459021
965742.431460176
957518.260421888
948589.324612681
938935.978048461
928538.252591358
917374.701600415
905422.485709588
892657.460967376
879054.106502797
864585.319616647
849222.330752286
832934.383933637
815688.539379128
797449.319444851
778180.962893796
757843.787992661
736388.678519073
713764.979860069
689916.639692794
664775.488757203
638270.470341838
610320.609758811
580826.353977409
549672.690086542
516730.254583491
481828.858566362
444760.159032656
405260.734425074
362955.971401879
317339.840306612
267678.040639273
212982.840008797
)
;

boundaryField
{
    electrode
    {
        type            calculated;
        value           uniform 29637.3616162707;
    }
    ground
    {
        type            calculated;
        value           uniform 182024.403972625;
    }
    otherfaces
    {
        type            empty;
    }
}


// ************************************************************************* //
