/*--------------------------------*- C++ -*----------------------------------*\
| =========                 |                                                 |
| \\      /  F ield         | foam-extend: Open Source CFD                    |
|  \\    /   O peration     | Version:     4.0                                |
|   \\  /    A nd           | Web:         http://www.foam-extend.org         |
|    \\/     M anipulation  |                                                 |
\*---------------------------------------------------------------------------*/
FoamFile
{
    version     2.0;
    format      ascii;
    class       regIOobject;
    location    "9e-06/uniform";
    object      profilingInfo;
}
// * * * * * * * * * * * * * * * * * * * * * * * * * * * * * * * * * * * * * //

profilingInfo
(

    {
        id              20;
        parentId        16;
        description     "Foam::Time::writeObject - outputTime";
        calls           90;
        totalTime       0.548105;
        childTime       0;
        onStack         1;
    }

    {
        id              16;
        parentId        1;
        description     "Foam::Time::writeObject";
        calls           90000;
        totalTime       0.678355999999392;
        childTime       0.548105;
        onStack         1;
    }

    {
        id              1;
        description     "application::main";
        calls           1;
        totalTime       1847.000006;
        childTime       28.3429480000026;
        onStack         1;
    }

    {
        id              18;
        parentId        17;
        description     "FO::dumpObjects::execute";
        calls           89999;
        totalTime       0.386126999999944;
        childTime       0;
        onStack         0;
    }

    {
        id              4;
        parentId        3;
        description     "FO::dumpObjects::start";
        calls           1;
        totalTime       2.5e-05;
        childTime       0;
        onStack         0;
    }

    {
        id              19;
        parentId        17;
        description     "FO::fieldAverage1::execute";
        calls           89999;
        totalTime       4.86365400000353;
        childTime       0;
        onStack         0;
    }

    {
        id              5;
        parentId        3;
        description     "FO::fieldAverage1::start";
        calls           1;
        totalTime       0.00045;
        childTime       0;
        onStack         0;
    }

    {
        id              3;
        parentId        2;
        description     "functionObjectList::read";
        calls           1;
        totalTime       0.007644;
        childTime       0.000475;
        onStack         0;
    }

    {
        id              17;
        parentId        1;
        description     "functionObjects_.execute()";
        calls           89999;
        totalTime       5.42550599999778;
        childTime       5.24978100000604;
        onStack         0;
    }

    {
        id              2;
        parentId        1;
        description     "functionObjects_.start()";
        calls           1;
        totalTime       0.007656;
        childTime       0.007644;
        onStack         0;
    }

    {
        id              12;
        parentId        1;
        description     "fvMatrix::solve_N_Arm";
        calls           90133;
        totalTime       4.09241600000347;
        childTime       2.09893800000372;
        onStack         0;
    }

    {
        id              10;
        parentId        1;
        description     "fvMatrix::solve_N_Arp1";
        calls           90828;
        totalTime       4.326750999999;
        childTime       2.15195900000257;
        onStack         0;
    }

    {
        id              8;
        parentId        1;
        description     "fvMatrix::solve_N_electron";
        calls           90721;
        totalTime       4.49504200000155;
        childTime       2.23830399999907;
        onStack         0;
    }

    {
        id              6;
        parentId        1;
        description     "fvMatrix::solve_Phi";
        calls           90000;
        totalTime       4.65071900000294;
        childTime       2.31690900000106;
        onStack         0;
    }

    {
        id              14;
        parentId        1;
        description     "fvMatrix::solve_Te";
        calls           91002;
        totalTime       4.666502000001;
        childTime       2.24644099999916;
        onStack         0;
    }

    {
        id              13;
        parentId        12;
        description     "lduMatrix::solver_N_Arm";
        calls           90133;
        totalTime       2.09893800000372;
        childTime       0;
        onStack         0;
    }

    {
        id              11;
        parentId        10;
        description     "lduMatrix::solver_N_Arp1";
        calls           90828;
        totalTime       2.15195900000257;
        childTime       0;
        onStack         0;
    }

    {
        id              9;
        parentId        8;
        description     "lduMatrix::solver_N_electron";
        calls           90721;
        totalTime       2.23830399999907;
        childTime       0;
        onStack         0;
    }

    {
        id              7;
        parentId        6;
        description     "lduMatrix::solver_Phi";
        calls           90000;
        totalTime       2.31690900000106;
        childTime       0;
        onStack         0;
    }

    {
        id              15;
        parentId        14;
        description     "lduMatrix::solver_Te";
        calls           91002;
        totalTime       2.24644099999916;
        childTime       0;
        onStack         0;
    }
);


// ************************************************************************* //
